Title
55513
    1DOPE     N    1   3.460   5.528   7.173  0.1862  0.2626  0.5167
    1DOPE   HN1    2   3.448   5.584   7.086 -3.1317 -1.5010 -0.3386
    1DOPE   HN2    3   3.417   5.587   7.247  2.2217  0.8929  1.2506
    1DOPE   HN3    4   3.561   5.524   7.195 -0.1829  2.2969  3.0813
    1DOPE   C12    5   3.387   5.400   7.159  0.0799 -0.5368  0.2338
    1DOPE  H12A    6   3.279   5.415   7.136  0.3156 -2.1388 -2.2985
    1DOPE  H12B    7   3.391   5.348   7.257  2.7504  0.7928  0.9297
    1DOPE   C11    8   3.468   5.318   7.052  0.0711  0.5963  0.2239
    1DOPE  H11A    9   3.440   5.374   6.960  1.5773  2.3437  0.7790
    1DOPE  H11B   10   3.423   5.217   7.045  3.1846 -0.8478 -0.8241
    1DOPE     P   11   3.682   5.168   7.091 -0.4589 -0.0449  0.0948
    1DOPE   O13   12   3.588   5.056   7.097 -0.5366 -0.6222 -0.4081
    1DOPE   O14   13   3.773   5.187   7.202  0.0264 -0.2983 -0.4558
    1DOPE   O11   14   3.769   5.144   6.957  0.8057  0.2895 -0.7587
    1DOPE   O12   15   3.608   5.305   7.064 -0.0256  0.1680 -0.0829
    1DOPE    C1   16   3.698   5.134   6.834  0.0635 -0.5553  0.0637
    1DOPE    HA   17   3.637   5.223   6.811 -1.0634 -0.7505  2.0963
    1DOPE    HB   18   3.634   5.043   6.833  1.0174 -1.2636  0.5820
    1DOPE    C2   19   3.799   5.121   6.714  0.0101 -0.0187  0.4814
    1DOPE    HS   20   3.749   5.157   6.622 -0.2294 -1.6547 -0.0600
    1DOPE   O21   21   3.835   4.985   6.687 -0.1447  0.0616 -0.4332
    1DOPE   C21   22   3.743   4.901   6.655  0.2532  0.6984 -0.0641
    1DOPE   O22   23   3.623   4.916   6.628 -0.2858 -0.2197  0.2328
    1DOPE   C22   24   3.806   4.758   6.661  0.4518  0.2982 -0.7471
    1DOPE   H2R   25   3.730   4.709   6.725  1.2650 -0.9916 -0.7225
    1DOPE   H2S   26   3.903   4.751   6.715  0.2060 -0.6824 -0.4056
    1DOPE    C3   27   3.927   5.195   6.733 -0.5996  0.4731  0.0834
    1DOPE    HX   28   3.994   5.171   6.818  0.2258  2.3190 -0.0104
    1DOPE    HY   29   3.902   5.299   6.760  0.4668  0.5411  0.8626
    1DOPE   O31   30   4.005   5.196   6.617 -0.1663 -0.5266  0.1874
    1DOPE   C31   31   3.968   5.279   6.516  0.5196  0.0225 -0.1806
    1DOPE   O32   32   3.881   5.360   6.534  0.3175 -0.4388 -0.1721
    1DOPE   C32   33   4.056   5.251   6.393  0.1629  0.2542 -0.5382
    1DOPE   H2X   34   4.160   5.253   6.430 -0.0453 -2.6588  0.4998
    1DOPE   H2Y   35   4.033   5.148   6.358  0.4455  0.8582 -2.6483
    1DOPE   C23   36   3.816   4.677   6.530  0.1482 -0.1665  0.2291
    1DOPE   H3R   37   3.714   4.672   6.485 -0.9206 -1.8237  2.5822
    1DOPE   H3S   38   3.846   4.574   6.559  0.8745 -0.2785 -0.8737
    1DOPE   C24   39   3.917   4.724   6.428 -0.2899 -0.2553  0.3165
    1DOPE   H4R   40   3.927   4.647   6.349  0.3756  0.5636 -0.4247
    1DOPE   H4S   41   4.016   4.732   6.480 -0.6483  1.9044  0.7729
    1DOPE   C25   42   3.886   4.852   6.353 -0.4142  0.2435  0.4374
    1DOPE   H5R   43   3.910   4.938   6.419 -1.4598  1.7060 -1.0065
    1DOPE   H5S   44   3.778   4.846   6.326  0.2379 -1.1275 -2.2339
    1DOPE   C26   45   3.971   4.875   6.229 -0.1815 -0.6976 -0.6888
    1DOPE   H6R   46   4.073   4.835   6.251  0.5234  0.2338 -2.1538
    1DOPE   H6S   47   3.967   4.984   6.212 -1.9454 -0.4635  0.8863
    1DOPE   C27   48   3.910   4.811   6.101 -0.0135  0.2464  0.0080
    1DOPE   H7R   49   3.816   4.868   6.084  1.0884  1.7918 -1.1649
    1DOPE   H7S   50   3.875   4.707   6.119 -1.2172  0.1519 -2.4993
    1DOPE   C28   51   4.006   4.813   5.979  0.3521 -0.0469  0.5159
    1DOPE   H8R   52   3.944   4.777   5.894  1.5481 -1.4498  0.2199
    1DOPE   H8S   53   4.093   4.746   5.984  0.8284  0.2574 -2.0534
    1DOPE   C29   54   4.058   4.944   5.939 -0.4111 -0.3047 -0.9142
    1DOPE   H9R   55   4.048   5.020   6.018  1.5800 -0.5012 -0.4123
    1DOPE  C210   56   4.121   4.973   5.826 -0.0591 -0.7539  0.5692
    1DOPE  H10R   57   4.160   5.074   5.806  3.2964 -2.2224 -1.1594
    1DOPE  C211   58   4.146   4.878   5.710 -0.5005 -0.6476 -0.1143
    1DOPE  H11R   59   4.137   4.769   5.732  0.0269 -0.7375 -0.3318
    1DOPE  H11S   60   4.244   4.881   5.659 -0.2790 -1.3505  0.2561
    1DOPE  C212   61   4.046   4.899   5.596  0.1662  0.5101  0.4061
    1DOPE  H12R   62   4.062   5.003   5.560  2.0831  0.4803  1.0730
    1DOPE  H12S   63   3.942   4.890   5.634 -0.4487 -0.2691 -1.3373
    1DOPE  C213   64   4.064   4.804   5.486  0.2852 -0.1263 -0.0844
    1DOPE  H13R   65   4.000   4.716   5.508  0.9891 -0.2838  1.4957
    1DOPE  H13S   66   4.160   4.747   5.484 -0.1860 -1.0432  1.6218
    1DOPE  C214   67   4.024   4.858   5.344 -0.5928 -0.2196 -0.7565
    1DOPE  H14R   68   3.917   4.888   5.353 -0.3618  1.4276 -2.7675
    1DOPE  H14S   69   4.015   4.770   5.276  2.4838 -3.2553  2.3588
    1DOPE  C215   70   4.108   4.961   5.279  0.6122 -0.0190  0.3088
    1DOPE  H15R   71   4.213   4.934   5.255  0.6343  1.6674 -1.7535
    1DOPE  H15S   72   4.094   5.059   5.329 -0.7863 -0.2523  0.4120
    1DOPE  C216   73   4.038   4.988   5.145  0.0526 -0.0461 -0.0388
    1DOPE  H16R   74   3.931   5.008   5.167  0.3096  2.7176 -0.8621
    1DOPE  H16S   75   4.032   4.898   5.081 -2.7915  1.5925 -2.2634
    1DOPE  C217   76   4.088   5.111   5.070 -0.5331 -0.4117 -0.1349
    1DOPE  H17R   77   4.186   5.084   5.024  0.9134  1.0629  1.8729
    1DOPE  H17S   78   4.104   5.189   5.148  1.0723  0.0423 -0.8676
    1DOPE  C218   79   3.999   5.168   4.962  0.2740 -0.0332 -0.3205
    1DOPE  H18R   80   4.014   5.111   4.867 -1.4677  1.6316 -1.6798
    1DOPE  H18S   81   4.023   5.274   4.939 -0.6232 -0.0230 -1.2862
    1DOPE  H18T   82   3.890   5.182   4.976  0.0946 -0.3695 -1.2936
    1DOPE   C33   83   4.020   5.346   6.276  0.2614 -0.4066 -0.3541
    1DOPE   H3X   84   4.030   5.454   6.300  0.4331 -0.5379  0.1889
    1DOPE   H3Y   85   3.912   5.334   6.256 -0.6839  1.7642  2.6703
    1DOPE   C34   86   4.106   5.318   6.156  0.9752 -0.4223  0.2235
    1DOPE   H4X   87   4.211   5.333   6.187  0.6042 -1.0205  1.8610
    1DOPE   H4Y   88   4.091   5.212   6.125 -1.5226  0.4852 -2.1446
    1DOPE   C35   89   4.082   5.413   6.030 -0.0302  0.3567 -0.4580
    1DOPE   H5X   90   4.108   5.516   6.061  1.2689  0.4252 -1.6495
    1DOPE   H5Y   91   3.973   5.406   6.010 -0.4922  0.2277  1.8061
    1DOPE   C36   92   4.173   5.358   5.919 -0.3786 -0.2460  0.1437
    1DOPE   H6X   93   4.146   5.253   5.898 -1.4065  0.2481 -1.1736
    1DOPE   H6Y   94   4.275   5.372   5.960 -0.1939  0.4729 -0.5434
    1DOPE   C37   95   4.146   5.443   5.791  0.2148 -0.0145  0.2624
    1DOPE   H7X   96   4.181   5.394   5.698 -1.7978 -0.6392 -0.2158
    1DOPE   H7Y   97   4.036   5.436   5.781 -0.2551  2.2928  2.6494
    1DOPE   C38   98   4.187   5.592   5.794 -0.1793 -0.2045 -0.5581
    1DOPE   H8X   99   4.294   5.573   5.819  0.3226  3.2852  0.4865
    1DOPE   H8Y  100   4.134   5.651   5.871  0.3146  4.3289 -3.3611
    1DOPE   C39  101   4.158   5.667   5.671 -0.0553 -0.0283  0.4905
    1DOPE   H9X  102   4.072   5.629   5.614 -1.4003  0.7694  1.9264
    1DOPE  C310  103   4.228   5.759   5.608 -0.5720  0.9461 -0.0053
    1DOPE  H10X  104   4.195   5.782   5.505 -0.7439  1.5077  0.1696
    1DOPE  C311  105   4.361   5.813   5.649  0.7416  0.3684  0.1094
    1DOPE  H11X  106   4.349   5.916   5.688  4.0130 -0.3864  3.8143
    1DOPE  H11Y  107   4.403   5.755   5.734  1.6892  1.0636  0.1307
    1DOPE  C312  108   4.461   5.804   5.532 -0.1794  0.4532  0.1945
    1DOPE  H12X  109   4.551   5.865   5.556  0.6760  0.9915 -3.6535
    1DOPE  H12Y  110   4.424   5.854   5.440 -0.5109  0.1901  0.1837
    1DOPE  C313  111   4.488   5.656   5.487 -0.6286 -0.0254 -0.1015
    1DOPE  H13X  112   4.527   5.607   5.579 -1.0420  1.2922  0.8136
    1DOPE  H13Y  113   4.395   5.606   5.454  0.4390 -0.5272 -2.5295
    1DOPE  C314  114   4.576   5.650   5.363  0.0084 -0.2866  0.7892
    1DOPE  H14X  115   4.622   5.549   5.353  4.3434  1.3690  1.6860
    1DOPE  H14Y  116   4.666   5.713   5.381  0.3817 -0.4282 -0.4907
    1DOPE  C315  117   4.502   5.682   5.233 -0.0698 -0.6557 -0.3032
    1DOPE  H15X  118   4.455   5.783   5.231  1.0533 -0.0252  1.6460
    1DOPE  H15Y  119   4.421   5.606   5.233 -0.1186 -0.6051 -0.9088
    1DOPE  C316  120   4.595   5.662   5.112  0.0276 -0.2794 -0.0590
    1DOPE  H16X  121   4.557   5.643   5.009  0.9807 -1.9758 -0.1380
    1DOPE  H16Y  122   4.646   5.565   5.129  0.7776  0.0380 -0.4547
    1DOPE  C317  123   4.706   5.770   5.100  0.2996 -0.2519 -0.1331
    1DOPE  H17X  124   4.793   5.746   5.165 -1.3599  0.6184  2.5519
    1DOPE  H17Y  125   4.751   5.755   5.000  1.3168 -0.6765  0.3698
    1DOPE  C318  126   4.656   5.923   5.122 -0.7651 -0.1965  0.1739
    1DOPE  H18X  127   4.596   5.933   5.215  0.0012  3.6644  0.4349
    1DOPE  H18Y  128   4.748   5.986   5.122 -1.0763  0.2647 -0.1964
    1DOPE  H18Z  129   4.597   5.947   5.032  1.7810 -1.8312 -2.1057
    2DOPE     N  130   3.989   5.064   7.304 -0.4503 -0.2211 -0.1857
    2DOPE   HN1  131   4.038   4.992   7.247  2.7380  1.1722  0.5781
    2DOPE   HN2  132   3.984   5.025   7.401 -1.4629 -0.7168 -0.4168
    2DOPE   HN3  133   3.897   5.092   7.265  1.3608  3.1023 -2.5050
    2DOPE   C12  134   4.069   5.190   7.306 -0.0213  0.6499 -0.1027
    2DOPE  H12A  135   4.164   5.166   7.358  0.5288  0.5372 -1.1368
    2DOPE  H12B  136   4.001   5.259   7.361 -0.5348 -0.1275  0.2591
    2DOPE   C11  137   4.094   5.248   7.167 -0.0965 -0.3567 -0.2728
    2DOPE  H11A  138   3.997   5.275   7.120 -0.7161 -0.9355  0.6474
    2DOPE  H11B  139   4.141   5.181   7.093  0.9152 -1.1130  1.0231
    2DOPE     P  140   4.314   5.384   7.199 -0.2912 -0.2362 -0.0088
    2DOPE   O13  141   4.330   5.413   7.346  0.1814  0.5647  0.1876
    2DOPE   O14  142   4.373   5.487   7.109 -1.0968 -0.2314  0.2838
    2DOPE   O11  143   4.374   5.242   7.181 -0.2808  0.2451  0.4514
    2DOPE   O12  144   4.164   5.372   7.162 -0.7601 -0.1155 -0.0518
    2DOPE    C1  145   4.485   5.221   7.087  0.4577  0.5201  0.4109
    2DOPE    HA  146   4.546   5.140   7.132  0.9768 -0.4201 -1.8156
    2DOPE    HB  147   4.556   5.305   7.076  0.0451  1.1219  2.0890
    2DOPE    C2  148   4.428   5.160   6.944 -0.4537  0.1206 -0.4288
    2DOPE    HS  149   4.519   5.140   6.883 -1.5688 -2.9621 -1.2838
    2DOPE   O21  150   4.328   5.249   6.887 -0.0229  0.0350 -0.4812
    2DOPE   C21  151   4.373   5.361   6.844 -0.7151 -0.0223  0.0428
    2DOPE   O22  152   4.493   5.387   6.823  0.3992  0.9967  0.1182
    2DOPE   C22  153   4.255   5.451   6.808  0.2253  0.1080 -0.1738
    2DOPE   H2R  154   4.277   5.552   6.850  0.1134  0.7291 -1.5734
    2DOPE   H2S  155   4.164   5.412   6.857  1.0005  0.5311  1.7318
    2DOPE    C3  156   4.377   5.022   6.954  0.0237 -0.1331 -0.0117
    2DOPE    HX  157   4.289   5.019   7.022 -0.8604 -0.3520 -1.1323
    2DOPE    HY  158   4.448   4.955   7.007  1.5899  1.6847  0.2634
    2DOPE   O31  159   4.345   4.965   6.830 -0.7180  0.0775 -0.0325
    2DOPE   C31  160   4.221   4.919   6.810 -0.7447  0.7919  0.0061
    2DOPE   O32  161   4.137   4.906   6.888  0.6168  0.0995 -0.1397
    2DOPE   C32  162   4.211   4.888   6.662  0.3902  0.5666  0.5588
    2DOPE   H2X  163   4.217   4.777   6.659  0.9787  0.5482  1.7404
    2DOPE   H2Y  164   4.105   4.906   6.637  0.1850 -2.4395 -1.1748
    2DOPE   C23  165   4.251   5.463   6.655 -0.3521  0.3793 -0.1977
    2DOPE   H3R  166   4.216   5.367   6.611  0.1344 -0.7704  1.8367
    2DOPE   H3S  167   4.355   5.480   6.619  0.7586 -0.7173  2.3040
    2DOPE   C24  168   4.167   5.576   6.607  0.4170 -0.2749  0.0799
    2DOPE   H4R  169   4.174   5.658   6.682 -3.8478 -0.2397  0.6508
    2DOPE   H4S  170   4.061   5.545   6.599  0.0860  0.7326  0.4802
    2DOPE   C25  171   4.213   5.607   6.467 -0.3550 -0.1497  0.2504
    2DOPE   H5R  172   4.227   5.516   6.404  2.0843  1.1161 -1.1778
    2DOPE   H5S  173   4.313   5.655   6.467 -0.0182 -0.7331  2.5981
    2DOPE   C26  174   4.113   5.705   6.393 -0.6928 -0.2554  0.3221
    2DOPE   H6R  175   4.089   5.787   6.463 -1.0029 -0.9550  1.0526
    2DOPE   H6S  176   4.017   5.652   6.375 -1.4325  0.3968  2.1439
    2DOPE   C27  177   4.171   5.764   6.264  0.1590 -0.1548 -0.1933
    2DOPE   H7R  178   4.168   5.685   6.187  0.5748  0.1673 -0.5435
    2DOPE   H7S  179   4.279   5.782   6.278  0.3551 -1.0489 -0.5004
    2DOPE   C28  180   4.113   5.898   6.229  0.3804  0.1056 -0.1584
    2DOPE   H8R  181   4.123   5.971   6.311  0.9261 -1.6616  1.4300
    2DOPE   H8S  182   4.003   5.888   6.221  0.3999 -1.1569  0.8019
    2DOPE   C29  183   4.185   5.964   6.113  0.0459  0.0969 -0.4786
    2DOPE   H9R  184   4.292   5.941   6.101  0.1428  0.8914 -1.2540
    2DOPE  C210  185   4.131   6.022   6.009 -0.4195  0.0036  0.5046
    2DOPE  H10R  186   4.202   6.052   5.931 -0.8672  1.1535  0.5205
    2DOPE  C211  187   3.987   6.062   5.988 -0.7627  0.5920  0.4729
    2DOPE  H11R  188   3.982   6.164   6.031 -2.8785  0.0560  1.6837
    2DOPE  H11S  189   3.915   5.996   6.041  0.2050 -0.7915  0.1106
    2DOPE  C212  190   3.943   6.059   5.842 -0.6703 -0.3516 -0.0663
    2DOPE  H12R  191   3.837   6.091   5.848 -0.3750  0.4152  1.9041
    2DOPE  H12S  192   3.949   5.957   5.798  0.4297  0.0352 -0.8402
    2DOPE  C213  193   4.016   6.167   5.754  0.3906 -0.2004 -0.2277
    2DOPE  H13R  194   4.070   6.231   5.827 -1.2986 -0.4396  1.2836
    2DOPE  H13S  195   3.947   6.246   5.718  0.4821  0.3900  0.8641
    2DOPE  C214  196   4.121   6.113   5.649  0.3563  0.2449  0.4955
    2DOPE  H14R  197   4.060   6.040   5.591 -1.7319  2.5109 -0.3512
    2DOPE  H14S  198   4.206   6.067   5.705  0.3964  1.8982  1.8516
    2DOPE  C215  199   4.167   6.217   5.551 -0.1380 -0.5238  0.2218
    2DOPE  H15R  200   4.215   6.300   5.607  0.5469 -1.3823  0.9290
    2DOPE  H15S  201   4.082   6.264   5.496  0.8078 -0.5060 -1.2752
    2DOPE  C216  202   4.271   6.158   5.455  0.6467  0.1009  0.8472
    2DOPE  H16R  203   4.237   6.064   5.407  0.9956  0.3302  0.1276
    2DOPE  H16S  204   4.357   6.122   5.516 -0.9300 -2.0949  1.9093
    2DOPE  C217  205   4.316   6.250   5.336 -0.8183 -0.0641  0.9762
    2DOPE  H17R  206   4.348   6.348   5.379 -0.4826 -0.0923  0.8026
    2DOPE  H17S  207   4.225   6.269   5.276 -0.3355  0.5964  0.4311
    2DOPE  C218  208   4.443   6.204   5.264  0.3043  0.4963  0.1596
    2DOPE  H18R  209   4.527   6.164   5.324 -1.1024 -2.2598  0.4478
    2DOPE  H18S  210   4.469   6.281   5.188  0.8477  0.3164  0.1620
    2DOPE  H18T  211   4.417   6.118   5.198  0.8266  1.2500 -1.0755
    2DOPE   C33  212   4.311   4.938   6.558 -0.2336  0.0925  0.4674
    2DOPE   H3X  213   4.404   4.878   6.567  0.7686  1.6783  1.0395
    2DOPE   H3Y  214   4.332   5.043   6.589 -2.5728  0.6905  0.2589
    2DOPE   C34  215   4.257   4.931   6.420 -0.4975 -0.1728  0.3074
    2DOPE   H4X  216   4.245   4.822   6.404  0.2386 -0.1258 -0.7116
    2DOPE   H4Y  217   4.159   4.983   6.422  0.6958  2.2106  1.2693
    2DOPE   C35  218   4.356   5.002   6.316 -0.1114  0.2395 -1.2759
    2DOPE   H5X  219   4.456   4.955   6.321 -0.1003  0.3774  0.6562
    2DOPE   H5Y  220   4.364   5.111   6.336 -2.7377  0.4719 -1.0566
    2DOPE   C36  221   4.314   4.975   6.170 -0.5072 -0.2409 -0.0780
    2DOPE   H6X  222   4.212   5.016   6.154 -0.2530  0.0929 -0.9167
    2DOPE   H6Y  223   4.312   4.866   6.150  1.5810 -0.5101  0.9734
    2DOPE   C37  224   4.406   5.045   6.069 -0.3134  0.4880  0.6463
    2DOPE   H7X  225   4.372   5.027   5.965  2.2548  2.0870 -0.5943
    2DOPE   H7Y  226   4.397   5.153   6.095 -0.1254  0.3274  1.3847
    2DOPE   C38  227   4.560   5.007   6.069 -0.1766  0.5016 -0.4844
    2DOPE   H8X  228   4.567   4.902   6.035 -1.1689 -0.3607  1.7656
    2DOPE   H8Y  229   4.591   5.026   6.174  3.4930  2.4004 -1.7438
    2DOPE   C39  230   4.655   5.094   5.984 -0.1155 -0.4874 -0.0127
    2DOPE   H9X  231   4.724   5.162   6.035 -1.1488  0.2143  0.5000
    2DOPE  C310  232   4.668   5.073   5.852  0.1556  0.2186  0.0693
    2DOPE  H10X  233   4.751   5.118   5.796  0.2674  0.7261  0.6380
    2DOPE  C311  234   4.593   4.982   5.763 -0.6218  0.0993 -0.3261
    2DOPE  H11X  235   4.664   4.902   5.732  1.6952  1.2500  1.6429
    2DOPE  H11Y  236   4.507   4.932   5.812 -0.1305  2.0224  2.7606
    2DOPE  C312  237   4.547   5.056   5.642 -0.0697  0.0190  0.2703
    2DOPE  H12X  238   4.520   4.985   5.561  0.7083  1.0057 -0.8893
    2DOPE  H12Y  239   4.635   5.104   5.593  1.5246 -1.9074  1.1240
    2DOPE  C313  240   4.432   5.148   5.669  0.8565  0.7109  0.5771
    2DOPE  H13X  241   4.368   5.110   5.752  0.0266  3.3549  1.2341
    2DOPE  H13Y  242   4.463   5.248   5.706  2.0669  0.8132 -0.6508
    2DOPE  C314  243   4.352   5.185   5.541  0.5918  0.3876  1.2113
    2DOPE  H14X  244   4.267   5.251   5.570 -1.4433 -1.0857 -1.0362
    2DOPE  H14Y  245   4.295   5.096   5.509 -0.2221  1.4676 -0.5048
    2DOPE  C315  246   4.427   5.246   5.422 -0.3106 -0.2985 -0.0643
    2DOPE  H15X  247   4.502   5.172   5.386  1.1698  0.4262  1.3610
    2DOPE  H15Y  248   4.488   5.334   5.453 -1.2268  0.1524  0.5072
    2DOPE  C316  249   4.339   5.269   5.303 -0.5353  0.4526 -0.5838
    2DOPE  H16X  250   4.264   5.346   5.330 -0.2507  0.9549 -1.1870
    2DOPE  H16Y  251   4.288   5.175   5.274  2.4801 -0.6898 -2.7552
    2DOPE  C317  252   4.412   5.312   5.174 -0.4014 -0.6080  0.1127
    2DOPE  H17X  253   4.356   5.367   5.095  0.2438  0.8376  0.6337
    2DOPE  H17Y  254   4.489   5.383   5.208 -1.7215  0.1472  1.6794
    2DOPE  C318  255   4.482   5.196   5.093  0.0678 -0.2328 -0.7761
    2DOPE  H18X  256   4.530   5.242   5.004  2.7874  2.0446  1.6587
    2DOPE  H18Y  257   4.570   5.155   5.146  0.2439  0.2253 -0.7087
    2DOPE  H18Z  258   4.419   5.105   5.079  0.7553 -0.4764 -2.6216
    3DOPE     N  259   2.541   5.715   7.179 -0.5709 -0.2448 -0.1749
    3DOPE   HN1  260   2.462   5.782   7.175  0.4828  1.2147  1.6454
    3DOPE   HN2  261   2.530   5.673   7.274  0.1927  2.6817  1.3489
    3DOPE   HN3  262   2.630   5.768   7.188 -1.8048  1.6357  2.5483
    3DOPE   C12  263   2.542   5.624   7.063 -0.5054  0.0508 -0.8456
    3DOPE  H12A  264   2.469   5.666   6.990 -1.7635 -2.7623 -1.3277
    3DOPE  H12B  265   2.493   5.530   7.097 -3.4778  1.6508 -0.3736
    3DOPE   C11  266   2.678   5.612   6.997  0.2437  0.0174  0.5221
    3DOPE  H11A  267   2.668   5.543   6.911 -1.2836  1.2174 -0.3138
    3DOPE  H11B  268   2.743   5.559   7.070  0.5578 -0.3241 -0.0002
    3DOPE     P  269   2.876   5.743   6.874 -0.3014  0.0138  0.5392
    3DOPE   O13  270   2.970   5.651   6.949  0.1454  0.2325 -0.1053
    3DOPE   O14  271   2.914   5.882   6.856  0.3667  0.1403  0.5752
    3DOPE   O11  272   2.835   5.673   6.736 -0.3792 -0.4096  0.0524
    3DOPE   O12  273   2.739   5.734   6.952 -0.8102 -0.4589 -0.2166
    3DOPE    C1  274   2.746   5.731   6.639  0.0851  0.0289 -0.3349
    3DOPE    HA  275   2.797   5.704   6.544  1.6845 -2.4930  1.1019
    3DOPE    HB  276   2.754   5.841   6.654  0.7919  0.0385 -0.7439
    3DOPE    C2  277   2.601   5.674   6.629 -0.4676 -0.2106 -0.1110
    3DOPE    HS  278   2.553   5.689   6.728  0.3345  0.7410  0.1519
    3DOPE   O21  279   2.613   5.537   6.593 -0.2907  0.2205  0.4952
    3DOPE   C21  280   2.511   5.460   6.605 -0.0030  0.2307 -0.0889
    3DOPE   O22  281   2.407   5.496   6.661  0.2682 -0.1689 -0.2186
    3DOPE   C22  282   2.551   5.323   6.554  0.2635 -0.3333  0.1395
    3DOPE   H2R  283   2.575   5.251   6.635  0.2092  0.0595  0.5097
    3DOPE   H2S  284   2.641   5.346   6.493  0.2610  1.2296  0.6862
    3DOPE    C3  285   2.500   5.760   6.530 -0.2756  0.0756  0.1866
    3DOPE    HX  286   2.461   5.847   6.588 -0.9248  0.6016 -0.9964
    3DOPE    HY  287   2.410   5.699   6.510 -0.8872  0.3302  1.9506
    3DOPE   O31  288   2.560   5.798   6.404 -0.0925  0.2173  0.4460
    3DOPE   C31  289   2.585   5.699   6.318  0.5615 -0.2628  1.0902
    3DOPE   O32  290   2.533   5.589   6.320  0.8291  0.5268 -0.4474
    3DOPE   C32  291   2.681   5.751   6.208  0.5311 -0.1480 -0.3492
    3DOPE   H2X  292   2.653   5.854   6.178 -0.5235  0.2618  1.8799
    3DOPE   H2Y  293   2.784   5.756   6.249 -0.5523  3.8834  2.4134
    3DOPE   C23  294   2.451   5.267   6.458  0.0892 -0.0075 -0.1541
    3DOPE   H3R  295   2.435   5.340   6.376  0.1449 -2.5629 -2.5761
    3DOPE   H3S  296   2.355   5.247   6.509  0.7576 -0.8204  0.8414
    3DOPE   C24  297   2.504   5.140   6.397 -0.7671  0.2026  0.1302
    3DOPE   H4R  298   2.526   5.062   6.473 -1.1908 -1.9076 -1.7886
    3DOPE   H4S  299   2.593   5.171   6.338 -1.7001  1.8543 -0.4659
    3DOPE   C25  300   2.398   5.069   6.313  0.2388  0.3136  0.6180
    3DOPE   H5R  301   2.460   5.014   6.239 -0.0939 -1.6652  1.7536
    3DOPE   H5S  302   2.331   5.145   6.267  1.6534  1.9479  1.1057
    3DOPE   C26  303   2.325   4.960   6.389 -0.6715 -0.0335  0.0933
    3DOPE   H6R  304   2.266   5.005   6.472  0.2887 -0.6074  1.1026
    3DOPE   H6S  305   2.392   4.889   6.440 -3.0157 -2.5563 -0.0951
    3DOPE   C27  306   2.243   4.870   6.299  0.1277 -0.0643  0.1869
    3DOPE   H7R  307   2.178   4.933   6.235 -0.9277 -1.4297 -0.1252
    3DOPE   H7S  308   2.167   4.812   6.355 -0.3692 -2.6648 -2.8907
    3DOPE   C28  309   2.328   4.779   6.216  0.7592  0.2981 -0.5457
    3DOPE   H8R  310   2.386   4.704   6.274 -2.1271 -1.9911 -0.3829
    3DOPE   H8S  311   2.398   4.838   6.153  0.5600  2.0547  0.8053
    3DOPE   C29  312   2.231   4.696   6.132 -0.6249 -0.6453 -0.2221
    3DOPE   H9R  313   2.147   4.655   6.190 -3.1819  2.2766 -1.5720
    3DOPE  C210  314   2.235   4.675   5.998  0.0802 -0.7586  0.7726
    3DOPE  H10R  315   2.159   4.614   5.949 -0.9197  0.2672  1.0005
    3DOPE  C211  316   2.335   4.734   5.908 -0.0077 -0.0824  0.1949
    3DOPE  H11R  317   2.402   4.652   5.876 -1.1396 -0.5713 -1.0190
    3DOPE  H11S  318   2.407   4.805   5.954 -1.0890  1.4894 -0.4606
    3DOPE  C212  319   2.269   4.807   5.796  0.2416 -0.4823  0.3554
    3DOPE  H12R  320   2.204   4.891   5.829 -1.5699 -0.7734 -2.1750
    3DOPE  H12S  321   2.207   4.727   5.750  0.6373  0.1799 -1.4160
    3DOPE  C213  322   2.364   4.852   5.683 -0.0237  0.5380 -0.1988
    3DOPE  H13R  323   2.440   4.778   5.650  1.1965  0.4480  2.5803
    3DOPE  H13S  324   2.425   4.936   5.723  0.5999  0.3251 -0.6816
    3DOPE  C214  325   2.276   4.895   5.554 -0.7985  0.8072  0.3633
    3DOPE  H14R  326   2.198   4.964   5.590  0.0058  1.2832  1.2389
    3DOPE  H14S  327   2.223   4.802   5.522  0.2582  0.2762  0.1031
    3DOPE  C215  328   2.371   4.955   5.442  0.6125  0.7676 -0.0160
    3DOPE  H15R  329   2.443   4.876   5.411 -1.4572 -1.9823  1.7445
    3DOPE  H15S  330   2.431   5.038   5.486  0.5541 -0.0581  1.7048
    3DOPE  C216  331   2.289   4.996   5.315 -0.9057  0.6114  0.2561
    3DOPE  H16R  332   2.218   5.069   5.359  0.4648  2.5814 -0.6382
    3DOPE  H16S  333   2.214   4.924   5.275 -1.2599  1.5579 -0.8445
    3DOPE  C217  334   2.369   5.061   5.206 -0.0959  0.2005  0.0746
    3DOPE  H17R  335   2.295   5.085   5.126 -0.6008  1.8592  0.9965
    3DOPE  H17S  336   2.449   4.992   5.172  1.5033  1.6631  0.7234
    3DOPE  C218  337   2.433   5.197   5.245 -0.0321 -0.9819  1.2935
    3DOPE  H18R  338   2.473   5.252   5.157 -1.8564  0.1250  1.0955
    3DOPE  H18S  339   2.514   5.182   5.319  1.5077  2.1514  0.4204
    3DOPE  H18T  340   2.351   5.260   5.286  0.8487 -0.4324  2.2495
    3DOPE   C33  341   2.674   5.664   6.078  0.0208 -0.3121 -0.8092
    3DOPE   H3X  342   2.572   5.674   6.035 -0.8536 -0.9902  0.9954
    3DOPE   H3Y  343   2.688   5.558   6.110 -0.5838  0.4174  2.1724
    3DOPE   C34  344   2.788   5.698   5.977 -0.1337  0.9359 -0.2790
    3DOPE   H4X  345   2.792   5.809   5.965  0.8026  0.8102 -1.3539
    3DOPE   H4Y  346   2.886   5.658   6.010 -0.0577 -1.0218 -2.5946
    3DOPE   C35  347   2.765   5.617   5.844  0.0411  0.5354 -0.4147
    3DOPE   H5X  348   2.664   5.626   5.798 -0.4259  0.1126  0.4999
    3DOPE   H5Y  349   2.776   5.512   5.880  0.5317 -0.4191 -3.1467
    3DOPE   C36  350   2.872   5.632   5.736 -0.0810 -0.2181 -0.1186
    3DOPE   H6X  351   2.978   5.615   5.767 -0.1901 -0.1911  0.2703
    3DOPE   H6Y  352   2.856   5.732   5.690 -0.8451  0.9100  2.4273
    3DOPE   C37  353   2.844   5.546   5.605 -0.6718 -0.2784  0.3674
    3DOPE   H7X  354   2.859   5.439   5.626 -2.1523 -0.4705  0.5788
    3DOPE   H7Y  355   2.735   5.561   5.585 -0.3245  0.5128 -1.0631
    3DOPE   C38  356   2.913   5.593   5.472  0.7001 -0.7216  0.4769
    3DOPE   H8X  357   3.011   5.644   5.487  0.9448 -0.7432 -0.8728
    3DOPE   H8Y  358   2.850   5.672   5.425  0.8432 -0.6394  0.4192
    3DOPE   C39  359   2.926   5.476   5.375  0.2079 -0.8393  0.5461
    3DOPE   H9X  360   2.839   5.409   5.374  0.9593 -1.8805  1.4968
    3DOPE  C310  361   3.025   5.481   5.282 -0.6027 -1.1156  0.4008
    3DOPE  H10X  362   3.032   5.400   5.208  0.9901  0.3525 -1.1373
    3DOPE  C311  363   3.135   5.575   5.254  0.4885 -1.2140  0.0279
    3DOPE  H11X  364   3.161   5.583   5.146  2.1490 -2.6735  0.2699
    3DOPE  H11Y  365   3.121   5.673   5.304  0.0460 -1.4788  0.4230
    3DOPE  C312  366   3.273   5.528   5.296 -0.3090 -0.4601  0.1057
    3DOPE  H12X  367   3.301   5.433   5.245  2.0721 -1.5613  3.1240
    3DOPE  H12Y  368   3.274   5.504   5.404 -2.1153 -2.3405 -0.2352
    3DOPE  C313  369   3.390   5.623   5.258 -0.1159  0.4012  0.1348
    3DOPE  H13X  370   3.355   5.717   5.306 -0.9957 -1.1392  2.7481
    3DOPE  H13Y  371   3.477   5.580   5.313 -0.3116 -1.1131 -0.6787
    3DOPE  C314  372   3.422   5.630   5.108  0.5025  0.4807  0.0027
    3DOPE  H14X  373   3.332   5.654   5.047  0.3818 -0.9436 -0.4265
    3DOPE  H14Y  374   3.452   5.527   5.079  3.0151  1.0687  0.2977
    3DOPE  C315  375   3.534   5.733   5.085 -0.0442 -0.7341 -0.8229
    3DOPE  H15X  376   3.608   5.714   5.165 -1.3734 -0.4830  0.5303
    3DOPE  H15Y  377   3.498   5.836   5.108  1.1871 -0.4216 -0.2125
    3DOPE  C316  378   3.595   5.723   4.943  0.1949  0.5425 -0.2846
    3DOPE  H16X  379   3.652   5.817   4.924 -0.1608  1.1686  1.5157
    3DOPE  H16Y  380   3.517   5.715   4.864 -0.6560  1.1492  0.4598
    3DOPE  C317  381   3.683   5.591   4.937 -0.0686 -0.1872  0.5592
    3DOPE  H17X  382   3.756   5.594   5.021 -1.6522  0.1970  1.9626
    3DOPE  H17Y  383   3.610   5.508   4.943 -0.8982  0.5046  0.1872
    3DOPE  C318  384   3.754   5.591   4.798 -0.0712 -0.5380 -0.2187
    3DOPE  H18X  385   3.821   5.503   4.784 -0.2630 -0.4041 -2.3680
    3DOPE  H18Y  386   3.681   5.590   4.715  0.9208  0.3252 -1.1452
    3DOPE  H18Z  387   3.827   5.675   4.793  0.5734 -0.9364  1.6190
    4DOPE     N  388   3.978   3.097   6.415  0.0612 -0.0543  0.0244
    4DOPE   HN1  389   3.932   3.190   6.424  0.7280  0.1763  1.4748
    4DOPE   HN2  390   4.064   3.111   6.358 -0.6209  1.1993 -0.7307
    4DOPE   HN3  391   3.908   3.029   6.378 -0.2035 -0.5954  1.4197
    4DOPE   C12  392   4.023   3.045   6.553  0.2344  0.0134 -0.0867
    4DOPE  H12A  393   4.065   2.943   6.543 -1.3469 -0.5315 -1.7330
    4DOPE  H12B  394   3.936   3.036   6.622  1.1010 -1.8108  0.8186
    4DOPE   C11  395   4.119   3.152   6.611 -0.0597  1.3785  0.6301
    4DOPE  H11A  396   4.206   3.161   6.543 -0.3700  1.5021  0.2496
    4DOPE  H11B  397   4.142   3.112   6.712 -0.4949 -1.4185 -0.2974
    4DOPE     P  398   4.138   3.396   6.698  0.4091  0.0990 -0.0834
    4DOPE   O13  399   4.208   3.348   6.821 -0.3261  0.2744  0.1416
    4DOPE   O14  400   4.057   3.515   6.725 -0.2081 -0.2083  0.3476
    4DOPE   O11  401   4.252   3.425   6.591 -0.0481 -0.2219  0.2882
    4DOPE   O12  402   4.056   3.282   6.618 -0.1762  0.0713  0.0071
    4DOPE    C1  403   4.246   3.508   6.477  0.4292 -0.4669 -0.0903
    4DOPE    HA  404   4.348   3.545   6.452  0.0598 -0.9447 -2.5365
    4DOPE    HB  405   4.184   3.599   6.490  1.2773  0.8496 -3.8608
    4DOPE    C2  406   4.200   3.435   6.354  0.2672 -0.5977  0.3280
    4DOPE    HS  407   4.109   3.375   6.376  0.3803 -0.6168  0.7512
    4DOPE   O21  408   4.313   3.351   6.318 -0.2977 -0.5655 -0.1301
    4DOPE   C21  409   4.280   3.234   6.263 -0.0098 -0.7258  0.3663
    4DOPE   O22  410   4.169   3.183   6.262 -0.0712 -0.2310 -0.5617
    4DOPE   C22  411   4.404   3.175   6.197  0.3282 -0.1708 -0.2109
    4DOPE   H2R  412   4.431   3.077   6.240  3.8965  1.8536  2.6940
    4DOPE   H2S  413   4.485   3.244   6.227 -2.8032  3.2665  1.2149
    4DOPE    C3  414   4.176   3.538   6.233  0.1336  0.7138 -0.3179
    4DOPE    HX  415   4.277   3.580   6.217  1.1683 -0.6667  2.0598
    4DOPE    HY  416   4.110   3.620   6.269 -0.4357 -0.0136  0.3427
    4DOPE   O31  417   4.127   3.477   6.111  0.4048 -0.0681  0.7936
    4DOPE   C31  418   4.008   3.410   6.115  0.9634 -0.7646  0.3835
    4DOPE   O32  419   3.921   3.433   6.194 -0.4819 -0.4831 -0.4781
    4DOPE   C32  420   3.987   3.308   6.003  0.1825  0.5010  0.3916
    4DOPE   H2X  421   4.085   3.278   5.961 -1.0735 -1.5942 -1.2407
    4DOPE   H2Y  422   3.941   3.221   6.053 -0.3018  0.3714 -0.2579
    4DOPE   C23  423   4.399   3.166   6.040  0.6867 -0.9897 -0.0593
    4DOPE   H3R  424   4.308   3.106   6.018  1.2096 -1.9429  0.3302
    4DOPE   H3S  425   4.494   3.117   6.010  1.1205 -0.1988 -0.0036
    4DOPE   C24  426   4.405   3.306   5.973  0.6096  0.0687  0.5328
    4DOPE   H4R  427   4.482   3.365   6.028  1.1756  0.3339 -0.5110
    4DOPE   H4S  428   4.307   3.358   5.975  1.0667  1.1381 -1.6818
    4DOPE   C25  429   4.446   3.297   5.821  0.3619 -0.6856 -0.5154
    4DOPE   H5R  430   4.553   3.272   5.806  0.4309  0.7049 -2.6692
    4DOPE   H5S  431   4.453   3.398   5.777  0.7459 -0.1735  0.6891
    4DOPE   C26  432   4.356   3.207   5.734  0.1320 -0.1138 -0.6964
    4DOPE   H6R  433   4.251   3.236   5.755 -0.6928 -3.2617  0.0764
    4DOPE   H6S  434   4.355   3.100   5.765 -2.5235  0.1855  0.5111
    4DOPE   C27  435   4.376   3.234   5.581 -0.5141  0.7793  0.9009
    4DOPE   H7R  436   4.481   3.200   5.570 -0.6315  0.4034  0.9486
    4DOPE   H7S  437   4.373   3.345   5.570  2.8357  0.9182  0.4153
    4DOPE   C28  438   4.298   3.156   5.475 -0.1120 -0.4342  0.0853
    4DOPE   H8R  439   4.312   3.050   5.505 -0.3611 -0.3592  0.4717
    4DOPE   H8S  440   4.347   3.165   5.376  0.2424 -2.1373  0.0831
    4DOPE   C29  441   4.156   3.190   5.451  0.4257 -0.2430  0.0342
    4DOPE   H9R  442   4.143   3.299   5.447 -2.4849 -0.5354 -2.2842
    4DOPE  C210  443   4.039   3.121   5.442 -0.4631 -0.1256 -0.4659
    4DOPE  H10R  444   3.947   3.181   5.429 -0.7500 -0.5266 -0.3004
    4DOPE  C211  445   4.020   2.972   5.438 -0.5423  0.3352  0.0811
    4DOPE  H11R  446   4.118   2.923   5.454 -0.4950 -0.0863 -1.2947
    4DOPE  H11S  447   3.994   2.938   5.335 -2.1092 -1.8236  1.1302
    4DOPE  C212  448   3.918   2.904   5.535  0.0885  0.0889 -0.5125
    4DOPE  H12R  449   3.945   2.796   5.530  0.6568  0.1226  1.1464
    4DOPE  H12S  450   3.814   2.912   5.500 -0.1320  1.1240  0.2993
    4DOPE  C213  451   3.931   2.946   5.685  0.0114  0.1082 -0.3759
    4DOPE  H13R  452   3.873   2.876   5.750  2.3799 -1.4145  0.2127
    4DOPE  H13S  453   3.897   3.049   5.705  0.0563  0.3599 -1.5158
    4DOPE  C214  454   4.073   2.916   5.742  0.3693 -0.0037  0.1421
    4DOPE  H14R  455   4.148   2.972   5.681 -1.0776 -0.0304 -1.7465
    4DOPE  H14S  456   4.077   2.808   5.719  1.1627  0.5015 -2.4121
    4DOPE  C215  457   4.092   2.948   5.892 -0.4299 -0.1247 -0.0205
    4DOPE  H15R  458   4.042   3.045   5.916 -0.9321 -0.5124  0.5289
    4DOPE  H15S  459   4.202   2.952   5.906 -0.0818 -0.9607 -2.1477
    4DOPE  C216  460   4.035   2.836   5.979  0.2769 -0.1341  0.2033
    4DOPE  H16R  461   4.062   2.736   5.938 -0.9446 -0.2071 -0.4446
    4DOPE  H16S  462   3.925   2.824   5.970  0.5937 -2.3344 -1.5822
    4DOPE  C217  463   4.069   2.863   6.130 -0.5785  0.3990  0.4020
    4DOPE  H17R  464   4.018   2.958   6.158 -1.9099  0.8814 -3.2150
    4DOPE  H17S  465   4.178   2.874   6.152 -0.5792  2.3011 -0.3792
    4DOPE  C218  466   4.020   2.744   6.209  0.2665  0.3020 -0.4673
    4DOPE  H18R  467   3.915   2.720   6.184 -0.5501  2.5497  0.5108
    4DOPE  H18S  468   4.035   2.761   6.318 -1.2502 -1.3242  0.0350
    4DOPE  H18T  469   4.083   2.656   6.184 -1.6027 -1.6820  1.3734
    4DOPE   C33  470   3.903   3.351   5.883  0.3959 -0.2415  0.5033
    4DOPE   H3X  471   3.801   3.351   5.925 -0.6243 -0.5883 -1.8178
    4DOPE   H3Y  472   3.908   3.264   5.814  0.2285 -1.0557  1.4871
    4DOPE   C34  473   3.930   3.485   5.823 -0.1223 -0.1491 -0.5260
    4DOPE   H4X  474   3.909   3.557   5.905  0.7374 -0.1854 -0.2736
    4DOPE   H4Y  475   4.037   3.496   5.794  0.1401 -2.5074 -0.6246
    4DOPE   C35  476   3.836   3.511   5.704  0.2103 -0.8825 -0.4486
    4DOPE   H5X  477   3.825   3.622   5.703  0.0878 -0.8352  1.5280
    4DOPE   H5Y  478   3.737   3.466   5.722 -0.1164 -0.1592 -0.4009
    4DOPE   C36  479   3.890   3.459   5.570  0.7665  0.7333 -0.5515
    4DOPE   H6X  480   3.859   3.353   5.555 -0.0527  0.3411  2.9657
    4DOPE   H6Y  481   4.000   3.455   5.575  0.9712 -2.7007 -3.5772
    4DOPE   C37  482   3.844   3.540   5.455  0.3446  0.0578 -0.9557
    4DOPE   H7X  483   3.734   3.527   5.440  0.1337 -1.0168  1.1429
    4DOPE   H7Y  484   3.865   3.648   5.464 -0.4228  0.3291 -2.1478
    4DOPE   C38  485   3.914   3.491   5.323  0.1042  0.0392 -0.9545
    4DOPE   H8X  486   3.849   3.531   5.242 -1.2446  1.8703  0.9381
    4DOPE   H8Y  487   3.907   3.380   5.326 -0.8265  0.0648 -1.6074
    4DOPE   C39  488   4.059   3.533   5.298  1.1569  0.4580  0.0121
    4DOPE   H9X  489   4.119   3.530   5.390  1.1186  0.1128  0.0264
    4DOPE  C310  490   4.122   3.581   5.190  0.0102 -0.0205  0.5717
    4DOPE  H10X  491   4.222   3.624   5.207 -0.4781  0.8873  1.2912
    4DOPE  C311  492   4.076   3.614   5.048  0.2776  0.2682  0.2653
    4DOPE  H11X  493   3.965   3.611   5.051  0.2801  0.5053  0.7229
    4DOPE  H11Y  494   4.095   3.717   5.011 -0.2301 -0.2040 -1.3887
    4DOPE  C312  495   4.126   3.514   4.943  0.4034 -0.0792  0.3792
    4DOPE  H12X  496   4.065   3.421   4.937 -0.8439  0.7465 -0.3982
    4DOPE  H12Y  497   4.231   3.486   4.965 -0.1269 -0.7911  2.1271
    4DOPE  C313  498   4.121   3.572   4.797 -0.1128  0.2215 -1.4187
    4DOPE  H13X  499   4.018   3.605   4.772 -0.6775 -1.9772 -2.1742
    4DOPE  H13Y  500   4.197   3.653   4.790  0.4141 -0.2324 -0.9519
    4DOPE  C314  501   4.155   3.467   4.695  0.8598 -0.3169 -0.2816
    4DOPE  H14X  502   4.107   3.368   4.710  0.6196 -0.0718  0.6396
    4DOPE  H14Y  503   4.265   3.455   4.707  1.4102  3.8692  0.3563
    4DOPE  C315  504   4.125   3.520   4.557  0.2793  0.1875  0.0642
    4DOPE  H15X  505   4.102   3.627   4.570 -3.0437  0.0690 -3.1447
    4DOPE  H15Y  506   4.032   3.471   4.521 -1.1211  1.8426  1.2752
    4DOPE  C316  507   4.241   3.521   4.453 -1.1837  0.1830  0.2504
    4DOPE  H16X  508   4.291   3.424   4.433 -0.5435  0.5641 -0.0212
    4DOPE  H16Y  509   4.325   3.580   4.496  1.0361 -2.7837  0.3528
    4DOPE  C317  510   4.206   3.573   4.313  0.3046 -0.0728  0.1219
    4DOPE  H17X  511   4.129   3.653   4.323 -0.0590 -0.3318 -0.5323
    4DOPE  H17Y  512   4.290   3.628   4.265 -1.6252  2.2675 -0.7930
    4DOPE  C318  513   4.166   3.463   4.217  0.3592 -0.2902 -1.0454
    4DOPE  H18X  514   4.155   3.498   4.113 -1.3183 -0.8979 -1.1015
    4DOPE  H18Y  515   4.245   3.386   4.205 -1.3353 -1.8528 -2.9227
    4DOPE  H18Z  516   4.077   3.405   4.249 -0.4333  0.4450 -1.8752
    5DOPE     N  517   2.219   4.465   7.118 -0.3032  0.2291  0.6753
    5DOPE   HN1  518   2.294   4.535   7.106  0.0417 -0.1814  0.4179
    5DOPE   HN2  519   2.229   4.424   7.213  3.2609  0.7158  0.6598
    5DOPE   HN3  520   2.227   4.392   7.045  0.5357  0.2452  0.7456
    5DOPE   C12  521   2.082   4.520   7.124 -0.6950 -0.0063  0.6076
    5DOPE  H12A  522   2.068   4.597   7.203  1.5943 -1.0574  2.1534
    5DOPE  H12B  523   2.019   4.435   7.157 -2.4952 -1.1336 -4.7867
    5DOPE   C11  524   2.035   4.571   6.993 -0.5289  0.0399  0.7657
    5DOPE  H11A  525   2.100   4.652   6.952  1.0925 -1.6563 -0.1386
    5DOPE  H11B  526   1.930   4.601   7.014 -0.6707 -0.3315  0.6049
    5DOPE     P  527   1.950   4.458   6.770  0.3604 -0.4062  0.2169
    5DOPE   O13  528   1.818   4.390   6.789 -0.6785 -0.0154 -0.3314
    5DOPE   O14  529   2.039   4.398   6.664  0.8097  0.0162  0.4125
    5DOPE   O11  530   1.925   4.617   6.745 -0.7722 -0.1157  0.2080
    5DOPE   O12  531   2.022   4.454   6.909  0.1580 -0.5985 -0.1323
    5DOPE    C1  532   1.794   4.664   6.708  0.7601 -0.2343 -0.2105
    5DOPE    HA  533   1.757   4.740   6.780  0.2483  0.5368 -1.2616
    5DOPE    HB  534   1.719   4.582   6.708 -0.7625  1.0597  1.6620
    5DOPE    C2  535   1.813   4.756   6.579 -0.4652  0.1423 -0.3824
    5DOPE    HS  536   1.716   4.801   6.549 -0.5123  0.1030 -0.2883
    5DOPE   O21  537   1.872   4.692   6.464  0.1592 -0.1059 -0.0780
    5DOPE   C21  538   1.804   4.586   6.427 -1.2250 -0.4228 -0.3686
    5DOPE   O22  539   1.697   4.546   6.472  0.0160  0.5813  0.6595
    5DOPE   C22  540   1.882   4.517   6.315 -0.8151 -0.0002 -0.3634
    5DOPE   H2R  541   1.855   4.409   6.318 -1.8939  0.2918  0.9870
    5DOPE   H2S  542   1.990   4.535   6.336 -1.4190  1.7245  1.5771
    5DOPE    C3  543   1.911   4.880   6.611 -0.3415 -0.1852 -0.2342
    5DOPE    HX  544   2.016   4.844   6.616 -0.1356  0.4737  0.3221
    5DOPE    HY  545   1.893   4.917   6.714  1.0418  0.4285 -0.1983
    5DOPE   O31  546   1.885   4.980   6.511 -0.1553  0.8591  0.3263
    5DOPE   C31  547   1.935   5.095   6.543 -0.6728 -0.0687 -0.7995
    5DOPE   O32  548   1.994   5.128   6.644  0.4114  0.3976 -0.5875
    5DOPE   C32  549   1.887   5.195   6.437 -0.3408  0.6768  0.6706
    5DOPE   H2X  550   1.892   5.138   6.342  0.1972 -1.0544  1.6914
    5DOPE   H2Y  551   1.782   5.223   6.462 -0.1776  2.0249 -0.0493
    5DOPE   C23  552   1.850   4.577   6.181  0.3696 -0.9924  0.4941
    5DOPE   H3R  553   1.910   4.520   6.107  0.9616  0.3879 -0.1199
    5DOPE   H3S  554   1.892   4.680   6.179 -1.3496 -0.2413  1.0295
    5DOPE   C24  555   1.704   4.572   6.139  0.4984  0.0934 -0.7663
    5DOPE   H4R  556   1.659   4.659   6.191  0.2275 -1.5538  1.9207
    5DOPE   H4S  557   1.654   4.485   6.185  3.0420 -0.9081  0.2830
    5DOPE   C25  558   1.675   4.589   5.992  0.5578 -0.3824 -0.5316
    5DOPE   H5R  559   1.682   4.489   5.945 -0.0438 -1.0052  0.6684
    5DOPE   H5S  560   1.764   4.641   5.950  0.0199 -0.6536 -2.0731
    5DOPE   C26  561   1.542   4.662   5.966  0.2250 -0.0819 -1.0661
    5DOPE   H6R  562   1.539   4.750   6.034  0.9684 -0.2286 -0.8294
    5DOPE   H6S  563   1.461   4.591   5.991 -1.9165  2.5401  0.0264
    5DOPE   C27  564   1.534   4.710   5.817 -0.4525  0.3998  0.0225
    5DOPE   H7R  565   1.536   4.617   5.756 -0.9790  0.9242 -0.8065
    5DOPE   H7S  566   1.626   4.767   5.792 -0.8267  1.4925  1.0479
    5DOPE   C28  567   1.416   4.791   5.765  0.0708 -0.2427 -0.5241
    5DOPE   H8R  568   1.325   4.737   5.798 -1.1605  2.9798  1.8979
    5DOPE   H8S  569   1.421   4.785   5.655 -0.1561 -0.1111 -0.5426
    5DOPE   C29  570   1.411   4.923   5.834 -0.5991 -0.1836 -0.0306
    5DOPE   H9R  571   1.394   4.922   5.943  2.2481  1.6370  0.5665
    5DOPE  C210  572   1.425   5.048   5.788 -0.5941 -0.8135  0.5256
    5DOPE  H10R  573   1.418   5.137   5.852  1.7006  0.7782 -1.2370
    5DOPE  C211  574   1.431   5.065   5.635 -0.1487  0.5292 -0.4134
    5DOPE  H11R  575   1.338   5.114   5.598  0.0697  0.1738 -1.4862
    5DOPE  H11S  576   1.441   4.969   5.580 -0.0896  0.3735 -0.1325
    5DOPE  C212  577   1.557   5.140   5.578 -0.0563 -0.0317 -0.0303
    5DOPE  H12R  578   1.551   5.238   5.629 -0.1581  0.2839 -0.6305
    5DOPE  H12S  579   1.534   5.165   5.472 -5.5571 -2.6357  0.2083
    5DOPE  C213  580   1.687   5.075   5.581 -0.7435  0.3506 -0.1670
    5DOPE  H13R  581   1.700   5.023   5.679  0.3335 -0.0381 -0.5059
    5DOPE  H13S  582   1.770   5.146   5.560  1.1492 -0.8704  2.5311
    5DOPE  C214  583   1.707   4.948   5.492 -0.4794 -0.2965 -0.4818
    5DOPE  H14R  584   1.704   4.966   5.383 -1.5599 -1.4805 -0.6675
    5DOPE  H14S  585   1.628   4.874   5.517 -0.5294  0.0001  0.2671
    5DOPE  C215  586   1.843   4.878   5.522 -0.1261 -0.1020  0.5778
    5DOPE  H15R  587   1.861   4.848   5.628  2.7339 -0.5880  0.0389
    5DOPE  H15S  588   1.930   4.944   5.503  0.3648 -1.4397 -2.3195
    5DOPE  C216  589   1.872   4.750   5.440 -0.2822 -0.5316  0.4722
    5DOPE  H16R  590   1.821   4.673   5.502 -0.1510 -0.8555  0.1766
    5DOPE  H16S  591   1.980   4.724   5.449 -0.4671 -1.4212  0.2062
    5DOPE  C217  592   1.814   4.739   5.297 -0.0613 -0.1100  0.5189
    5DOPE  H17R  593   1.853   4.827   5.242 -0.0759 -0.7505 -0.5488
    5DOPE  H17S  594   1.703   4.737   5.295 -0.0976 -0.8855 -2.8783
    5DOPE  C218  595   1.864   4.610   5.235 -0.2217  0.4051 -0.0731
    5DOPE  H18R  596   1.800   4.536   5.288 -1.2517  0.4040 -1.2714
    5DOPE  H18S  597   1.973   4.597   5.248 -0.0644  1.8113  0.1558
    5DOPE  H18T  598   1.839   4.613   5.127 -1.5443 -1.7360  0.1039
    5DOPE   C33  599   1.977   5.323   6.429  0.5063  1.4756 -0.1786
    5DOPE   H3X  600   2.071   5.297   6.375 -0.5977  0.3937 -1.7029
    5DOPE   H3Y  601   2.011   5.352   6.530  2.1855  1.7847 -0.7909
    5DOPE   C34  602   1.913   5.439   6.357 -0.4993  0.2428  0.1326
    5DOPE   H4X  603   1.989   5.520   6.359 -1.0219  0.7441  0.0330
    5DOPE   H4Y  604   1.891   5.417   6.250 -1.7866  0.7865  0.2560
    5DOPE   C35  605   1.784   5.495   6.421  0.0141 -0.2751 -0.6684
    5DOPE   H5X  606   1.803   5.517   6.529 -0.2364 -1.2442 -0.4110
    5DOPE   H5Y  607   1.707   5.415   6.419  1.0032 -1.2799 -0.1073
    5DOPE   C36  608   1.726   5.615   6.347 -0.5530  0.6345 -0.0627
    5DOPE   H6X  609   1.638   5.640   6.411 -1.1618  0.6822 -0.9081
    5DOPE   H6Y  610   1.691   5.565   6.255  1.5481 -1.3909  0.1529
    5DOPE   C37  611   1.822   5.727   6.305 -0.0280 -0.1726 -0.2985
    5DOPE   H7X  612   1.893   5.742   6.389 -0.2128 -0.7121 -0.0500
    5DOPE   H7Y  613   1.885   5.682   6.225 -0.0826 -0.5324 -0.1384
    5DOPE   C38  614   1.751   5.859   6.266  0.1514  0.6658  0.6122
    5DOPE   H8X  615   1.832   5.927   6.235  0.4504 -0.1207 -0.3948
    5DOPE   H8Y  616   1.693   5.894   6.354  0.8272  1.2613  0.8226
    5DOPE   C39  617   1.655   5.825   6.155 -0.3175 -0.5168  0.0346
    5DOPE   H9X  618   1.560   5.785   6.194  0.1591 -2.6787 -0.8809
    5DOPE  C310  619   1.676   5.838   6.023  0.5510  0.7596  0.3651
    5DOPE  H10X  620   1.595   5.807   5.955  0.8264 -0.3481  0.5229
    5DOPE  C311  621   1.800   5.888   5.952 -0.0470 -0.3782 -0.5784
    5DOPE  H11X  622   1.888   5.889   6.019  1.6126 -2.2390 -2.5595
    5DOPE  H11Y  623   1.832   5.819   5.871 -1.9282 -3.1998  0.9327
    5DOPE  C312  624   1.787   6.026   5.883 -0.7126  0.1098  0.0093
    5DOPE  H12X  625   1.892   6.055   5.859 -0.6831  1.7974  1.9246
    5DOPE  H12Y  626   1.765   6.106   5.957  1.0139  0.4572  0.1937
    5DOPE  C313  627   1.689   6.036   5.773  0.2668 -0.4897  0.2249
    5DOPE  H13X  628   1.709   5.950   5.706  1.0516  0.4065 -0.7119
    5DOPE  H13Y  629   1.588   6.019   5.817  0.4897  0.2733  1.0631
    5DOPE  C314  630   1.689   6.172   5.706  0.1002 -0.2188  0.7338
    5DOPE  H14X  631   1.654   6.256   5.769  2.1091  0.9200  0.4331
    5DOPE  H14Y  632   1.625   6.164   5.615  1.1962  1.7133 -0.2627
    5DOPE  C315  633   1.822   6.221   5.647  0.1361  0.1016  0.0565
    5DOPE  H15X  634   1.813   6.278   5.552 -0.1987  0.6809  0.4274
    5DOPE  H15Y  635   1.883   6.131   5.625 -0.2792  0.1798 -1.4815
    5DOPE  C316  636   1.883   6.317   5.746  0.4250  0.2410  0.0932
    5DOPE  H16X  637   1.869   6.276   5.848  0.9070 -0.5386 -0.1495
    5DOPE  H16Y  638   1.828   6.413   5.730  1.1745  0.9152  1.3711
    5DOPE  C317  639   2.037   6.342   5.722 -0.5348 -0.4769 -0.3478
    5DOPE  H17X  640   2.038   6.354   5.611  1.6949  1.7741 -0.1623
    5DOPE  H17Y  641   2.063   6.440   5.768 -0.9326 -1.8902  3.1997
    5DOPE  C318  642   2.141   6.243   5.767  0.4819  0.1246 -0.3594
    5DOPE  H18X  643   2.246   6.271   5.741  0.9871 -0.8299  0.5415
    5DOPE  H18Y  644   2.147   6.222   5.876  1.1749 -0.2036 -0.4536
    5DOPE  H18Z  645   2.128   6.143   5.721  1.6292 -0.4586  0.5291
    6DOPE     N  646   1.103   4.144   6.710  0.1005  0.1491 -0.2230
    6DOPE   HN1  647   1.084   4.243   6.685 -1.6912  0.1623  1.0300
    6DOPE   HN2  648   1.064   4.084   6.634 -1.9209 -0.9597  1.5672
    6DOPE   HN3  649   1.059   4.111   6.799  0.1055 -0.6678 -0.5171
    6DOPE   C12  650   1.241   4.116   6.729 -0.6932 -0.2251 -1.2572
    6DOPE  H12A  651   1.265   4.112   6.837  1.7691 -1.3286 -1.7748
    6DOPE  H12B  652   1.299   4.198   6.682 -1.6297  1.2420  0.0412
    6DOPE   C11  653   1.280   3.985   6.653  0.6996 -0.1368  0.1042
    6DOPE  H11A  654   1.385   3.961   6.683  0.9561 -0.2248 -0.8296
    6DOPE  H11B  655   1.275   4.006   6.544 -0.7847 -0.8276  0.0223
    6DOPE     P  656   1.220   3.731   6.645  0.1967  0.0616 -0.5556
    6DOPE   O13  657   1.096   3.658   6.597 -0.1225  0.1859  0.6992
    6DOPE   O14  658   1.299   3.675   6.754  0.3340  0.3232 -0.3400
    6DOPE   O11  659   1.321   3.741   6.528 -0.0556 -0.8032  0.3238
    6DOPE   O12  660   1.187   3.883   6.672  0.7552 -0.2293 -0.1346
    6DOPE    C1  661   1.322   3.634   6.433 -0.2289  0.4192  0.1016
    6DOPE    HA  662   1.245   3.656   6.357  1.5339  2.8303 -1.1101
    6DOPE    HB  663   1.309   3.534   6.481  0.9551 -0.6382 -1.6770
    6DOPE    C2  664   1.447   3.630   6.359  0.1305 -0.4248 -0.1569
    6DOPE    HS  665   1.524   3.619   6.439 -2.0031  0.4394  2.1327
    6DOPE   O21  666   1.470   3.749   6.288 -0.1954 -0.0669  0.0149
    6DOPE   C21  667   1.540   3.844   6.358  0.1401 -0.6919  0.3382
    6DOPE   O22  668   1.596   3.829   6.466 -0.2527 -0.0121  0.6093
    6DOPE   C22  669   1.558   3.964   6.268  0.2621 -0.7831 -0.0444
    6DOPE   H2R  670   1.472   4.034   6.270  0.7655 -0.1716  1.6419
    6DOPE   H2S  671   1.589   3.919   6.171  1.0281 -2.3201  0.8644
    6DOPE    C3  672   1.469   3.510   6.261  0.0777 -0.2184  0.8552
    6DOPE    HX  673   1.376   3.512   6.201 -0.5310  0.6613  1.8015
    6DOPE    HY  674   1.467   3.405   6.298 -2.1849 -0.4154  0.3000
    6DOPE   O31  675   1.578   3.534   6.166 -0.0047  0.3991  0.4167
    6DOPE   C31  676   1.689   3.531   6.222  0.6987  0.1063  0.1754
    6DOPE   O32  677   1.712   3.491   6.335 -0.3221 -0.4529 -0.5141
    6DOPE   C32  678   1.793   3.586   6.123 -0.2036  0.6371 -0.3511
    6DOPE   H2X  679   1.872   3.509   6.110 -2.4432 -1.4426 -2.3653
    6DOPE   H2Y  680   1.746   3.592   6.023 -0.6357  0.3034 -0.1730
    6DOPE   C23  681   1.679   4.047   6.317 -0.5551  0.3038  0.0141
    6DOPE   H3R  682   1.761   3.972   6.306 -0.7439 -0.1488  1.4472
    6DOPE   H3S  683   1.670   4.081   6.422 -0.8673  0.7562 -0.1573
    6DOPE   C24  684   1.716   4.165   6.228  0.3472  0.1087 -0.2596
    6DOPE   H4R  685   1.795   4.220   6.283 -0.4009  0.6845  0.2567
    6DOPE   H4S  686   1.629   4.234   6.224 -0.9507 -1.4414 -0.0029
    6DOPE   C25  687   1.763   4.127   6.086 -0.4933 -0.1381 -1.2941
    6DOPE   H5R  688   1.692   4.059   6.033 -2.0697  0.5803 -0.1880
    6DOPE   H5S  689   1.856   4.067   6.087 -0.6489 -0.4291 -2.4306
    6DOPE   C26  690   1.805   4.254   6.010 -0.3650 -0.1048  0.5104
    6DOPE   H6R  691   1.883   4.323   6.049  0.1197 -0.6905  0.5903
    6DOPE   H6S  692   1.708   4.308   6.003  0.7953  1.9672 -0.3912
    6DOPE   C27  693   1.855   4.220   5.875  0.4458 -0.0569  0.0281
    6DOPE   H7R  694   1.836   4.293   5.793  3.2763 -1.7797 -2.3469
    6DOPE   H7S  695   1.788   4.138   5.842  0.8247 -0.3547 -0.0105
    6DOPE   C28  696   2.005   4.197   5.872  0.2268  0.3904  0.0474
    6DOPE   H8R  697   2.025   4.105   5.930 -0.3061 -0.9743 -1.8205
    6DOPE   H8S  698   2.064   4.284   5.908  0.1374  1.1073 -1.4298
    6DOPE   C29  699   2.060   4.154   5.744 -0.0935  1.0574  0.3936
    6DOPE   H9R  700   2.080   4.046   5.737 -1.9023  0.6944  0.4474
    6DOPE  C210  701   2.109   4.226   5.640 -0.4220  0.4546  0.2313
    6DOPE  H10R  702   2.157   4.175   5.555  0.9984  1.8553  0.1381
    6DOPE  C211  703   2.108   4.378   5.639 -0.2879  0.6974 -0.3100
    6DOPE  H11R  704   2.190   4.423   5.698 -0.7981  0.8324  0.3097
    6DOPE  H11S  705   2.013   4.414   5.686 -0.2840 -1.3752  1.4433
    6DOPE  C212  706   2.096   4.435   5.496 -0.5377  0.1208 -0.4459
    6DOPE  H12R  707   2.090   4.545   5.509 -3.1942  0.1847 -1.6323
    6DOPE  H12S  708   2.007   4.400   5.441 -1.5689  1.5534  0.2354
    6DOPE  C213  709   2.219   4.409   5.403  0.5475 -0.2316 -1.0413
    6DOPE  H13R  710   2.192   4.453   5.305 -1.6674  1.1548  0.1095
    6DOPE  H13S  711   2.242   4.302   5.381 -0.4592 -0.1998 -2.4167
    6DOPE  C214  712   2.342   4.494   5.428 -0.2436 -0.4256 -0.6800
    6DOPE  H14R  713   2.378   4.467   5.529 -0.3355 -0.0562 -0.5471
    6DOPE  H14S  714   2.326   4.604   5.433  2.1986 -0.0649  2.9235
    6DOPE  C215  715   2.448   4.474   5.310 -0.2126  0.2824  0.0196
    6DOPE  H15R  716   2.398   4.500   5.214 -0.8259  2.4787  0.8735
    6DOPE  H15S  717   2.481   4.368   5.303  1.0094  0.5553  1.2559
    6DOPE  C216  718   2.576   4.556   5.337  0.4353  0.2387 -0.4021
    6DOPE  H16R  719   2.543   4.662   5.343  0.2480  0.3343 -2.5523
    6DOPE  H16S  720   2.644   4.546   5.250 -1.2005 -0.2607 -1.6736
    6DOPE  C217  721   2.648   4.517   5.468  0.1275 -0.3272 -0.5215
    6DOPE  H17R  722   2.592   4.562   5.553 -0.7082 -1.6780 -0.3142
    6DOPE  H17S  723   2.742   4.575   5.475 -0.1726  0.1051 -0.0392
    6DOPE  C218  724   2.672   4.370   5.495 -0.0454 -1.0066 -0.6125
    6DOPE  H18R  725   2.704   4.312   5.405  2.5356 -1.2191  0.3564
    6DOPE  H18S  726   2.577   4.320   5.525 -1.5101  1.3366 -1.1487
    6DOPE  H18T  727   2.741   4.360   5.582 -1.6519 -0.4187  0.7638
    6DOPE   C33  728   1.873   3.709   6.164 -0.4415 -0.8786  0.1747
    6DOPE   H3X  729   1.964   3.693   6.226  0.0155  1.3937  0.1671
    6DOPE   H3Y  730   1.806   3.782   6.214 -1.2043 -1.1119 -0.4903
    6DOPE   C34  731   1.935   3.786   6.048  0.8007 -0.3476  0.6709
    6DOPE   H4X  732   1.850   3.843   6.003  0.4987 -1.2379  0.0824
    6DOPE   H4Y  733   2.005   3.861   6.090 -1.7132  3.0240 -0.6354
    6DOPE   C35  734   2.010   3.709   5.940 -0.2106  0.4385 -0.1963
    6DOPE   H5X  735   1.941   3.651   5.874 -0.9473 -0.9620  1.7056
    6DOPE   H5Y  736   2.089   3.643   5.981 -0.1115  0.6629 -0.0295
    6DOPE   C36  737   2.073   3.808   5.842  0.5893 -1.0342 -0.3734
    6DOPE   H6X  738   2.143   3.860   5.910 -1.1727 -1.0180  1.4990
    6DOPE   H6Y  739   1.998   3.886   5.818  0.8767 -0.6982 -0.1854
    6DOPE   C37  740   2.147   3.745   5.729  0.1508  0.1130  0.2221
    6DOPE   H7X  741   2.237   3.806   5.707  1.8332 -1.5927  1.9606
    6DOPE   H7Y  742   2.181   3.643   5.757  0.2453 -0.2648 -1.2002
    6DOPE   C38  743   2.055   3.726   5.604 -0.5296 -0.4487 -0.0643
    6DOPE   H8X  744   2.013   3.827   5.584 -2.6131 -0.8345  1.9373
    6DOPE   H8Y  745   1.964   3.668   5.630 -0.6998 -0.7804 -1.3083
    6DOPE   C39  746   2.127   3.682   5.481 -0.1040 -0.0698 -0.3569
    6DOPE   H9X  747   2.198   3.754   5.437  0.4342 -0.7700 -0.6476
    6DOPE  C310  748   2.098   3.574   5.405  0.3467 -0.2629  0.5750
    6DOPE  H10X  749   2.150   3.571   5.308 -0.0926 -0.7222  0.3456
    6DOPE  C311  750   2.010   3.463   5.441  0.2154 -0.3077  0.5650
    6DOPE  H11X  751   2.076   3.374   5.434  1.7461  0.6263  2.3335
    6DOPE  H11Y  752   1.973   3.477   5.545 -0.1784  2.2872  0.1352
    6DOPE  C312  753   1.880   3.459   5.344  0.0889 -0.1123 -0.5573
    6DOPE  H12X  754   1.815   3.376   5.379  0.9947  0.1034  1.8371
    6DOPE  H12Y  755   1.902   3.441   5.236  1.5965  2.3735 -0.7391
    6DOPE  C313  756   1.795   3.589   5.344  0.4807  0.8126  0.0879
    6DOPE  H13X  757   1.764   3.613   5.448  1.3531  0.7446  0.3731
    6DOPE  H13Y  758   1.871   3.664   5.314  1.6483  0.4232  1.9011
    6DOPE  C314  759   1.670   3.581   5.246 -0.2557  0.3488 -0.3163
    6DOPE  H14X  760   1.615   3.498   5.294  2.6480 -2.3944 -1.3325
    6DOPE  H14Y  761   1.694   3.553   5.141  1.0593 -3.7911  0.8896
    6DOPE  C315  762   1.594   3.718   5.239  0.3500  0.0067 -0.5176
    6DOPE  H15X  763   1.668   3.796   5.212  0.7510 -0.4572 -0.7827
    6DOPE  H15Y  764   1.554   3.735   5.342 -1.3407 -3.1098 -0.5168
    6DOPE  C316  765   1.479   3.704   5.142 -0.5634 -0.4978  0.3675
    6DOPE  H16X  766   1.419   3.614   5.168 -2.2516  0.6489  0.6101
    6DOPE  H16Y  767   1.527   3.697   5.041 -0.9230 -2.7690  0.3050
    6DOPE  C317  768   1.382   3.833   5.138 -0.1945  0.1805  0.0971
    6DOPE  H17X  769   1.334   3.838   5.238  0.0899 -0.1244  0.2483
    6DOPE  H17Y  770   1.442   3.925   5.125 -1.8167  1.1429 -0.9857
    6DOPE  C318  771   1.279   3.823   5.031  0.5574  0.5431 -0.7094
    6DOPE  H18X  772   1.201   3.902   5.041 -0.2885 -0.5458  2.1726
    6DOPE  H18Y  773   1.327   3.828   4.931 -0.6060 -0.4457 -1.3448
    6DOPE  H18Z  774   1.232   3.722   5.038  2.4062 -0.3708 -1.0616
    7DOPE     N  775   4.712   5.525   6.880  0.8153  0.1715 -0.1968
    7DOPE   HN1  776   4.749   5.519   6.978 -1.6239  0.1466  0.7869
    7DOPE   HN2  777   4.668   5.619   6.873  1.8941  0.8122  1.0058
    7DOPE   HN3  778   4.636   5.456   6.864  1.1600 -0.4169  0.5647
    7DOPE   C12  779   4.821   5.521   6.785 -0.4926 -0.4830 -0.1287
    7DOPE  H12A  780   4.792   5.538   6.679 -0.8449  0.3656  0.0984
    7DOPE  H12B  781   4.873   5.423   6.796 -1.5612 -0.9844  0.6206
    7DOPE   C11  782   4.928   5.633   6.820  0.5394  0.3745  0.4774
    7DOPE  H11A  783   4.874   5.730   6.826 -1.5738 -0.7146  0.0085
    7DOPE  H11B  784   4.987   5.644   6.727 -0.4337 -1.5077 -0.4040
    7DOPE     P  785   5.159   5.579   6.925  0.0144 -0.4129 -0.3446
    7DOPE   O13  786   5.187   5.490   7.040  0.8937  0.2808 -0.1944
    7DOPE   O14  787   5.232   5.705   6.907 -0.4229 -0.4209 -0.3202
    7DOPE   O11  788   5.163   5.500   6.791  0.5241 -1.0342  0.1009
    7DOPE   O12  789   5.007   5.612   6.934 -0.1011  0.3530 -0.2350
    7DOPE    C1  790   5.171   5.360   6.787  0.0517  0.4209 -0.3653
    7DOPE    HA  791   5.082   5.305   6.826 -0.0836  1.0730  0.2585
    7DOPE    HB  792   5.259   5.311   6.834 -1.6765 -1.4775  1.0923
    7DOPE    C2  793   5.200   5.321   6.646 -0.1422  0.0292 -0.4644
    7DOPE    HS  794   5.296   5.362   6.608  0.4279 -0.3345  0.5236
    7DOPE   O21  795   5.095   5.374   6.564 -0.1649 -0.2549  0.0155
    7DOPE   C21  796   5.115   5.485   6.498  0.0554 -0.0597 -0.3913
    7DOPE   O22  797   5.217   5.556   6.504  0.2278  0.0888  0.2033
    7DOPE   C22  798   4.997   5.517   6.401 -0.1676  0.0260 -0.3363
    7DOPE   H2R  799   4.916   5.555   6.466  0.8420  1.3252  0.2193
    7DOPE   H2S  800   4.975   5.426   6.340  2.9940 -0.0919 -1.4979
    7DOPE    C3  801   5.198   5.163   6.624  0.1521 -0.8149  0.1316
    7DOPE    HX  802   5.101   5.133   6.669  1.2073 -1.2211  2.2505
    7DOPE    HY  803   5.281   5.107   6.672  0.5939 -2.0283 -1.9167
    7DOPE   O31  804   5.211   5.145   6.479  0.1633  0.5154  0.3420
    7DOPE   C31  805   5.121   5.059   6.422 -0.1972  0.5345 -0.2130
    7DOPE   O32  806   5.041   4.985   6.476  0.1702  0.5959  0.0788
    7DOPE   C32  807   5.150   5.067   6.270  0.2636  0.4057  0.0669
    7DOPE   H2X  808   5.189   5.168   6.245  1.0394  0.4024  1.1626
    7DOPE   H2Y  809   5.222   4.984   6.258 -2.3474 -2.1392  0.7949
    7DOPE   C23  810   5.026   5.626   6.297 -0.0656 -0.6170 -0.0285
    7DOPE   H3R  811   5.120   5.680   6.321 -1.1141  1.6366 -0.6184
    7DOPE   H3S  812   4.944   5.702   6.296 -0.2446 -0.8100 -0.5078
    7DOPE   C24  813   5.037   5.576   6.151  0.4037  0.1234 -0.3760
    7DOPE   H4R  814   4.937   5.532   6.132  0.9308 -0.3159 -2.4893
    7DOPE   H4S  815   5.108   5.491   6.152 -1.4155 -1.4658 -0.2115
    7DOPE   C25  816   5.068   5.676   6.042  0.0674 -0.7773  0.3872
    7DOPE   H5R  817   5.005   5.767   6.040  1.6224  0.3142 -1.1297
    7DOPE   H5S  818   5.049   5.627   5.944 -1.5656  0.8913 -0.1776
    7DOPE   C26  819   5.213   5.722   6.040  0.0362  0.0481 -0.0373
    7DOPE   H6R  820   5.278   5.636   6.012 -0.3549  0.2359 -1.6063
    7DOPE   H6S  821   5.243   5.765   6.138  0.5326  2.1424 -1.0477
    7DOPE   C27  822   5.237   5.836   5.943 -0.3458 -0.5042  0.3014
    7DOPE   H7R  823   5.168   5.917   5.976 -0.0753  0.4633 -1.3488
    7DOPE   H7S  824   5.207   5.804   5.841  0.5607 -1.3538  0.2892
    7DOPE   C28  825   5.382   5.895   5.935 -0.2990  0.3989 -0.7414
    7DOPE   H8R  826   5.420   5.909   6.039  1.1703  1.5031 -1.3894
    7DOPE   H8S  827   5.383   5.992   5.881  2.7543  0.2958 -1.0499
    7DOPE   C29  828   5.473   5.792   5.871 -0.2098 -0.3435  0.4241
    7DOPE   H9R  829   5.507   5.708   5.935 -0.1480 -0.3463  0.3872
    7DOPE  C210  830   5.518   5.790   5.745 -0.5995 -0.0346  0.0269
    7DOPE  H10R  831   5.601   5.723   5.720  0.3981  0.5518  1.5899
    7DOPE  C211  832   5.493   5.887   5.630 -0.8250 -0.2950  0.5676
    7DOPE  H11R  833   5.587   5.946   5.622 -1.6162  0.9552  0.1854
    7DOPE  H11S  834   5.415   5.963   5.655 -1.0344 -0.5524  0.7013
    7DOPE  C212  835   5.439   5.820   5.502  0.3721  0.1435 -0.9402
    7DOPE  H12R  836   5.371   5.894   5.457 -0.8397  1.1869  2.3207
    7DOPE  H12S  837   5.370   5.740   5.538  1.9598 -0.0879  1.9349
    7DOPE  C213  838   5.546   5.791   5.397 -0.2003  0.1244 -0.1368
    7DOPE  H13R  839   5.614   5.708   5.424  0.9705  0.5002 -1.7530
    7DOPE  H13S  840   5.620   5.874   5.399 -0.4428  0.3977 -1.3808
    7DOPE  C214  841   5.505   5.764   5.253 -0.0792  0.5969  0.3254
    7DOPE  H14R  842   5.418   5.696   5.241  1.2767 -0.8052 -2.6766
    7DOPE  H14S  843   5.592   5.715   5.204 -1.2766  0.4187 -1.7562
    7DOPE  C215  844   5.486   5.893   5.171 -0.4036  0.3400  0.4523
    7DOPE  H15R  845   5.581   5.949   5.162  0.4510 -1.3363 -2.1003
    7DOPE  H15S  846   5.415   5.962   5.222 -1.1371  0.5286 -0.7781
    7DOPE  C216  847   5.426   5.868   5.034  0.1133 -0.8585  0.1386
    7DOPE  H16R  848   5.316   5.855   5.041 -0.2522  1.9857  0.8821
    7DOPE  H16S  849   5.475   5.775   4.995  1.7834 -0.7866  1.8779
    7DOPE  C217  850   5.449   5.985   4.931 -0.3207  0.9337  0.0783
    7DOPE  H17R  851   5.432   5.938   4.832 -0.7102 -1.5997  1.2707
    7DOPE  H17S  852   5.552   6.027   4.934  0.7124 -1.5190  1.7662
    7DOPE  C218  853   5.345   6.100   4.935  0.2261 -0.1702  0.0127
    7DOPE  H18R  854   5.367   6.176   4.856  0.5032 -1.2979 -1.0154
    7DOPE  H18S  855   5.361   6.153   5.031 -0.2109  0.9221 -0.4923
    7DOPE  H18T  856   5.239   6.068   4.931 -0.1444  1.0667 -0.8650
    7DOPE   C33  857   5.029   5.032   6.180  0.4302 -0.7373 -0.4776
    7DOPE   H3X  858   4.945   5.094   6.220  1.9270  1.0923 -0.0081
    7DOPE   H3Y  859   5.006   4.926   6.202 -1.1988 -0.5579 -1.1698
    7DOPE   C34  860   5.057   5.039   6.028  0.8627  0.1596  0.0462
    7DOPE   H4X  861   5.127   4.953   6.017 -0.6626 -0.9241 -1.7213
    7DOPE   H4Y  862   4.962   5.015   5.976  0.0231 -1.1791  2.1045
    7DOPE   C35  863   5.101   5.173   5.968  0.2628  0.0531  0.8406
    7DOPE   H5X  864   5.210   5.190   5.978  0.7471  0.4985 -3.3356
    7DOPE   H5Y  865   5.038   5.250   6.017 -1.7064 -0.3942 -0.8261
    7DOPE   C36  866   5.066   5.181   5.818 -0.5969  0.8097 -0.3052
    7DOPE   H6X  867   4.958   5.162   5.804 -0.6599 -0.1632  1.2377
    7DOPE   H6Y  868   5.122   5.092   5.782  2.4941  2.8726 -0.9360
    7DOPE   C37  869   5.102   5.302   5.738 -0.1000  0.1515  1.1088
    7DOPE   H7X  870   5.086   5.399   5.790 -0.5369  0.2638  0.7666
    7DOPE   H7Y  871   5.210   5.312   5.711 -0.3916 -0.3081 -0.2960
    7DOPE   C38  872   5.007   5.317   5.620 -0.4478  0.2953 -0.0659
    7DOPE   H8X  873   5.005   5.426   5.598  3.7862  0.6756  0.5656
    7DOPE   H8Y  874   4.902   5.292   5.647  0.1364 -2.6456 -0.2875
    7DOPE   C39  875   5.061   5.237   5.510 -0.1831 -0.1012  0.2421
    7DOPE   H9X  876   5.105   5.139   5.530  1.0359  0.5443  0.8504
    7DOPE  C310  877   5.013   5.256   5.384 -0.0436  0.2856  0.2913
    7DOPE  H10X  878   5.046   5.197   5.297  0.6928 -0.5763  1.1440
    7DOPE  C311  879   4.913   5.358   5.342  0.4659  0.7498  0.1265
    7DOPE  H11X  880   4.830   5.361   5.416  0.9795 -0.0596  0.7473
    7DOPE  H11Y  881   4.955   5.461   5.350 -1.5868  1.7277 -0.8478
    7DOPE  C312  882   4.867   5.330   5.196 -0.0633  0.3265  0.1715
    7DOPE  H12X  883   4.764   5.362   5.171  0.1924 -0.3029 -1.8821
    7DOPE  H12Y  884   4.864   5.221   5.175 -0.1078  0.5904 -1.3371
    7DOPE  C313  885   4.951   5.391   5.082  0.2345  0.0444 -0.3902
    7DOPE  H13X  886   4.950   5.502   5.091  1.0373  0.1300 -1.1742
    7DOPE  H13Y  887   5.051   5.346   5.097  0.0564 -0.4285 -0.6045
    7DOPE  C314  888   4.909   5.350   4.940 -1.0168  0.9579 -0.3429
    7DOPE  H14X  889   4.933   5.242   4.925  0.8209  1.0643  1.4479
    7DOPE  H14Y  890   4.981   5.399   4.871 -0.8588  0.2307 -0.7055
    7DOPE  C315  891   4.767   5.397   4.904  0.0313 -0.0476 -0.0316
    7DOPE  H15X  892   4.756   5.503   4.933 -0.9131 -0.0070 -0.4853
    7DOPE  H15Y  893   4.696   5.335   4.963  0.1295  0.4598  0.6208
    7DOPE  C316  894   4.730   5.392   4.759  1.1446  0.3094  0.1853
    7DOPE  H16X  895   4.797   5.449   4.691 -1.3636  1.0514 -1.8482
    7DOPE  H16Y  896   4.626   5.429   4.746  1.7354  1.8727 -0.3146
    7DOPE  C317  897   4.726   5.247   4.707  0.0206 -0.3283  0.3563
    7DOPE  H17X  898   4.819   5.194   4.738 -0.9199 -2.2530  0.0072
    7DOPE  H17Y  899   4.648   5.182   4.750 -0.3490  0.0695  0.2982
    7DOPE  C318  900   4.721   5.242   4.557  1.1117 -0.2382 -0.1169
    7DOPE  H18X  901   4.618   5.276   4.531  2.0062  2.2842 -0.6267
    7DOPE  H18Y  902   4.791   5.313   4.508 -0.3995  1.7470  0.4681
    7DOPE  H18Z  903   4.739   5.139   4.518 -2.1946 -1.8841  2.1623
    8DOPE     N  904   6.743   4.801   6.948  0.4543  0.0524 -0.0742
    8DOPE   HN1  905   6.829   4.841   6.991  0.5353 -1.4858  1.2728
    8DOPE   HN2  906   6.686   4.794   7.034  0.3584  1.8921  0.0383
    8DOPE   HN3  907   6.772   4.707   6.913  1.2056 -0.0085  0.6770
    8DOPE   C12  908   6.659   4.887   6.850 -0.3880  0.2366 -0.0306
    8DOPE  H12A  909   6.737   4.920   6.777  0.3948 -0.0251  0.6689
    8DOPE  H12B  910   6.625   4.966   6.920 -2.4001  0.7020 -1.4480
    8DOPE   C11  911   6.554   4.800   6.793 -0.2010  0.4809 -0.3317
    8DOPE  H11A  912   6.599   4.712   6.742 -0.3125  0.6057 -0.6484
    8DOPE  H11B  913   6.492   4.853   6.718 -0.4764 -0.1166 -0.5318
    8DOPE     P  914   6.337   4.832   6.936  0.1633 -0.2392  0.0189
    8DOPE   O13  915   6.361   4.982   6.924  0.1593  0.1352  0.7535
    8DOPE   O14  916   6.277   4.788   7.068 -0.4397 -0.1407  0.1822
    8DOPE   O11  917   6.237   4.793   6.817 -0.2914 -0.0637  0.7047
    8DOPE   O12  918   6.472   4.749   6.902  0.2358  0.3311  0.1538
    8DOPE    C1  919   6.210   4.656   6.780  0.1483 -0.3999 -0.3259
    8DOPE    HA  920   6.104   4.629   6.796  0.2483 -0.2219  0.7193
    8DOPE    HB  921   6.267   4.585   6.844  1.3174  0.3601 -0.4959
    8DOPE    C2  922   6.250   4.641   6.630 -0.5976  0.3948  0.1658
    8DOPE    HS  923   6.344   4.701   6.623 -2.0609  2.6589 -1.3689
    8DOPE   O21  924   6.148   4.719   6.559  0.1866  0.3150 -0.3704
    8DOPE   C21  925   6.178   4.837   6.514 -0.6511 -0.4843 -0.2362
    8DOPE   O22  926   6.296   4.865   6.492 -0.2147 -0.0870 -0.4836
    8DOPE   C22  927   6.057   4.924   6.475  0.1448 -0.0713  0.7455
    8DOPE   H2R  928   6.041   4.995   6.559  2.5908  0.6416  0.6898
    8DOPE   H2S  929   5.971   4.853   6.471 -0.6320  0.7964  1.6437
    8DOPE    C3  930   6.260   4.494   6.579 -0.0575 -0.0617 -0.3585
    8DOPE    HX  931   6.161   4.447   6.599  0.5755 -1.3383 -0.0836
    8DOPE    HY  932   6.330   4.438   6.644  0.6752 -0.6652 -1.6171
    8DOPE   O31  933   6.297   4.479   6.438 -0.6297 -0.1151 -0.6278
    8DOPE   C31  934   6.427   4.495   6.420 -0.7243  0.3899  0.0635
    8DOPE   O32  935   6.513   4.517   6.504  0.8020 -0.3292 -0.2314
    8DOPE   C32  936   6.463   4.483   6.273 -0.5576 -0.0463 -0.6776
    8DOPE   H2X  937   6.574   4.484   6.269 -0.5886 -0.4268 -2.2908
    8DOPE   H2Y  938   6.442   4.382   6.232  0.1077  0.3369 -2.0443
    8DOPE   C23  939   6.084   4.991   6.334 -0.0351  0.1234 -0.1630
    8DOPE   H3R  940   6.073   4.930   6.242  0.5058 -0.2102 -0.0140
    8DOPE   H3S  941   6.184   5.040   6.335 -0.7654  1.7609 -1.5141
    8DOPE   C24  942   5.983   5.107   6.316  0.0268 -0.3394  0.2237
    8DOPE   H4R  943   5.950   5.140   6.417 -1.0662 -3.5115  1.0080
    8DOPE   H4S  944   5.903   5.078   6.245  1.7201  2.6692 -3.2329
    8DOPE   C25  945   6.058   5.224   6.248 -0.2806  0.5515 -0.0110
    8DOPE   H5R  946   6.103   5.176   6.159  1.5794 -0.2373  1.2944
    8DOPE   H5S  947   6.146   5.255   6.308  1.0252 -0.4895 -1.3193
    8DOPE   C26  948   5.967   5.347   6.202 -0.4728  0.0855 -0.2413
    8DOPE   H6R  949   5.917   5.381   6.295  3.3443 -1.0086  2.4813
    8DOPE   H6S  950   5.884   5.309   6.140 -3.0227 -0.5281  3.2660
    8DOPE   C27  951   6.053   5.459   6.135  0.6347  0.4959  0.5800
    8DOPE   H7R  952   6.110   5.426   6.045 -0.4383  0.2022 -0.0184
    8DOPE   H7S  953   6.130   5.482   6.212  0.7586 -0.8495  0.8996
    8DOPE   C28  954   5.967   5.583   6.101  0.3991 -0.8936  0.0051
    8DOPE   H8R  955   5.932   5.621   6.199  0.8843  0.9339 -0.4882
    8DOPE   H8S  956   5.877   5.546   6.047  0.1527 -0.3246  0.0208
    8DOPE   C29  957   6.057   5.683   6.022  0.0012  0.1778 -0.8127
    8DOPE   H9R  958   6.158   5.692   6.064 -0.9442 -0.9485  1.9019
    8DOPE  C210  959   6.011   5.773   5.937 -0.2803 -0.6601 -0.7924
    8DOPE  H10R  960   6.087   5.845   5.904 -0.1833 -0.3436  0.1111
    8DOPE  C211  961   5.879   5.775   5.865  0.4998  0.0041  0.2410
    8DOPE  H11R  962   5.805   5.851   5.898 -0.5349 -0.6900 -0.4153
    8DOPE  H11S  963   5.827   5.678   5.882  1.5015 -1.0744 -2.2902
    8DOPE  C212  964   5.891   5.812   5.707 -0.0023  0.2578 -0.5205
    8DOPE  H12R  965   5.926   5.916   5.691 -3.0087  1.5200  0.4010
    8DOPE  H12S  966   5.790   5.804   5.662 -0.5552  0.7960  0.5957
    8DOPE  C213  967   5.975   5.709   5.624 -0.7730 -0.7626 -0.1231
    8DOPE  H13R  968   5.927   5.610   5.642  0.4031 -0.8452  3.1991
    8DOPE  H13S  969   6.075   5.705   5.671  1.1622  3.5520 -3.1933
    8DOPE  C214  970   5.991   5.748   5.475  0.3342 -0.1925 -0.3934
    8DOPE  H14R  971   5.974   5.857   5.468  1.4063 -0.0583 -1.0444
    8DOPE  H14S  972   5.902   5.705   5.424  0.8943 -0.7235 -0.9466
    8DOPE  C215  973   6.126   5.714   5.405  0.0307 -0.9644 -0.4699
    8DOPE  H15R  974   6.099   5.697   5.298  1.2666 -1.5186 -0.7153
    8DOPE  H15S  975   6.173   5.625   5.452  0.5536 -0.2175  0.4559
    8DOPE  C216  976   6.229   5.829   5.407 -0.0783 -0.2324 -0.0632
    8DOPE  H16R  977   6.246   5.845   5.515  1.9009  3.8342 -0.7955
    8DOPE  H16S  978   6.199   5.921   5.352  1.3689  1.0639  1.2311
    8DOPE  C217  979   6.366   5.783   5.353  0.0504  0.2024  0.4583
    8DOPE  H17R  980   6.341   5.778   5.245  2.7296  1.8838 -0.3517
    8DOPE  H17S  981   6.399   5.684   5.392 -0.1018 -0.4213 -0.9354
    8DOPE  C218  982   6.465   5.893   5.371 -0.1932  0.3348 -0.0796
    8DOPE  H18R  983   6.425   5.990   5.333 -2.7657  0.2627  2.1358
    8DOPE  H18S  984   6.565   5.869   5.329 -0.0914  0.4358  0.1012
    8DOPE  H18T  985   6.481   5.915   5.479 -2.5089 -1.2248  0.6616
    8DOPE   C33  986   6.413   4.598   6.191  0.3250 -0.1264  0.0527
    8DOPE   H3X  987   6.470   4.590   6.096  1.1566 -1.5034  0.6279
    8DOPE   H3Y  988   6.429   4.700   6.232 -2.0373  0.9293 -1.4576
    8DOPE   C34  989   6.259   4.605   6.173  0.4486 -0.2719 -0.4339
    8DOPE   H4X  990   6.210   4.505   6.179  0.7489 -0.3684  0.5525
    8DOPE   H4Y  991   6.222   4.660   6.262 -1.4573  0.3690 -1.5557
    8DOPE   C35  992   6.222   4.697   6.055  0.8435  0.5152  0.0289
    8DOPE   H5X  993   6.269   4.666   5.959  0.5431  0.4970 -0.1129
    8DOPE   H5Y  994   6.252   4.800   6.083 -0.2696  0.3371  2.0706
    8DOPE   C36  995   6.068   4.698   6.035  0.3093  0.0876 -0.9189
    8DOPE   H6X  996   6.029   4.757   6.121  2.0647  1.3845 -0.9615
    8DOPE   H6Y  997   6.041   4.591   6.038 -0.1700  0.2114 -0.7052
    8DOPE   C37  998   6.016   4.753   5.903 -0.4013 -0.7023 -0.0208
    8DOPE   H7X  999   6.076   4.730   5.813 -0.6843 -0.9916 -0.1372
    8DOPE   H7Y 1000   5.911   4.716   5.898 -2.4257  4.1618  0.6245
    8DOPE   C38 1001   5.994   4.907   5.906  0.3150  0.1464  0.2962
    8DOPE   H8X 1002   5.931   4.935   5.993  0.8704  4.0482 -0.3638
    8DOPE   H8Y 1003   5.937   4.939   5.816  1.7982  2.7998  0.2100
    8DOPE   C39 1004   6.111   5.007   5.897  0.6815 -0.4234  0.1546
    8DOPE   H9X 1005   6.212   4.967   5.914  1.0484  0.1125 -0.6759
    8DOPE  C310 1006   6.105   5.139   5.863  0.0368 -0.8482 -0.3441
    8DOPE  H10X 1007   6.202   5.187   5.845  0.4925 -1.8440 -0.6205
    8DOPE  C311 1008   5.986   5.225   5.831  0.1784 -0.9705  0.8285
    8DOPE  H11X 1009   5.900   5.180   5.886 -1.0774  2.1898  1.6718
    8DOPE  H11Y 1010   5.985   5.332   5.862 -2.3718 -1.0796  1.3964
    8DOPE  C312 1011   5.959   5.217   5.677  0.5723 -0.2919  0.3529
    8DOPE  H12X 1012   5.858   5.260   5.657  0.3167 -0.5157  1.1243
    8DOPE  H12Y 1013   5.974   5.111   5.647 -2.4771 -0.1815 -2.1146
    8DOPE  C313 1014   6.068   5.304   5.605 -0.0881 -0.7927 -0.3547
    8DOPE  H13X 1015   6.065   5.409   5.640  2.3957 -0.6347 -0.4426
    8DOPE  H13Y 1016   6.159   5.249   5.636 -1.0022 -0.9963  2.1847
    8DOPE  C314 1017   6.074   5.294   5.456  0.2592  0.1616 -0.5149
    8DOPE  H14X 1018   6.063   5.191   5.415  0.1808 -0.5556  1.2219
    8DOPE  H14Y 1019   6.164   5.341   5.412 -0.2995  1.7346 -0.0300
    8DOPE  C315 1020   5.956   5.366   5.393 -0.6175 -0.2664  0.3500
    8DOPE  H15X 1021   5.949   5.475   5.413 -1.0227 -0.3656  0.7542
    8DOPE  H15Y 1022   5.863   5.318   5.431 -0.8675 -0.6052 -0.6293
    8DOPE  C316 1023   5.971   5.339   5.241 -0.5401  0.1895  0.0461
    8DOPE  H16X 1024   5.978   5.228   5.238 -0.3110  0.2153 -0.4210
    8DOPE  H16Y 1025   6.066   5.387   5.211 -0.3253 -0.7500 -0.8313
    8DOPE  C317 1026   5.851   5.377   5.153  0.4848  0.4007  0.3505
    8DOPE  H17X 1027   5.880   5.334   5.054 -1.7526  1.6854 -0.9629
    8DOPE  H17Y 1028   5.765   5.312   5.180  1.6765 -1.2911  0.2389
    8DOPE  C318 1029   5.826   5.518   5.131 -0.6634 -0.3311 -0.5186
    8DOPE  H18X 1030   5.919   5.576   5.113 -0.3398 -0.0629  1.7343
    8DOPE  H18Y 1031   5.775   5.574   5.212  0.1782  0.7171 -0.6867
    8DOPE  H18Z 1032   5.767   5.549   5.042  2.3156  2.3308 -1.7739
    9DOPE     N 1033   1.569   4.294   6.773 -0.5028 -0.7898 -0.5201
    9DOPE   HN1 1034   1.586   4.192   6.763 -0.7678 -0.7703 -1.2022
    9DOPE   HN2 1035   1.528   4.333   6.686 -3.3540  0.6080  1.2806
    9DOPE   HN3 1036   1.663   4.339   6.771 -0.9408  0.1265 -2.4252
    9DOPE   C12 1037   1.492   4.335   6.897 -0.0331 -1.1744  1.0957
    9DOPE  H12A 1038   1.542   4.306   6.991 -0.0977 -1.9942  0.8910
    9DOPE  H12B 1039   1.391   4.288   6.891 -1.1417  1.1167  0.6559
    9DOPE   C11 1040   1.465   4.492   6.903 -0.5442  0.4858  0.3011
    9DOPE  H11A 1041   1.566   4.535   6.920 -1.1587  0.9657  3.2429
    9DOPE  H11B 1042   1.407   4.530   6.990 -0.8336 -0.0532  0.3442
    9DOPE     P 1043   1.253   4.550   6.744  0.2527 -0.5307  0.1531
    9DOPE   O13 1044   1.193   4.671   6.806 -0.8237 -0.3735 -0.2547
    9DOPE   O14 1045   1.184   4.417   6.763  0.3276 -0.0557 -0.5592
    9DOPE   O11 1046   1.253   4.580   6.588  0.4791  0.0725 -0.7150
    9DOPE   O12 1047   1.408   4.541   6.771  0.2201  0.0195 -0.3704
    9DOPE    C1 1048   1.365   4.635   6.521  0.2139  0.2161  0.1063
    9DOPE    HA 1049   1.410   4.557   6.456  1.1628  0.3328  0.6122
    9DOPE    HB 1050   1.446   4.670   6.589  1.1987 -1.2263 -0.2821
    9DOPE    C2 1051   1.322   4.753   6.421  0.0825  0.0312  0.1189
    9DOPE    HS 1052   1.284   4.839   6.480 -0.7345  0.7509 -1.4086
    9DOPE   O21 1053   1.240   4.705   6.317 -0.4598 -0.0798 -0.7532
    9DOPE   C21 1054   1.112   4.709   6.340 -0.3127 -0.7958 -0.6371
    9DOPE   O22 1055   1.052   4.751   6.437  0.4071  0.1539 -0.1155
    9DOPE   C22 1056   1.045   4.635   6.226  0.3365 -0.3228 -0.7676
    9DOPE   H2R 1057   1.091   4.534   6.214 -0.7239 -1.0559  0.9690
    9DOPE   H2S 1058   1.067   4.693   6.134  0.5529  0.9418  0.0611
    9DOPE    C3 1059   1.449   4.807   6.350 -0.4844  0.1614 -0.3869
    9DOPE    HX 1060   1.476   4.751   6.258  1.7352  1.8320 -0.8479
    9DOPE    HY 1061   1.536   4.808   6.419 -0.3619 -1.0418 -0.5049
    9DOPE   O31 1062   1.426   4.937   6.303  0.4102  0.4932 -0.5685
    9DOPE   C31 1063   1.478   5.036   6.366 -0.6558 -0.2054  0.3232
    9DOPE   O32 1064   1.552   5.029   6.463  0.9132 -0.0441  0.2335
    9DOPE   C32 1065   1.445   5.169   6.305 -0.4045 -0.0733  0.0715
    9DOPE   H2X 1066   1.335   5.180   6.313 -0.3313  1.7902 -1.0816
    9DOPE   H2Y 1067   1.494   5.257   6.353 -1.7080  0.6422  0.1130
    9DOPE   C23 1068   0.890   4.630   6.246  0.3185  0.4025  0.0240
    9DOPE   H3R 1069   0.851   4.734   6.247  2.3250  1.2013 -0.5753
    9DOPE   H3S 1070   0.859   4.577   6.339 -0.0671  1.1234  0.3184
    9DOPE   C24 1071   0.826   4.549   6.135  0.1159 -0.0597  0.5821
    9DOPE   H4R 1072   0.856   4.595   6.038  0.6287  0.7691  1.1310
    9DOPE   H4S 1073   0.716   4.554   6.147 -0.1981 -0.1168 -1.7859
    9DOPE   C25 1074   0.867   4.401   6.130  0.4166  0.5084 -0.1398
    9DOPE   H5R 1075   0.853   4.359   6.232  0.9215 -0.6219 -0.5225
    9DOPE   H5S 1076   0.972   4.399   6.091  1.4512  0.2034  2.4817
    9DOPE   C26 1077   0.789   4.313   6.030  0.2046  0.0221 -0.9233
    9DOPE   H6R 1078   0.834   4.341   5.933  2.5709  0.3182  0.1810
    9DOPE   H6S 1079   0.678   4.321   6.038  0.0338 -2.0152 -0.5313
    9DOPE   C27 1080   0.821   4.163   6.053 -0.1007  0.3911  0.6458
    9DOPE   H7R 1081   0.796   4.131   6.156  1.9013 -0.8426  0.7917
    9DOPE   H7S 1082   0.930   4.143   6.042  0.4415  2.9126  1.0483
    9DOPE   C28 1083   0.749   4.066   5.956  0.0322 -0.2704  0.3169
    9DOPE   H8R 1084   0.785   4.105   5.859 -0.4333  1.4708  0.8209
    9DOPE   H8S 1085   0.642   4.096   5.952  0.1827  0.4615  1.4540
    9DOPE   C29 1086   0.784   3.921   5.964  0.3031 -0.3837 -0.3430
    9DOPE   H9R 1087   0.886   3.895   5.995 -0.5585 -3.9236  0.0262
    9DOPE  C210 1088   0.710   3.817   5.914 -0.1186  0.0201 -0.1865
    9DOPE  H10R 1089   0.745   3.714   5.928  0.1067 -0.0505 -1.1928
    9DOPE  C211 1090   0.579   3.850   5.847  0.5243  0.2979  0.2838
    9DOPE  H11R 1091   0.590   3.817   5.741 -0.1099  2.0524 -0.3605
    9DOPE  H11S 1092   0.553   3.958   5.849  2.0077  0.6576  0.7159
    9DOPE  C212 1093   0.454   3.775   5.909 -0.2814  0.4395 -0.1906
    9DOPE  H12R 1094   0.441   3.812   6.013  1.6851  0.6894  0.0079
    9DOPE  H12S 1095   0.484   3.669   5.920  1.7782  1.1273  1.5980
    9DOPE  C213 1096   0.327   3.766   5.824 -0.0873 -0.3789  0.1774
    9DOPE  H13R 1097   0.344   3.711   5.729  2.8800 -0.2256  0.5090
    9DOPE  H13S 1098   0.281   3.863   5.794 -1.0196 -0.5672  0.9448
    9DOPE  C214 1099   0.209   3.711   5.899  0.4599  0.2202 -0.2623
    9DOPE  H14R 1100   0.114   3.743   5.851  1.3565  0.4729 -1.9362
    9DOPE  H14S 1101   0.218   3.745   6.004  0.4672  2.6577 -0.9829
    9DOPE  C215 1102   0.202   3.557   5.899  0.2723 -0.1867  0.3673
    9DOPE  H15R 1103   0.302   3.520   5.930 -0.3561 -1.3462  1.1031
    9DOPE  H15S 1104   0.184   3.523   5.795 -0.1625 -0.3367  0.4875
    9DOPE  C216 1105   0.092   3.510   5.995  0.2199  0.0141  0.0612
    9DOPE  H16R 1106  -0.000   3.553   5.950  1.2743  0.7990 -1.4315
    9DOPE  H16S 1107   0.101   3.560   6.094 -1.7001 -0.5986  0.6055
    9DOPE  C217 1108   0.085   3.357   6.000 -0.4973 -0.3098  0.4801
    9DOPE  H17R 1109   0.191   3.326   5.986 -0.2290  0.7181  0.1413
    9DOPE  H17S 1110   0.037   3.314   5.909 -2.7127  2.2922  0.3075
    9DOPE  C218 1111   0.004   3.303   6.122  0.4529 -0.1037 -0.0229
    9DOPE  H18R 1112   0.030   3.356   6.216  0.9011  0.2898 -0.3668
    9DOPE  H18S 1113   0.038   3.197   6.129 -0.9899 -0.5982 -0.0195
    9DOPE  H18T 1114  -0.104   3.311   6.095  0.9073  1.3456 -1.5706
    9DOPE   C33 1115   1.470   5.186   6.153  0.4807  0.6272  0.8466
    9DOPE   H3X 1116   1.421   5.272   6.102  2.3769 -0.4016 -3.1807
    9DOPE   H3Y 1117   1.438   5.090   6.107  0.4369  0.5411  1.0571
    9DOPE   C34 1118   1.619   5.208   6.140 -0.6072 -0.2792  0.1916
    9DOPE   H4X 1119   1.638   5.307   6.187 -1.8687 -0.0606  0.2665
    9DOPE   H4Y 1120   1.686   5.147   6.205 -0.9956 -0.0231  0.8482
    9DOPE   C35 1121   1.681   5.205   6.001  0.3136 -0.0209  0.6578
    9DOPE   H5X 1122   1.614   5.249   5.925  1.0418  0.6579  0.3976
    9DOPE   H5Y 1123   1.692   5.101   5.965  0.8868  0.9168 -2.1245
    9DOPE   C36 1124   1.815   5.282   5.989 -0.3742  0.4959 -0.5961
    9DOPE   H6X 1125   1.885   5.222   6.053 -1.3523 -0.5241 -0.4502
    9DOPE   H6Y 1126   1.786   5.378   6.035 -1.7309 -1.2656  2.5899
    9DOPE   C37 1127   1.875   5.292   5.844  0.5729 -0.3624 -0.3069
    9DOPE   H7X 1128   1.980   5.329   5.836  0.7043 -0.5155  0.6411
    9DOPE   H7Y 1129   1.866   5.194   5.793  1.5772 -1.1947  1.0541
    9DOPE   C38 1130   1.792   5.394   5.764 -0.4799  0.8596 -0.6021
    9DOPE   H8X 1131   1.798   5.490   5.820 -0.4528 -0.2302  1.3708
    9DOPE   H8Y 1132   1.685   5.362   5.759 -0.6845  1.6953 -2.2317
    9DOPE   C39 1133   1.843   5.416   5.625 -0.2716 -0.0234  0.5177
    9DOPE   H9X 1134   1.887   5.328   5.575  1.2949 -0.0272  1.8050
    9DOPE  C310 1135   1.843   5.528   5.553  0.5049  0.5125  0.2943
    9DOPE  H10X 1136   1.882   5.523   5.450  0.2520 -3.0049  0.2624
    9DOPE  C311 1137   1.799   5.668   5.599  0.1850 -0.2670  0.1860
    9DOPE  H11X 1138   1.707   5.698   5.544 -0.7181 -0.8577  1.3314
    9DOPE  H11Y 1139   1.773   5.654   5.706 -0.3354 -3.4849 -0.2791
    9DOPE  C312 1140   1.921   5.765   5.593  0.0832 -0.0741  0.2185
    9DOPE  H12X 1141   2.003   5.713   5.647  0.0072  0.7182  1.1404
    9DOPE  H12Y 1142   1.902   5.852   5.660 -1.9473 -1.0123  0.9518
    9DOPE  C313 1143   1.950   5.828   5.451  0.2681  0.0975 -0.2755
    9DOPE  H13X 1144   1.947   5.743   5.380 -0.0017  0.6294 -0.9082
    9DOPE  H13Y 1145   1.858   5.889   5.439  0.3624  0.5742  1.1808
    9DOPE  C314 1146   2.077   5.908   5.436  0.3671 -0.0074  0.5449
    9DOPE  H14X 1147   2.157   5.836   5.464 -1.7471 -1.6425  2.7750
    9DOPE  H14Y 1148   2.073   5.983   5.518  1.2557  0.4540  0.1814
    9DOPE  C315 1149   2.087   5.979   5.295  0.8060 -1.1116 -0.1526
    9DOPE  H15X 1150   2.007   6.055   5.281  1.5534 -0.7256 -2.9510
    9DOPE  H15Y 1151   2.053   5.900   5.224 -1.4772  0.9336 -1.4881
    9DOPE  C316 1152   2.227   6.040   5.256  1.0558 -0.2036 -0.2633
    9DOPE  H16X 1153   2.302   5.964   5.289  0.9792  0.1494  0.7487
    9DOPE  H16Y 1154   2.239   6.124   5.327 -1.9164 -0.4587  0.6552
    9DOPE  C317 1155   2.237   6.074   5.108 -0.1688  0.2017 -0.0992
    9DOPE  H17X 1156   2.224   5.983   5.047  1.2827  0.2823 -0.5575
    9DOPE  H17Y 1157   2.150   6.139   5.082 -1.7103 -1.4081  0.8188
    9DOPE  C318 1158   2.366   6.141   5.072 -0.4645 -0.3930  0.7858
    9DOPE  H18X 1159   2.372   6.157   4.962  2.6051  1.7039  1.1198
    9DOPE  H18Y 1160   2.374   6.238   5.126  0.6549  0.5259 -0.9612
    9DOPE  H18Z 1161   2.461   6.089   5.096  2.1512  2.9725 -1.3704
   10DOPE     N 1162   1.239   6.136   7.207  0.1485  0.0738  0.0825
   10DOPE   HN1 1163   1.244   6.197   7.291  1.1190 -1.5413  1.2555
   10DOPE   HN2 1164   1.183   6.185   7.135 -0.5119  0.3190  0.7566
   10DOPE   HN3 1165   1.172   6.062   7.235 -0.1457 -0.9945 -2.9994
   10DOPE   C12 1166   1.364   6.089   7.153  0.1278  0.6599  0.0299
   10DOPE  H12A 1167   1.436   6.130   7.228 -0.2957  0.9671  0.2732
   10DOPE  H12B 1168   1.394   6.144   7.061 -0.8131  1.0496 -0.0503
   10DOPE   C11 1169   1.379   5.932   7.140 -0.1991  0.2805 -0.7625
   10DOPE  H11A 1170   1.348   5.881   7.234 -0.3635  0.3869 -0.7575
   10DOPE  H11B 1171   1.488   5.913   7.138 -0.0008  1.2578  0.0154
   10DOPE     P 1172   1.386   5.825   6.907 -0.3212  0.0049  0.0141
   10DOPE   O13 1173   1.287   5.824   6.802  0.4397 -0.0998 -0.6234
   10DOPE   O14 1174   1.436   5.691   6.940  0.0466  0.0188 -0.0686
   10DOPE   O11 1175   1.505   5.922   6.866 -0.3309  0.1480 -0.0132
   10DOPE   O12 1176   1.314   5.877   7.033 -0.3597  0.3913 -0.4006
   10DOPE    C1 1177   1.481   6.051   6.804 -0.5462  0.2159  0.5685
   10DOPE    HA 1178   1.527   6.132   6.866 -0.3921  0.1475  0.5434
   10DOPE    HB 1179   1.372   6.060   6.781 -0.3681 -0.4662 -0.5827
   10DOPE    C2 1180   1.537   6.051   6.659 -0.0102  0.0366 -0.0644
   10DOPE    HS 1181   1.503   5.954   6.618  0.3216  0.4984 -1.4964
   10DOPE   O21 1182   1.679   6.064   6.661  0.0757  0.2839  0.3806
   10DOPE   C21 1183   1.755   5.950   6.675  0.3981  0.0401 -0.3504
   10DOPE   O22 1184   1.718   5.834   6.676 -0.4620 -0.2922 -0.0754
   10DOPE   C22 1185   1.902   6.000   6.698 -0.0176  0.2020  0.7285
   10DOPE   H2R 1186   1.907   6.011   6.809 -2.2104  1.1849  0.7829
   10DOPE   H2S 1187   1.917   6.105   6.663  1.7611 -0.1638  0.3044
   10DOPE    C3 1188   1.467   6.171   6.573 -0.3197  0.0126 -0.1130
   10DOPE    HX 1189   1.484   6.267   6.625 -1.5309 -0.1103  0.5316
   10DOPE    HY 1190   1.358   6.160   6.588 -0.2522 -0.5744 -0.0098
   10DOPE   O31 1191   1.499   6.181   6.430 -0.2456 -0.6202 -0.0412
   10DOPE   C31 1192   1.451   6.078   6.357  0.2180 -0.2715 -0.5798
   10DOPE   O32 1193   1.389   5.986   6.406 -0.0020  0.0389 -0.4307
   10DOPE   C32 1194   1.471   6.106   6.209  0.0366  0.3988  0.3241
   10DOPE   H2X 1195   1.571   6.146   6.182  0.0033  0.7627  0.7319
   10DOPE   H2Y 1196   1.447   6.019   6.144  0.5033  0.3101  0.2677
   10DOPE   C23 1197   2.017   5.917   6.640  0.0399 -0.2987 -0.3312
   10DOPE   H3R 1198   1.985   5.811   6.632 -0.8898  0.0196 -1.1496
   10DOPE   H3S 1199   2.097   5.911   6.716 -0.7859 -0.7625  0.5283
   10DOPE   C24 1200   2.060   5.957   6.499  0.1538 -0.1955  0.0140
   10DOPE   H4R 1201   2.090   6.063   6.513  0.3759 -0.2988  0.3160
   10DOPE   H4S 1202   1.972   5.963   6.431  1.6009  1.4102 -1.8721
   10DOPE   C25 1203   2.163   5.870   6.433 -0.2818  0.0595 -0.3864
   10DOPE   H5R 1204   2.135   5.764   6.449  0.4990  0.0951  1.4728
   10DOPE   H5S 1205   2.259   5.886   6.486  0.6232  0.4610 -2.0537
   10DOPE   C26 1206   2.189   5.900   6.284 -0.5353 -0.3634  0.3494
   10DOPE   H6R 1207   2.088   5.905   6.239 -1.9390  0.2271  3.3162
   10DOPE   H6S 1208   2.240   5.813   6.237 -2.1841 -1.0671 -0.2090
   10DOPE   C27 1209   2.269   6.026   6.257 -0.3747 -0.4307  0.7579
   10DOPE   H7R 1210   2.370   6.021   6.303 -0.3548 -2.0150  0.5949
   10DOPE   H7S 1211   2.216   6.117   6.292 -1.6396 -1.0681  0.5522
   10DOPE   C28 1212   2.285   6.058   6.104 -0.1638  0.3001 -0.0051
   10DOPE   H8R 1213   2.324   6.162   6.102  0.9817 -0.0287  2.4210
   10DOPE   H8S 1214   2.182   6.069   6.062  0.8952  2.6493 -2.3503
   10DOPE   C29 1215   2.367   5.968   6.019 -0.1869 -0.5363 -0.0317
   10DOPE   H9R 1216   2.475   5.991   6.015 -0.0938 -1.0418 -0.7115
   10DOPE  C210 1217   2.323   5.854   5.951 -0.6410 -0.2713  0.1401
   10DOPE  H10R 1218   2.392   5.783   5.904  1.6908  1.0011  1.4464
   10DOPE  C211 1219   2.176   5.822   5.948 -1.0950 -0.3570  0.0499
   10DOPE  H11R 1220   2.128   5.854   5.853 -0.5356 -0.5114 -0.2896
   10DOPE  H11S 1221   2.127   5.872   6.034  2.0288  1.3471  1.0237
   10DOPE  C212 1222   2.149   5.668   5.952 -0.1128  0.0837  0.0426
   10DOPE  H12R 1223   2.203   5.619   5.869 -0.5934 -0.8880  0.2879
   10DOPE  H12S 1224   2.040   5.654   5.935 -0.3605  1.7297  0.1037
   10DOPE  C213 1225   2.177   5.601   6.087  0.2908  0.1115 -0.1864
   10DOPE  H13R 1226   2.103   5.624   6.167  0.6544  1.4364 -0.2193
   10DOPE  H13S 1227   2.275   5.636   6.125 -0.4668  2.5799 -0.3129
   10DOPE  C214 1228   2.183   5.446   6.084  0.1871 -0.2618 -0.2906
   10DOPE  H14R 1229   2.078   5.413   6.069 -0.5247  0.6866  2.0754
   10DOPE  H14S 1230   2.212   5.409   6.185 -1.5582 -1.3167 -0.1404
   10DOPE  C215 1231   2.286   5.384   5.980  0.3121  0.2386  0.9195
   10DOPE  H15R 1232   2.257   5.413   5.877 -0.3783  1.6417  1.4788
   10DOPE  H15S 1233   2.272   5.274   5.983  0.8768  0.1418  0.3018
   10DOPE  C216 1234   2.436   5.406   6.013 -0.3567  1.3177 -0.5153
   10DOPE  H16R 1235   2.451   5.422   6.122  1.2603  1.3104 -0.7054
   10DOPE  H16S 1236   2.452   5.505   5.965  0.3748  1.7796  0.6261
   10DOPE  C217 1237   2.534   5.291   5.968 -0.0933  0.2079  0.9237
   10DOPE  H17R 1238   2.515   5.193   6.017 -0.3952 -0.2489 -0.0637
   10DOPE  H17S 1239   2.636   5.324   5.997  0.0518 -1.2344  2.1237
   10DOPE  C218 1240   2.541   5.265   5.816  0.2027 -0.3158 -0.3542
   10DOPE  H18R 1241   2.456   5.211   5.770 -0.3469 -0.0824  0.3555
   10DOPE  H18S 1242   2.639   5.221   5.787 -0.2458 -0.4917 -1.6519
   10DOPE  H18T 1243   2.527   5.365   5.770 -1.5833 -1.3916 -2.3099
   10DOPE   C33 1244   1.379   6.214   6.166  0.3777  0.2169  0.6571
   10DOPE   H3X 1245   1.380   6.292   6.245 -1.4145  0.4666  0.4897
   10DOPE   H3Y 1246   1.273   6.185   6.147  0.1715  0.5913  1.2119
   10DOPE   C34 1247   1.435   6.272   6.030  0.3859  0.4126  0.3099
   10DOPE   H4X 1248   1.539   6.310   6.039  0.3604  0.2720  1.4452
   10DOPE   H4Y 1249   1.436   6.190   5.954  0.4252 -0.4801  1.2423
   10DOPE   C35 1250   1.354   6.393   5.985 -0.0662 -0.5122 -0.3134
   10DOPE   H5X 1251   1.354   6.473   6.062 -0.5797  0.4703 -1.3071
   10DOPE   H5Y 1252   1.245   6.373   5.976 -0.3223 -0.2852  1.7763
   10DOPE   C36 1253   1.406   6.460   5.860 -0.5993 -0.3691  0.5113
   10DOPE   H6X 1254   1.515   6.441   5.850 -0.7961 -1.0879 -0.3207
   10DOPE   H6Y 1255   1.391   6.569   5.848  2.4285  0.5234  3.4278
   10DOPE   C37 1256   1.349   6.389   5.730 -0.6105  0.0534  0.0195
   10DOPE   H7X 1257   1.376   6.282   5.720 -0.3593  0.0185  0.9635
   10DOPE   H7Y 1258   1.242   6.391   5.759 -0.8136 -0.3783 -0.6898
   10DOPE   C38 1259   1.355   6.474   5.599 -1.6100 -0.1547 -1.1718
   10DOPE   H8X 1260   1.460   6.469   5.564 -1.0716  0.7796  0.2274
   10DOPE   H8Y 1261   1.343   6.581   5.626  1.7736 -0.3648  1.8091
   10DOPE   C39 1262   1.254   6.430   5.494  0.1872 -0.2017  0.7255
   10DOPE   H9X 1263   1.159   6.414   5.548  0.1407  1.0262  1.0411
   10DOPE  C310 1264   1.271   6.408   5.360 -0.8268 -0.5309 -0.2898
   10DOPE  H10X 1265   1.199   6.357   5.295  0.3469  0.6469 -2.6543
   10DOPE  C311 1266   1.405   6.438   5.290 -0.1586  0.5303  0.0856
   10DOPE  H11X 1267   1.387   6.472   5.186  0.9895  0.4331 -0.1565
   10DOPE  H11Y 1268   1.457   6.516   5.349  2.5901 -1.1174  0.0505
   10DOPE  C312 1269   1.494   6.309   5.284 -0.0133 -0.3420 -0.0599
   10DOPE  H12X 1270   1.518   6.270   5.385 -1.5045  0.1739  0.5228
   10DOPE  H12Y 1271   1.595   6.336   5.248  0.6269  0.2230  2.0451
   10DOPE  C313 1272   1.435   6.197   5.187  0.4020  0.3685 -0.2930
   10DOPE  H13X 1273   1.483   6.100   5.213  0.7148  0.8612  1.0028
   10DOPE  H13Y 1274   1.325   6.197   5.203  0.3074 -0.8991 -0.7976
   10DOPE  C314 1275   1.441   6.225   5.029 -0.7476 -1.0163 -0.4597
   10DOPE  H14X 1276   1.414   6.332   5.018  2.0460 -0.0809  0.8154
   10DOPE  H14Y 1277   1.367   6.159   4.978 -2.1151 -0.2833  0.4979
   10DOPE  C315 1278   1.588   6.212   4.977  0.3630  0.6676  0.2836
   10DOPE  H15X 1279   1.621   6.109   5.001 -0.6298 -0.2647 -2.0761
   10DOPE  H15Y 1280   1.657   6.270   5.042  1.7871  0.7852 -1.2550
   10DOPE  C316 1281   1.602   6.239   4.830 -0.6939 -0.3255 -0.3988
   10DOPE  H16X 1282   1.552   6.164   4.766 -1.8283  0.6594 -0.6956
   10DOPE  H16Y 1283   1.709   6.215   4.811 -0.7447  0.3230 -1.5770
   10DOPE  C317 1284   1.610   6.390   4.793  0.0932 -0.1664 -0.1214
   10DOPE  H17X 1285   1.646   6.451   4.879 -0.1710  1.8929 -1.4185
   10DOPE  H17Y 1286   1.679   6.395   4.706  0.7065 -2.7867  0.1227
   10DOPE  C318 1287   1.478   6.438   4.747 -0.5380  0.0932  0.5163
   10DOPE  H18X 1288   1.396   6.434   4.822  0.2946 -3.1137  1.4116
   10DOPE  H18Y 1289   1.497   6.545   4.723  1.0864 -0.3316 -0.2161
   10DOPE  H18Z 1290   1.446   6.379   4.658 -0.4894 -1.7480  1.6686
   11DOPE     N 1291   1.617   3.170   6.840  0.3403 -0.4376  0.0010
   11DOPE   HN1 1292   1.571   3.080   6.866  2.6358 -2.1979 -1.5110
   11DOPE   HN2 1293   1.646   3.173   6.740 -1.5196  1.8405 -0.5457
   11DOPE   HN3 1294   1.705   3.190   6.892  1.1555 -0.1277 -1.4113
   11DOPE   C12 1295   1.521   3.284   6.867  0.1855  0.8153  0.4011
   11DOPE  H12A 1296   1.573   3.381   6.863 -0.1490  0.9684 -1.7888
   11DOPE  H12B 1297   1.475   3.271   6.967 -0.6885 -0.4846 -0.1249
   11DOPE   C11 1298   1.398   3.286   6.777  0.1347  0.2653  0.1805
   11DOPE  H11A 1299   1.429   3.318   6.675  0.1972 -0.5582 -0.0668
   11DOPE  H11B 1300   1.333   3.365   6.821 -0.7820  0.0389 -0.7390
   11DOPE     P 1301   1.191   3.172   6.684 -0.3030 -0.6195  0.2514
   11DOPE   O13 1302   1.108   3.291   6.716 -0.0912 -0.2092  0.0842
   11DOPE   O14 1303   1.122   3.041   6.713 -0.8315 -0.4397 -0.5417
   11DOPE   O11 1304   1.245   3.189   6.532 -0.7671  0.3658 -0.2683
   11DOPE   O12 1305   1.323   3.169   6.775  0.2083 -0.0485 -0.5500
   11DOPE    C1 1306   1.353   3.109   6.481 -0.2344  0.3135  0.3972
   11DOPE    HA 1307   1.407   3.059   6.564  1.8631  1.1306 -0.3974
   11DOPE    HB 1308   1.420   3.183   6.432 -2.4806  1.3063 -1.3904
   11DOPE    C2 1309   1.311   3.002   6.371  0.9298 -0.7322  0.4157
   11DOPE    HS 1310   1.403   2.954   6.333  1.6317  0.5072  0.4864
   11DOPE   O21 1311   1.231   3.060   6.264 -0.0642 -0.5765 -0.7692
   11DOPE   C21 1312   1.296   3.133   6.177 -0.5847  0.0501 -0.4561
   11DOPE   O22 1313   1.414   3.155   6.176 -0.1648  0.2497  0.0108
   11DOPE   C22 1314   1.195   3.187   6.075  0.3339 -0.0031 -0.3544
   11DOPE   H2R 1315   1.248   3.271   6.024 -0.4475  2.7420  2.9374
   11DOPE   H2S 1316   1.112   3.236   6.130 -0.4209  1.0801 -2.3627
   11DOPE    C3 1317   1.224   2.894   6.435 -0.1374  0.2165  0.3382
   11DOPE    HX 1318   1.120   2.933   6.438  0.9809  3.5256  1.2531
   11DOPE    HY 1319   1.243   2.880   6.544 -1.5422  0.0234  0.5777
   11DOPE   O31 1320   1.244   2.773   6.371  0.4737  0.3086 -0.2825
   11DOPE   C31 1321   1.167   2.731   6.268  0.1417 -0.2313 -0.0340
   11DOPE   O32 1322   1.069   2.780   6.221 -0.5378 -0.2865  0.4231
   11DOPE   C32 1323   1.225   2.598   6.224 -0.3115 -0.1287  0.0511
   11DOPE   H2X 1324   1.326   2.623   6.186 -0.9052  0.2406 -1.3482
   11DOPE   H2Y 1325   1.226   2.542   6.321 -2.9653 -0.0846  0.1876
   11DOPE   C23 1326   1.139   3.079   5.985 -0.1788 -0.0618  0.4284
   11DOPE   H3R 1327   1.090   2.995   6.038  0.1621 -1.3359 -1.2061
   11DOPE   H3S 1328   1.210   3.037   5.910 -0.0628  0.0341  0.4834
   11DOPE   C24 1329   1.023   3.136   5.908  0.2664  0.3387 -0.3484
   11DOPE   H4R 1330   1.066   3.218   5.846  2.9255 -0.9338 -0.3333
   11DOPE   H4S 1331   0.933   3.169   5.964  0.0156 -2.2139  0.8900
   11DOPE   C25 1332   0.983   3.031   5.805 -0.1206 -0.4817 -0.4954
   11DOPE   H5R 1333   0.992   2.929   5.848 -0.7939 -0.6418 -0.7143
   11DOPE   H5S 1334   1.055   3.025   5.721  1.2067  0.8514  0.4904
   11DOPE   C26 1335   0.842   3.043   5.750  0.5978 -0.2459  0.0226
   11DOPE   H6R 1336   0.832   3.149   5.719 -0.6787 -0.4281 -0.2819
   11DOPE   H6S 1337   0.765   3.024   5.828 -0.2594 -3.2261 -1.3985
   11DOPE   C27 1338   0.816   2.958   5.625  0.0806 -0.3608 -0.5741
   11DOPE   H7R 1339   0.707   2.938   5.618 -0.0927  0.8900 -1.8347
   11DOPE   H7S 1340   0.878   2.867   5.639 -0.5710 -1.0120 -1.7718
   11DOPE   C28 1341   0.879   3.023   5.496  0.1436 -0.0391 -0.4133
   11DOPE   H8R 1342   0.983   3.049   5.524 -0.3903 -0.3046  2.0558
   11DOPE   H8S 1343   0.837   3.125   5.484  0.0550  0.0991  0.9482
   11DOPE   C29 1344   0.874   2.928   5.375 -0.8157 -0.3943 -0.2077
   11DOPE   H9R 1345   0.933   2.836   5.392  2.2622  1.5307  0.2181
   11DOPE  C210 1346   0.822   2.960   5.257 -0.5497  0.3703 -0.4341
   11DOPE  H10R 1347   0.817   2.883   5.179  1.6292 -0.4724  0.1816
   11DOPE  C211 1348   0.748   3.093   5.227 -0.2701  0.0329 -0.3399
   11DOPE  H11R 1349   0.700   3.138   5.316 -0.6482  0.8583 -0.9371
   11DOPE  H11S 1350   0.657   3.062   5.171  0.8381 -1.4158 -1.4211
   11DOPE  C212 1351   0.829   3.210   5.168  0.9321  0.2767 -0.0098
   11DOPE  H12R 1352   0.759   3.292   5.143  2.0778  0.9528 -1.1040
   11DOPE  H12S 1353   0.879   3.168   5.077  0.1319  0.6329 -0.6227
   11DOPE  C213 1354   0.949   3.257   5.255  0.0480 -0.2160 -0.6419
   11DOPE  H13R 1355   0.990   3.166   5.305 -2.3500 -1.3301 -0.5844
   11DOPE  H13S 1356   0.898   3.324   5.326 -1.0024 -0.8315 -0.7996
   11DOPE  C214 1357   1.063   3.343   5.189 -0.3846  0.2047  0.8741
   11DOPE  H14R 1358   1.112   3.276   5.116  2.2308  2.2005  0.6608
   11DOPE  H14S 1359   1.140   3.370   5.265 -1.5591  0.3683  2.0488
   11DOPE  C215 1360   1.011   3.466   5.112 -0.5890  0.0042 -0.4548
   11DOPE  H15R 1361   0.933   3.426   5.044 -1.5410 -0.0190  0.6236
   11DOPE  H15S 1362   1.086   3.524   5.054 -3.0375  1.1294 -2.7155
   11DOPE  C216 1363   0.929   3.566   5.205  0.3631 -0.5171 -0.0774
   11DOPE  H16R 1364   0.982   3.625   5.282 -3.0850  0.0677  2.0682
   11DOPE  H16S 1365   0.858   3.506   5.265 -0.0280  0.5572  0.5691
   11DOPE  C217 1366   0.843   3.659   5.125  0.5540  0.3035 -0.3572
   11DOPE  H17R 1367   0.790   3.729   5.193  1.4040  0.7009 -0.0814
   11DOPE  H17S 1368   0.766   3.594   5.078  2.3106 -2.4802  0.3264
   11DOPE  C218 1369   0.920   3.742   5.017 -0.2711 -0.3802 -0.1370
   11DOPE  H18R 1370   0.850   3.778   4.938  0.1168 -1.5705 -1.0441
   11DOPE  H18S 1371   1.006   3.691   4.969  0.7710  0.4514  0.7920
   11DOPE  H18T 1372   0.953   3.839   5.060 -1.3264  0.3611 -0.9242
   11DOPE   C33 1373   1.142   2.514   6.120 -0.4886  0.1061 -0.4339
   11DOPE   H3X 1374   1.039   2.503   6.159  0.9745 -1.4194  3.4345
   11DOPE   H3Y 1375   1.186   2.416   6.094 -1.2946 -0.8989  1.7732
   11DOPE   C34 1376   1.138   2.588   5.988  0.4353 -0.0050  0.0492
   11DOPE   H4X 1377   1.094   2.690   6.000 -1.5986 -0.7274 -0.7453
   11DOPE   H4Y 1378   1.238   2.605   5.944  1.4448 -0.8736  1.9047
   11DOPE   C35 1379   1.059   2.511   5.882  0.1535  0.2156 -0.0718
   11DOPE   H5X 1380   0.959   2.484   5.922  1.5208 -3.7190  1.1610
   11DOPE   H5Y 1381   1.111   2.414   5.864 -3.3872 -1.6869 -0.8622
   11DOPE   C36 1382   1.044   2.587   5.746  0.3713 -0.1706  1.0465
   11DOPE   H6X 1383   1.143   2.600   5.696 -1.4586  0.1866 -2.8423
   11DOPE   H6Y 1384   0.988   2.683   5.751 -1.0046 -0.9760  1.6964
   11DOPE   C37 1385   0.963   2.501   5.654  0.3636  0.3425  1.0840
   11DOPE   H7X 1386   1.031   2.419   5.621  0.4746  0.9062 -0.1183
   11DOPE   H7Y 1387   0.872   2.454   5.697  1.0060 -2.0499 -0.0006
   11DOPE   C38 1388   0.923   2.576   5.523  0.4260  0.5601 -0.7132
   11DOPE   H8X 1389   1.021   2.608   5.481  0.9192  1.3442  0.9329
   11DOPE   H8Y 1390   0.860   2.663   5.551 -0.4284  0.1446 -1.2917
   11DOPE   C39 1391   0.836   2.504   5.421  0.1490 -0.5948 -0.2580
   11DOPE   H9X 1392   0.733   2.480   5.452  0.2129 -0.8106 -0.2127
   11DOPE  C310 1393   0.886   2.436   5.313 -0.6202  0.1210 -0.3368
   11DOPE  H10X 1394   0.825   2.372   5.248  0.1727  1.5039 -2.5323
   11DOPE  C311 1395   1.024   2.427   5.255 -0.1631  0.1828 -0.3776
   11DOPE  H11X 1396   1.106   2.451   5.326  1.2946 -0.6223 -1.7330
   11DOPE  H11Y 1397   1.042   2.320   5.229  1.2714  0.2355  0.3484
   11DOPE  C312 1398   1.042   2.514   5.131 -0.3356 -1.2801 -0.0924
   11DOPE  H12X 1399   0.950   2.513   5.069  0.5818  0.2883 -1.5581
   11DOPE  H12Y 1400   1.117   2.469   5.062  0.6744 -0.1748  0.2430
   11DOPE  C313 1401   1.083   2.664   5.171  0.8207  0.6109 -0.3525
   11DOPE  H13X 1402   1.012   2.697   5.249  0.0930 -1.1424 -0.2252
   11DOPE  H13Y 1403   1.182   2.663   5.222  2.2815 -0.8407 -2.9426
   11DOPE  C314 1404   1.084   2.764   5.058 -0.4411 -0.4140  0.1321
   11DOPE  H14X 1405   1.056   2.863   5.102  0.3962  0.2494 -0.7748
   11DOPE  H14Y 1406   1.005   2.741   4.983 -0.6881  0.8535 -0.0239
   11DOPE  C315 1407   1.213   2.782   4.979 -0.3757 -0.4174 -0.0796
   11DOPE  H15X 1408   1.228   2.689   4.920 -2.2584 -0.6205 -0.3074
   11DOPE  H15Y 1409   1.301   2.791   5.046 -1.0862 -0.6024  0.9144
   11DOPE  C316 1410   1.209   2.909   4.890 -0.0305  0.0567 -0.2110
   11DOPE  H16X 1411   1.245   2.993   4.953  0.3988  1.7769 -2.6308
   11DOPE  H16Y 1412   1.105   2.917   4.855  1.1441  0.8145 -3.9483
   11DOPE  C317 1413   1.292   2.904   4.768 -0.6710  0.1945  0.6923
   11DOPE  H17X 1414   1.257   2.828   4.695  1.6488  0.4305 -0.7480
   11DOPE  H17Y 1415   1.276   3.000   4.714 -0.2770  0.5471  1.1975
   11DOPE  C318 1416   1.440   2.874   4.805  0.8191 -0.2499  0.9195
   11DOPE  H18X 1417   1.474   2.952   4.877 -2.4173  1.3888  0.8456
   11DOPE  H18Y 1418   1.464   2.772   4.841  1.8163 -1.3908 -2.5990
   11DOPE  H18Z 1419   1.503   2.872   4.713 -0.0511  0.7104  0.2786
   12DOPE     N 1420   4.318   6.565   6.779  0.4469  0.4038 -0.1881
   12DOPE   HN1 1421   4.391   6.621   6.828 -0.7406  1.2580  0.6634
   12DOPE   HN2 1422   4.256   6.509   6.840  2.1433 -0.8573  0.4292
   12DOPE   HN3 1423   4.361   6.493   6.717 -2.1450 -2.2783  0.8771
   12DOPE   C12 1424   4.226   6.648   6.692 -0.3681  0.0436  0.6917
   12DOPE  H12A 1425   4.265   6.653   6.589 -3.2172  3.0552 -0.4340
   12DOPE  H12B 1426   4.221   6.751   6.734 -0.4567  0.7843 -1.0752
   12DOPE   C11 1427   4.083   6.590   6.686 -0.6941 -0.0279  0.3276
   12DOPE  H11A 1428   4.092   6.480   6.673 -1.4919 -0.0216 -0.3944
   12DOPE  H11B 1429   4.031   6.630   6.596 -1.3293  0.0999  0.7454
   12DOPE     P 1430   3.882   6.679   6.811 -0.0441 -0.3676 -0.2461
   12DOPE   O13 1431   3.837   6.718   6.947 -0.2670  0.1113  0.1930
   12DOPE   O14 1432   3.800   6.576   6.742 -0.6272  0.0474 -0.0459
   12DOPE   O11 1433   3.904   6.813   6.730  0.1694 -0.0952 -0.3763
   12DOPE   O12 1434   4.022   6.616   6.812  0.6109 -0.3686 -0.2981
   12DOPE    C1 1435   3.796   6.865   6.653  0.0187  0.0249 -0.5041
   12DOPE    HA 1436   3.776   6.971   6.679 -1.3559 -0.2344 -0.4531
   12DOPE    HB 1437   3.695   6.822   6.667 -0.2096  1.1326  1.7173
   12DOPE    C2 1438   3.851   6.864   6.503  0.1417 -0.1626  0.0871
   12DOPE    HS 1439   3.785   6.935   6.450  0.9049 -0.0479 -0.7250
   12DOPE   O21 1440   3.864   6.731   6.445  0.6751 -0.3339 -0.5889
   12DOPE   C21 1441   3.742   6.672   6.417 -0.1760 -0.5423 -0.1256
   12DOPE   O22 1442   3.636   6.726   6.428  0.0697 -0.2212  0.4636
   12DOPE   C22 1443   3.761   6.535   6.360 -0.9811 -0.7255  0.1151
   12DOPE   H2R 1444   3.865   6.498   6.370  0.0610  0.9861 -2.9269
   12DOPE   H2S 1445   3.758   6.544   6.249  0.8662  0.1462  0.0949
   12DOPE    C3 1446   3.995   6.928   6.484  0.1294 -0.3011  0.0449
   12DOPE    HX 1447   4.070   6.867   6.539  0.5846  0.7804  0.6520
   12DOPE    HY 1448   4.009   7.028   6.530 -4.0332  0.4066  0.1407
   12DOPE   O31 1449   4.038   6.927   6.344  0.1595 -0.5476 -0.2144
   12DOPE   C31 1450   3.990   7.026   6.275 -0.6334 -0.2286  0.6997
   12DOPE   O32 1451   3.913   7.106   6.317 -0.2573 -0.1471 -0.1911
   12DOPE   C32 1452   4.061   7.035   6.137  0.3792  0.3198 -0.5220
   12DOPE   H2X 1453   4.087   6.928   6.121  0.4421 -0.1344  2.1070
   12DOPE   H2Y 1454   3.993   7.065   6.055  0.4334 -0.0903 -0.7178
   12DOPE   C23 1455   3.678   6.434   6.439  0.4489 -0.0779  0.1704
   12DOPE   H3R 1456   3.569   6.450   6.426 -0.6395 -4.2367  2.5285
   12DOPE   H3S 1457   3.697   6.449   6.548 -2.8717 -1.0503  0.9977
   12DOPE   C24 1458   3.701   6.283   6.415 -0.6380 -0.0741 -0.3760
   12DOPE   H4R 1459   3.636   6.229   6.487 -0.3019 -2.0908 -1.5213
   12DOPE   H4S 1460   3.807   6.264   6.441 -0.9665 -0.7502  0.5003
   12DOPE   C25 1461   3.678   6.239   6.265  0.2349 -0.2989 -0.3804
   12DOPE   H5R 1462   3.702   6.131   6.262  0.9965 -0.1420 -0.2201
   12DOPE   H5S 1463   3.743   6.296   6.195  2.5563 -0.6501  1.3201
   12DOPE   C26 1464   3.537   6.256   6.215  0.1262  0.4719 -0.4157
   12DOPE   H6R 1465   3.534   6.362   6.182 -1.2239  1.3221  2.1784
   12DOPE   H6S 1466   3.454   6.269   6.288 -1.0679  0.9506 -1.8209
   12DOPE   C27 1467   3.502   6.163   6.097  0.9236 -0.1845 -0.0173
   12DOPE   H7R 1468   3.402   6.192   6.057  0.7728 -1.7690 -0.8555
   12DOPE   H7S 1469   3.488   6.057   6.125 -0.0396 -0.1706 -0.3908
   12DOPE   C28 1470   3.601   6.173   5.982  0.1285  0.4882  0.2187
   12DOPE   H8R 1471   3.583   6.090   5.911 -0.5317  0.2952  0.6012
   12DOPE   H8S 1472   3.704   6.151   6.019  0.5590 -0.8289 -1.6667
   12DOPE   C29 1473   3.593   6.312   5.915 -0.4949  0.1926  0.0118
   12DOPE   H9R 1474   3.642   6.389   5.977  1.4753 -1.0269  0.0476
   12DOPE  C210 1475   3.545   6.344   5.795 -0.0054 -0.2321  0.0229
   12DOPE  H10R 1476   3.566   6.445   5.758  0.4525 -0.4927 -0.4380
   12DOPE  C211 1477   3.482   6.251   5.691 -0.0362  0.0749  0.5161
   12DOPE  H11R 1478   3.373   6.270   5.701 -0.3602 -1.4393  0.1294
   12DOPE  H11S 1479   3.490   6.140   5.696  0.2356  0.1187  1.1732
   12DOPE  C212 1480   3.511   6.304   5.549  0.0142 -0.1987 -0.3172
   12DOPE  H12R 1481   3.615   6.271   5.526  0.9798  0.4208  2.6912
   12DOPE  H12S 1482   3.513   6.415   5.546 -0.6870 -0.2071 -2.3312
   12DOPE  C213 1483   3.403   6.253   5.449 -1.0977 -0.2950 -0.2249
   12DOPE  H13R 1484   3.306   6.286   5.492 -0.3194  1.3227  0.3556
   12DOPE  H13S 1485   3.401   6.142   5.437 -0.3993 -0.6372  2.3134
   12DOPE  C214 1486   3.413   6.326   5.315  0.3865 -0.0386  0.3004
   12DOPE  H14R 1487   3.410   6.435   5.332 -0.0627 -0.2131  1.4153
   12DOPE  H14S 1488   3.336   6.275   5.253 -1.1155  1.6699  0.6827
   12DOPE  C215 1489   3.543   6.304   5.239  0.3743 -0.0672 -0.1525
   12DOPE  H15R 1490   3.631   6.341   5.295  0.7284  1.3102 -1.5623
   12DOPE  H15S 1491   3.545   6.358   5.142  0.7752  0.2157  0.0127
   12DOPE  C216 1492   3.567   6.152   5.207  0.0782 -0.2506 -0.0079
   12DOPE  H16R 1493   3.472   6.112   5.166  0.3663  1.2241 -2.3256
   12DOPE  H16S 1494   3.603   6.107   5.302  1.1353  2.3468  0.8998
   12DOPE  C217 1495   3.670   6.129   5.098 -0.1751  0.5126 -0.0264
   12DOPE  H17R 1496   3.626   6.175   5.006 -3.4904 -2.2859 -0.0463
   12DOPE  H17S 1497   3.688   6.021   5.083 -1.6510 -0.1907  2.6061
   12DOPE  C218 1498   3.806   6.186   5.132  0.0807 -0.0822  0.2042
   12DOPE  H18R 1499   3.815   6.296   5.117 -0.0339 -0.2097 -0.8172
   12DOPE  H18S 1500   3.879   6.143   5.061 -0.5168 -1.9489  0.6805
   12DOPE  H18T 1501   3.836   6.154   5.234  0.0909  0.6124  0.4306
   12DOPE   C33 1502   4.184   7.124   6.146  0.4343 -0.7398 -0.0643
   12DOPE   H3X 1503   4.254   7.083   6.221 -2.4034 -1.2735  2.4851
   12DOPE   H3Y 1504   4.155   7.231   6.160  0.2124 -0.5887 -1.5511
   12DOPE   C34 1505   4.253   7.119   6.007 -0.2961 -0.3883 -0.8465
   12DOPE   H4X 1506   4.275   7.013   5.980  2.2557 -0.7486  2.0748
   12DOPE   H4Y 1507   4.188   7.174   5.936 -0.8950  0.3149  0.2285
   12DOPE   C35 1508   4.387   7.193   6.020  0.3308 -0.0798 -0.2730
   12DOPE   H5X 1509   4.438   7.187   5.922 -0.1680 -0.2091 -0.5286
   12DOPE   H5Y 1510   4.448   7.137   6.095 -0.8392 -0.4328  0.4431
   12DOPE   C36 1511   4.389   7.341   6.066 -0.6831  0.1703  0.0816
   12DOPE   H6X 1512   4.322   7.344   6.155 -0.5915 -1.8741  0.2811
   12DOPE   H6Y 1513   4.338   7.402   5.989  0.7603  0.1965 -0.9024
   12DOPE   C37 1514   4.517   7.410   6.082  0.2697 -0.1825 -0.3604
   12DOPE   H7X 1515   4.577   7.380   5.993 -0.8882 -0.8333 -0.9470
   12DOPE   H7Y 1516   4.483   7.515   6.070  0.6942 -0.1030 -0.9299
   12DOPE   C38 1517   4.577   7.371   6.214 -0.0316  0.0978  0.1929
   12DOPE   H8X 1518   4.609   7.268   6.186 -2.5298 -0.5580 -0.4827
   12DOPE   H8Y 1519   4.506   7.359   6.298  0.5185 -0.1760  0.6266
   12DOPE   C39 1520   4.689   7.458   6.253  0.1138  0.2121  0.3043
   12DOPE   H9X 1521   4.698   7.556   6.202  1.7069  0.2650  0.6345
   12DOPE  C310 1522   4.793   7.413   6.319  0.7216  0.9057 -0.5700
   12DOPE  H10X 1523   4.882   7.477   6.334  1.1183  0.0457  1.0468
   12DOPE  C311 1524   4.806   7.272   6.367 -0.1951  0.3200 -0.1148
   12DOPE  H11X 1525   4.834   7.275   6.475 -1.7437  0.0089  0.3200
   12DOPE  H11Y 1526   4.705   7.227   6.374 -0.0188  0.1358  2.6910
   12DOPE  C312 1527   4.891   7.183   6.284  0.1192 -0.7934 -0.7662
   12DOPE  H12X 1528   4.866   7.199   6.177 -0.6627  1.2631 -0.3327
   12DOPE  H12Y 1529   4.878   7.076   6.309  0.0464 -1.3442 -2.9531
   12DOPE  C313 1530   5.040   7.209   6.299 -0.8146 -0.5262 -0.9238
   12DOPE  H13X 1531   5.096   7.145   6.229  0.4972 -1.8640  1.2244
   12DOPE  H13Y 1532   5.063   7.315   6.274  2.2557  0.1473  3.4828
   12DOPE  C314 1533   5.092   7.200   6.444  0.1106  0.1406 -0.2919
   12DOPE  H14X 1534   5.075   7.096   6.480 -0.0608  0.7384  1.5003
   12DOPE  H14Y 1535   5.035   7.271   6.510 -1.0586 -0.3290 -0.7697
   12DOPE  C315 1536   5.237   7.248   6.471 -0.6850 -0.8707  0.0323
   12DOPE  H15X 1537   5.243   7.344   6.525  1.5663 -2.3100  2.5562
   12DOPE  H15Y 1538   5.284   7.270   6.372 -0.0897  0.1517  0.5292
   12DOPE  C316 1539   5.315   7.142   6.549  0.3837  0.1931 -1.3898
   12DOPE  H16X 1540   5.291   7.042   6.507 -1.5938 -0.0594  0.1968
   12DOPE  H16Y 1541   5.288   7.154   6.656  1.7252  0.5823 -1.0701
   12DOPE  C317 1542   5.469   7.167   6.546  0.3492  0.0141  0.4147
   12DOPE  H17X 1543   5.508   7.184   6.443 -0.4659 -3.2113 -0.5419
   12DOPE  H17Y 1544   5.488   7.248   6.619  2.0768 -1.5130  1.7552
   12DOPE  C318 1545   5.552   7.055   6.611 -0.2976 -0.5020 -0.0967
   12DOPE  H18X 1546   5.646   7.092   6.659  0.6732 -1.5110 -1.1764
   12DOPE  H18Y 1547   5.487   7.004   6.686 -0.0679 -0.6440  0.0063
   12DOPE  H18Z 1548   5.578   6.974   6.541 -1.1281  0.6062 -1.7440
   13DOPE     N 1549   2.432   0.906   7.711  0.2611  0.0174 -0.6137
   13DOPE   HN1 1550   2.395   0.880   7.805 -2.3387 -1.1025 -1.8465
   13DOPE   HN2 1551   2.533   0.931   7.718  0.1569  0.0686  1.2503
   13DOPE   HN3 1552   2.374   0.984   7.672 -0.0972  0.0466 -0.0311
   13DOPE   C12 1553   2.420   0.791   7.613  0.5565 -0.1910  0.1180
   13DOPE  H12A 1554   2.420   0.697   7.672 -0.2849 -0.3305 -0.0904
   13DOPE  H12B 1555   2.511   0.786   7.549  0.1344 -1.7513 -0.3995
   13DOPE   C11 1556   2.283   0.793   7.543  0.3720  0.7450 -0.3090
   13DOPE  H11A 1557   2.207   0.798   7.624  1.4726  1.8679  0.6944
   13DOPE  H11B 1558   2.251   0.703   7.486 -2.7034  1.3195  0.2986
   13DOPE     P 1559   2.326   0.904   7.319 -0.1256 -0.9080  0.1741
   13DOPE   O13 1560   2.451   0.819   7.317  0.0319  0.4725  0.2704
   13DOPE   O14 1561   2.340   1.038   7.259 -0.3824 -0.3380 -0.3670
   13DOPE   O11 1562   2.210   0.825   7.248  0.2548 -0.2284 -0.0548
   13DOPE   O12 1563   2.275   0.909   7.464 -0.9582  0.1558  0.4322
   13DOPE    C1 1564   2.245   0.700   7.201  0.4257  0.9437  0.3253
   13DOPE    HA 1565   2.158   0.632   7.212  1.3776 -0.9371 -2.5921
   13DOPE    HB 1566   2.325   0.641   7.252 -0.7477 -1.8362 -0.8246
   13DOPE    C2 1567   2.264   0.694   7.044 -0.3030 -0.7945 -1.0579
   13DOPE    HS 1568   2.366   0.733   7.025  0.1356 -1.7899 -0.8207
   13DOPE   O21 1569   2.158   0.759   6.981  0.5443 -0.7224  0.0119
   13DOPE   C21 1570   2.190   0.880   6.925 -0.2220  0.1901  0.1731
   13DOPE   O22 1571   2.301   0.939   6.934  0.0952  0.3222 -0.1587
   13DOPE   C22 1572   2.068   0.919   6.844 -0.2463  0.4286  0.0548
   13DOPE   H2R 1573   2.022   1.002   6.901 -2.0479 -0.3712 -0.1548
   13DOPE   H2S 1574   1.995   0.835   6.835 -1.0460  1.3170 -2.8367
   13DOPE    C3 1575   2.271   0.549   7.003 -0.1634  0.4706  0.6293
   13DOPE    HX 1576   2.183   0.482   7.020  1.3231 -2.1727 -1.2342
   13DOPE    HY 1577   2.348   0.499   7.065  1.3154 -0.7066 -1.9938
   13DOPE   O31 1578   2.312   0.533   6.868 -0.5601  0.2906 -0.1721
   13DOPE   C31 1579   2.214   0.529   6.778  0.3514  0.1549 -0.0426
   13DOPE   O32 1580   2.096   0.522   6.795  0.1019 -0.8790 -0.0821
   13DOPE   C32 1581   2.270   0.523   6.628 -0.0596  0.8097 -0.5061
   13DOPE   H2X 1582   2.329   0.615   6.608  1.5169 -0.6279 -2.8381
   13DOPE   H2Y 1583   2.336   0.433   6.626 -1.4908 -0.2821 -0.3036
   13DOPE   C23 1584   2.117   0.976   6.707  0.5922 -0.5235 -0.4665
   13DOPE   H3R 1585   2.187   1.062   6.723 -0.1751 -0.2927  2.1229
   13DOPE   H3S 1586   2.032   1.032   6.661  2.0375  1.3808 -0.9727
   13DOPE   C24 1587   2.174   0.879   6.602 -0.9470  0.1216 -0.0403
   13DOPE   H4R 1588   2.098   0.813   6.556  0.2842 -0.8931 -0.7024
   13DOPE   H4S 1589   2.248   0.807   6.643 -0.0974  0.8232 -0.3074
   13DOPE   C25 1590   2.240   0.959   6.490  0.6469  0.1967 -0.1680
   13DOPE   H5R 1591   2.333   1.004   6.531  1.6618 -1.6803 -0.2786
   13DOPE   H5S 1592   2.168   1.037   6.456 -2.4849 -2.7539 -0.8448
   13DOPE   C26 1593   2.266   0.870   6.374 -0.3630 -0.0863 -0.0004
   13DOPE   H6R 1594   2.167   0.847   6.329  0.1043 -1.7295 -0.2524
   13DOPE   H6S 1595   2.304   0.773   6.413 -1.8267 -0.3426  0.8549
   13DOPE   C27 1596   2.358   0.925   6.259  0.0540 -0.1369  0.1539
   13DOPE   H7R 1597   2.461   0.927   6.299 -0.2090 -1.5231  0.9746
   13DOPE   H7S 1598   2.332   1.032   6.243 -0.8941 -0.5080 -0.9154
   13DOPE   C28 1599   2.342   0.847   6.126 -0.2599  0.0454 -0.3477
   13DOPE   H8R 1600   2.359   0.739   6.146 -0.8067 -0.0436 -0.3349
   13DOPE   H8S 1601   2.423   0.875   6.056  0.6324 -1.5939 -0.0037
   13DOPE   C29 1602   2.208   0.847   6.060  0.0149  0.2453  0.3860
   13DOPE   H9R 1603   2.141   0.761   6.076  0.6017  0.0397  1.9264
   13DOPE  C210 1604   2.169   0.941   5.969  0.7690  0.7445 -0.9559
   13DOPE  H10R 1605   2.070   0.923   5.925  0.0880 -0.3491  0.8907
   13DOPE  C211 1606   2.233   1.068   5.934 -0.7757 -0.0286  0.8185
   13DOPE  H11R 1607   2.332   1.083   5.984  0.8585 -1.9143 -1.6109
   13DOPE  H11S 1608   2.167   1.156   5.947 -0.9821  0.0903 -0.8709
   13DOPE  C212 1609   2.285   1.059   5.784 -0.2821 -0.2106 -0.5920
   13DOPE  H12R 1610   2.362   0.979   5.783  1.1182  1.0843 -0.8181
   13DOPE  H12S 1611   2.347   1.151   5.772  3.0078 -1.9006  1.6757
   13DOPE  C213 1612   2.181   1.032   5.672 -0.5325 -0.3587  0.0485
   13DOPE  H13R 1613   2.086   1.079   5.707  0.0280  0.9275 -0.0780
   13DOPE  H13S 1614   2.166   0.924   5.651  2.5374 -0.5363 -1.9419
   13DOPE  C214 1615   2.231   1.102   5.543 -0.6374  0.4856  0.0730
   13DOPE  H14R 1616   2.320   1.050   5.499 -2.1006  0.5592 -3.2738
   13DOPE  H14S 1617   2.272   1.203   5.561 -0.5111  0.3325  0.6764
   13DOPE  C215 1618   2.130   1.110   5.432  0.5891 -0.3108 -0.6383
   13DOPE  H15R 1619   2.040   1.160   5.472  0.3661 -0.7666 -0.5688
   13DOPE  H15S 1620   2.097   1.009   5.402 -0.3910 -0.4054  0.6909
   13DOPE  C216 1621   2.170   1.196   5.309 -0.2697 -0.0042  0.3453
   13DOPE  H16R 1622   2.256   1.154   5.253 -0.9747 -0.2294 -0.5859
   13DOPE  H16S 1623   2.213   1.295   5.338  1.4867 -0.0500 -1.8331
   13DOPE  C217 1624   2.053   1.235   5.215  0.4896 -0.1413 -1.0888
   13DOPE  H17R 1625   1.971   1.292   5.263  0.2754 -0.9415 -0.4869
   13DOPE  H17S 1626   2.007   1.140   5.181 -1.8853  0.2087  0.9150
   13DOPE  C218 1627   2.096   1.311   5.093 -0.5742 -0.1831  0.2344
   13DOPE  H18R 1628   2.015   1.340   5.023 -0.4634 -0.9416 -0.2159
   13DOPE  H18S 1629   2.157   1.236   5.038 -1.9952 -0.2652 -1.3045
   13DOPE  H18T 1630   2.157   1.397   5.127 -0.5516 -0.4227  0.7970
   13DOPE   C33 1631   2.166   0.512   6.522 -0.3086 -0.0779  0.5606
   13DOPE   H3X 1632   2.226   0.528   6.431  0.4278  0.3335  1.1125
   13DOPE   H3Y 1633   2.090   0.593   6.525 -0.5521 -0.3142  1.2565
   13DOPE   C34 1634   2.084   0.383   6.519  0.3299  0.3737 -0.5097
   13DOPE   H4X 1635   2.147   0.292   6.530 -1.7088 -0.9134  1.5208
   13DOPE   H4Y 1636   2.013   0.383   6.604  1.6977 -2.1653  0.7639
   13DOPE   C35 1637   2.007   0.353   6.395 -0.2231  0.6740  0.2427
   13DOPE   H5X 1638   1.920   0.422   6.385 -1.8040 -1.1940  0.4440
   13DOPE   H5Y 1639   1.960   0.253   6.412  2.8208 -1.0014 -0.4306
   13DOPE   C36 1640   2.065   0.364   6.256 -0.2981  0.5268 -0.4415
   13DOPE   H6X 1641   2.169   0.327   6.261 -1.1077 -1.7566  2.9317
   13DOPE   H6Y 1642   2.057   0.471   6.224 -0.9277  1.2876  2.0333
   13DOPE   C37 1643   2.006   0.267   6.157 -0.5525  0.4162  0.3106
   13DOPE   H7X 1644   2.015   0.160   6.186 -0.2813  0.0372 -1.1059
   13DOPE   H7Y 1645   1.898   0.287   6.138  0.0265  4.1015  0.3425
   13DOPE   C38 1646   2.076   0.281   6.014  0.3777  0.3796 -0.4526
   13DOPE   H8X 1647   2.065   0.193   5.948  0.8392 -0.9963  1.2304
   13DOPE   H8Y 1648   2.186   0.273   6.024  0.1718 -1.6837  0.8591
   13DOPE   C39 1649   2.037   0.407   5.942 -0.5051 -0.1596  0.3695
   13DOPE   H9X 1650   1.930   0.426   5.929 -0.1302  1.1611 -1.0946
   13DOPE  C310 1651   2.124   0.504   5.908  0.1579 -0.3569  0.6869
   13DOPE  H10X 1652   2.083   0.590   5.853  2.2389 -0.7905 -1.7785
   13DOPE  C311 1653   2.274   0.504   5.924  0.3680 -0.5928  0.0671
   13DOPE  H11X 1654   2.295   0.567   6.013 -0.8433  2.1110 -1.4317
   13DOPE  H11Y 1655   2.307   0.398   5.933  0.0908 -0.5638  1.7689
   13DOPE  C312 1656   2.356   0.578   5.811  0.1389 -0.0445 -1.2447
   13DOPE  H12X 1657   2.461   0.572   5.846 -1.0612 -0.6349  2.6586
   13DOPE  H12Y 1658   2.319   0.683   5.812  0.7025  0.2331  2.5656
   13DOPE  C313 1659   2.338   0.524   5.664  0.2113 -0.2028 -0.5519
   13DOPE  H13X 1660   2.352   0.415   5.679 -0.0824  0.0377  1.8533
   13DOPE  H13Y 1661   2.236   0.548   5.627  0.5283  0.6792 -0.8939
   13DOPE  C314 1662   2.447   0.563   5.559 -1.3797 -0.1073 -0.2172
   13DOPE  H14X 1663   2.466   0.482   5.485  1.6443 -0.2173  0.5364
   13DOPE  H14Y 1664   2.547   0.567   5.608 -0.5593 -0.6119 -1.7583
   13DOPE  C315 1665   2.418   0.700   5.491  0.5394  0.2309  0.4810
   13DOPE  H15X 1666   2.494   0.740   5.421 -1.6138  0.2261 -2.0318
   13DOPE  H15Y 1667   2.397   0.780   5.565  0.8183  0.1752  0.6226
   13DOPE  C316 1668   2.293   0.684   5.412  0.5206  0.2381  0.8735
   13DOPE  H16X 1669   2.199   0.664   5.468 -0.1611 -1.9468 -0.9304
   13DOPE  H16Y 1670   2.316   0.594   5.352 -1.5794  0.6685 -0.6984
   13DOPE  C317 1671   2.271   0.797   5.308  0.3481  0.2869  0.8218
   13DOPE  H17X 1672   2.293   0.897   5.351 -2.2168  1.2558  0.0160
   13DOPE  H17Y 1673   2.348   0.781   5.229 -2.2128 -2.6689 -1.3135
   13DOPE  C318 1674   2.137   0.796   5.234  0.8450 -0.2293  0.0349
   13DOPE  H18X 1675   2.053   0.796   5.305 -1.7564 -0.2584 -2.8203
   13DOPE  H18Y 1676   2.136   0.893   5.178 -0.5320 -0.5832 -0.5825
   13DOPE  H18Z 1677   2.119   0.707   5.171 -2.5181  1.4045 -1.5823
   14DOPE     N 1678   6.894   3.061   7.220 -0.3304  0.1667  0.0562
   14DOPE   HN1 1679   6.941   2.985   7.272 -0.6685  0.2550  0.4932
   14DOPE   HN2 1680   6.867   3.147   7.271  0.0840  1.6946 -2.1278
   14DOPE   HN3 1681   6.809   3.024   7.173  0.5743 -0.4343 -1.1884
   14DOPE   C12 1682   6.990   3.089   7.102 -0.4074 -0.0364 -0.6155
   14DOPE  H12A 1683   7.019   2.988   7.067 -1.3355 -0.5988  0.1938
   14DOPE  H12B 1684   7.072   3.151   7.145 -0.4963  0.5954 -1.3386
   14DOPE   C11 1685   6.912   3.182   7.010  0.4349  0.1332  0.0096
   14DOPE  H11A 1686   6.973   3.223   6.926  1.9547 -0.8013  0.6349
   14DOPE  H11B 1687   6.864   3.265   7.066 -0.3118 -0.3043  0.0261
   14DOPE     P 1688   6.744   3.111   6.812  0.0117  0.2900  0.3184
   14DOPE   O13 1689   6.841   3.187   6.729  0.3139 -0.2868  0.1336
   14DOPE   O14 1690   6.600   3.162   6.801  0.1072  0.3976 -0.2352
   14DOPE   O11 1691   6.760   2.952   6.764  0.0136 -0.3081 -0.1485
   14DOPE   O12 1692   6.798   3.109   6.966  0.1000 -0.4601  0.6935
   14DOPE    C1 1693   6.660   2.864   6.809 -0.1732 -0.0373 -0.4233
   14DOPE    HA 1694   6.556   2.899   6.793 -1.2516 -3.2851 -1.4194
   14DOPE    HB 1695   6.668   2.850   6.919  1.1319  0.5429 -0.4330
   14DOPE    C2 1696   6.676   2.735   6.724  0.5029  0.6421  0.6185
   14DOPE    HS 1697   6.786   2.718   6.728  0.1035 -2.1409  1.9375
   14DOPE   O21 1698   6.624   2.758   6.590 -0.2896 -0.3779  0.1507
   14DOPE   C21 1699   6.689   2.703   6.488 -0.3201  0.0229  0.0792
   14DOPE   O22 1700   6.795   2.646   6.504 -0.3862 -0.2536 -0.2171
   14DOPE   C22 1701   6.624   2.725   6.349  0.5151 -0.0177  0.1209
   14DOPE   H2R 1702   6.614   2.835   6.338 -2.6764 -0.1786  0.3460
   14DOPE   H2S 1703   6.517   2.692   6.356 -0.6098  3.5874  2.9887
   14DOPE    C3 1704   6.596   2.609   6.782  0.4326 -0.5515  0.3425
   14DOPE    HX 1705   6.488   2.634   6.774  0.7694  0.4425 -1.4774
   14DOPE    HY 1706   6.624   2.602   6.890  0.6300 -0.3826  0.3015
   14DOPE   O31 1707   6.625   2.488   6.713  0.1956  0.1419 -0.2805
   14DOPE   C31 1708   6.716   2.401   6.756  0.5746 -0.2866 -0.2281
   14DOPE   O32 1709   6.791   2.418   6.848 -0.1159  0.4506  0.5785
   14DOPE   C32 1710   6.711   2.276   6.675 -0.4918  0.0039 -0.4037
   14DOPE   H2X 1711   6.754   2.185   6.722 -1.0159 -0.3631 -0.6277
   14DOPE   H2Y 1712   6.603   2.253   6.660 -0.4090 -0.8389  0.1921
   14DOPE   C23 1713   6.709   2.656   6.236  0.4742 -0.1084 -0.2113
   14DOPE   H3R 1714   6.725   2.550   6.266  0.0450  0.1890  1.1732
   14DOPE   H3S 1715   6.813   2.696   6.239  0.6331 -0.5524  1.9707
   14DOPE   C24 1716   6.647   2.667   6.095 -0.5612 -0.5166 -0.6053
   14DOPE   H4R 1717   6.548   2.615   6.099  0.3837 -2.9273 -4.1970
   14DOPE   H4S 1718   6.714   2.610   6.027  0.4869  1.1402 -1.0243
   14DOPE   C25 1719   6.640   2.805   6.039  0.4370  0.6804  0.0058
   14DOPE   H5R 1720   6.747   2.834   6.047 -0.2851  3.6679 -0.1159
   14DOPE   H5S 1721   6.573   2.877   6.091  0.2304  2.0311 -1.9808
   14DOPE   C26 1722   6.591   2.819   5.894  0.2910 -0.3586  0.1705
   14DOPE   H6R 1723   6.484   2.793   5.880 -0.0645  1.3631 -0.5087
   14DOPE   H6S 1724   6.646   2.749   5.828  1.2442  1.5361 -1.1279
   14DOPE   C27 1725   6.619   2.962   5.840 -0.6483 -0.1471 -0.1851
   14DOPE   H7R 1726   6.725   2.997   5.845 -0.8579  0.5931 -0.6896
   14DOPE   H7S 1727   6.560   3.036   5.899  1.7567  0.0618  2.1663
   14DOPE   C28 1728   6.575   2.976   5.691  0.1049  0.0034  0.2555
   14DOPE   H8R 1729   6.664   2.944   5.633  0.0859  0.2863  0.0687
   14DOPE   H8S 1730   6.555   3.084   5.675  0.5434 -0.1590 -1.5477
   14DOPE   C29 1731   6.448   2.907   5.649 -0.1176 -0.2690  0.0654
   14DOPE   H9R 1732   6.376   2.881   5.727 -0.6467 -0.6219 -0.5384
   14DOPE  C210 1733   6.419   2.857   5.531  0.1172 -0.0034 -0.5601
   14DOPE  H10R 1734   6.322   2.807   5.518  0.6795 -0.8831 -1.5251
   14DOPE  C211 1735   6.508   2.860   5.411 -0.1273  0.1608 -0.3575
   14DOPE  H11R 1736   6.608   2.815   5.432 -0.7039 -0.3974  1.3950
   14DOPE  H11S 1737   6.524   2.969   5.401  1.4297  0.1630  1.5373
   14DOPE  C212 1738   6.456   2.806   5.277  0.0558 -0.0742  0.1854
   14DOPE  H12R 1739   6.529   2.816   5.195 -0.9138  0.9410 -0.5960
   14DOPE  H12S 1740   6.373   2.871   5.242  0.0707 -0.4058 -0.4763
   14DOPE  C213 1741   6.399   2.661   5.287  0.0679  0.7624  0.1508
   14DOPE  H13R 1742   6.375   2.640   5.180 -0.8692  0.4134  0.4208
   14DOPE  H13S 1743   6.304   2.655   5.345  0.9947 -0.8574  1.5758
   14DOPE  C214 1744   6.496   2.554   5.333 -0.1927 -0.4975 -0.2926
   14DOPE  H14R 1745   6.512   2.570   5.442  2.3485 -0.2025 -0.6563
   14DOPE  H14S 1746   6.593   2.559   5.279  1.0488 -0.4301  1.8165
   14DOPE  C215 1747   6.438   2.412   5.310 -0.4479 -0.0824 -0.5508
   14DOPE  H15R 1748   6.497   2.361   5.231  0.1204  2.6408 -2.0016
   14DOPE  H15S 1749   6.343   2.427   5.254 -1.3688 -0.4689  0.8416
   14DOPE  C216 1750   6.430   2.316   5.438  0.3666  0.1253  0.0865
   14DOPE  H16R 1751   6.355   2.361   5.506 -0.0817 -0.7679  0.1984
   14DOPE  H16S 1752   6.529   2.303   5.487  1.2904 -0.0386 -1.7422
   14DOPE  C217 1753   6.377   2.181   5.382 -0.5294 -1.0538  0.0201
   14DOPE  H17R 1754   6.442   2.160   5.295  1.7527  2.8534  0.5205
   14DOPE  H17S 1755   6.271   2.203   5.358 -0.7925 -0.6511  1.4083
   14DOPE  C218 1756   6.373   2.075   5.486 -0.5198 -0.2360 -0.5735
   14DOPE  H18R 1757   6.475   2.035   5.505 -0.5259 -0.1040 -0.2455
   14DOPE  H18S 1758   6.310   1.990   5.453 -2.6745  0.2697  1.9003
   14DOPE  H18T 1759   6.336   2.107   5.586 -1.7937  0.1855 -1.1688
   14DOPE   C33 1760   6.783   2.293   6.535 -0.0671  0.0979 -0.1882
   14DOPE   H3X 1761   6.721   2.373   6.489  0.2273  1.1248  1.1451
   14DOPE   H3Y 1762   6.771   2.196   6.481 -0.8212 -1.1303  2.0570
   14DOPE   C34 1763   6.930   2.327   6.546 -0.0444 -0.7001 -0.3748
   14DOPE   H4X 1764   6.933   2.430   6.589  1.5162  0.8526 -3.8076
   14DOPE   H4Y 1765   6.980   2.262   6.621 -0.6029  0.8865  1.4583
   14DOPE   C35 1766   7.005   2.319   6.414  0.2822  0.1502 -0.5647
   14DOPE   H5X 1767   7.000   2.218   6.369  0.0260  0.5660 -1.5043
   14DOPE   H5Y 1768   7.114   2.336   6.426  0.0014  0.0688  2.9440
   14DOPE   C36 1769   6.956   2.425   6.308 -0.7636  0.1465  0.2398
   14DOPE   H6X 1770   6.989   2.526   6.340  0.3833 -0.3614  0.7136
   14DOPE   H6Y 1771   6.846   2.420   6.322 -0.6038 -1.7697  1.0518
   14DOPE   C37 1772   7.017   2.396   6.165 -0.4365 -0.2476  0.2910
   14DOPE   H7X 1773   6.986   2.481   6.101  0.6410  1.2758  1.7214
   14DOPE   H7Y 1774   7.128   2.393   6.163 -0.4211  0.5092 -1.1733
   14DOPE   C38 1775   6.980   2.257   6.098  0.7377  0.0993  0.1382
   14DOPE   H8X 1776   6.875   2.259   6.062  1.0866 -0.1663 -0.9224
   14DOPE   H8Y 1777   6.982   2.179   6.176 -1.4635 -0.5224 -0.3660
   14DOPE   C39 1778   7.070   2.219   5.981 -0.3702 -0.3552 -0.1440
   14DOPE   H9X 1779   7.053   2.246   5.875  1.0357 -1.7065 -0.7488
   14DOPE  C310 1780   7.184   2.149   6.004 -0.5770  0.6356  0.3199
   14DOPE  H10X 1781   7.251   2.151   5.916 -1.2659  0.1084 -0.2396
   14DOPE  C311 1782   7.237   2.093   6.132 -0.7492  0.7817 -0.2221
   14DOPE  H11X 1783   7.189   2.146   6.217 -2.2511 -1.1043  0.1693
   14DOPE  H11Y 1784   7.204   1.988   6.139  2.0670 -0.3563 -1.9659
   14DOPE  C312 1785   7.389   2.094   6.145  0.1435  0.5548 -0.2610
   14DOPE  H12X 1786   7.431   2.192   6.175  0.5814  0.3904 -0.3426
   14DOPE  H12Y 1787   7.434   2.066   6.048  2.0326 -0.8083  0.9391
   14DOPE  C313 1788   7.444   1.983   6.237 -0.2137 -0.6177  0.6094
   14DOPE  H13X 1789   7.413   2.006   6.341 -1.0032  0.2481  0.1894
   14DOPE  H13Y 1790   7.420   1.878   6.208  1.1759 -0.6202 -0.6252
   14DOPE  C314 1791   7.596   1.989   6.243  0.1529  0.9038 -0.1649
   14DOPE  H14X 1792   7.636   1.947   6.338  1.4533  1.5605 -0.3867
   14DOPE  H14Y 1793   7.622   2.097   6.236  0.5087  0.9476  1.4581
   14DOPE  C315 1794   7.673   1.913   6.134  0.2101 -0.0523 -0.6736
   14DOPE  H15X 1795   7.778   1.947   6.146  0.5094 -1.7625  2.7940
   14DOPE  H15Y 1796   7.625   1.942   6.038  0.3735  1.0483 -0.4365
   14DOPE  C316 1797   7.667   1.759   6.147  0.4678  0.0581 -0.3681
   14DOPE  H16X 1798   7.564   1.730   6.116  0.7767  0.8647 -2.3169
   14DOPE  H16Y 1799   7.676   1.733   6.254  0.6155 -1.3326 -0.7013
   14DOPE  C317 1800   7.758   1.673   6.069 -0.3776 -0.5721 -0.1952
   14DOPE  H17X 1801   7.856   1.679   6.120 -0.8271 -0.0523  0.6168
   14DOPE  H17Y 1802   7.730   1.566   6.078  1.4207 -1.0415  0.2907
   14DOPE  C318 1803   7.779   1.718   5.920  0.0216  0.1262 -0.3707
   14DOPE  H18X 1804   7.829   1.817   5.925  0.9658 -0.3573  0.1153
   14DOPE  H18Y 1805   7.846   1.645   5.870 -0.6538 -3.0087  2.9136
   14DOPE  H18Z 1806   7.681   1.731   5.870  0.7989  3.0125 -1.3659
   15DOPE     N 1807   0.307   2.112   7.343  0.3767  0.0649  0.2408
   15DOPE   HN1 1808   0.402   2.070   7.339 -0.0609 -0.9008 -2.3873
   15DOPE   HN2 1809   0.293   2.210   7.374 -0.7755  0.9439 -2.7029
   15DOPE   HN3 1810   0.252   2.061   7.414 -3.6638  1.2818 -1.7064
   15DOPE   C12 1811   0.247   2.082   7.212  0.4275 -0.7262 -0.7983
   15DOPE  H12A 1812   0.147   2.130   7.218  0.5306 -0.5704 -0.3018
   15DOPE  H12B 1813   0.231   1.972   7.208  0.1577 -0.7184 -0.1074
   15DOPE   C11 1814   0.340   2.136   7.111 -0.0529  0.6042  0.6365
   15DOPE  H11A 1815   0.336   2.247   7.118  0.0168  0.5666  1.3414
   15DOPE  H11B 1816   0.304   2.114   7.008 -0.9419  1.6473  0.7007
   15DOPE     P 1817   0.603   2.152   7.068 -0.3819  0.2854 -0.3070
   15DOPE   O13 1818   0.717   2.059   7.084 -0.5823  0.2315 -0.5502
   15DOPE   O14 1819   0.616   2.289   7.126 -0.7115  0.3842 -0.6023
   15DOPE   O11 1820   0.571   2.179   6.919  0.2767  0.0668 -0.5115
   15DOPE   O12 1821   0.474   2.080   7.121  0.0199  0.3509 -0.0985
   15DOPE    C1 1822   0.539   2.085   6.822  0.1703 -0.1138  0.1593
   15DOPE    HA 1823   0.460   2.015   6.858  0.4382 -1.4610 -1.7117
   15DOPE    HB 1824   0.630   2.023   6.807  0.6930  0.3874  1.1832
   15DOPE    C2 1825   0.497   2.144   6.686  0.4652 -0.1402 -0.2165
   15DOPE    HS 1826   0.443   2.067   6.626 -1.4717  1.1941 -0.2504
   15DOPE   O21 1827   0.621   2.176   6.617 -0.3583  0.5803  0.3523
   15DOPE   C21 1828   0.693   2.079   6.573 -0.0480 -0.3423  1.0376
   15DOPE   O22 1829   0.675   1.959   6.575 -0.1961 -0.0396 -0.3122
   15DOPE   C22 1830   0.809   2.140   6.490 -0.9395  0.1246  0.4838
   15DOPE   H2R 1831   0.899   2.125   6.553 -0.4195 -0.3218 -0.3499
   15DOPE   H2S 1832   0.787   2.248   6.476 -0.9020 -0.0667 -1.3253
   15DOPE    C3 1833   0.410   2.272   6.691 -1.0055  0.6156 -0.3591
   15DOPE    HX 1834   0.481   2.341   6.742 -1.0276 -1.7700  3.2565
   15DOPE    HY 1835   0.319   2.247   6.749 -1.1869  1.9524 -0.0347
   15DOPE   O31 1836   0.375   2.331   6.563 -0.1092  0.3681  0.2492
   15DOPE   C31 1837   0.267   2.280   6.512 -0.9444 -0.6477 -0.5994
   15DOPE   O32 1838   0.208   2.185   6.558  0.1777 -0.4410 -0.5630
   15DOPE   C32 1839   0.214   2.368   6.398  0.1731  0.4717  0.2656
   15DOPE   H2X 1840   0.105   2.354   6.381  0.5278  0.0414 -2.0321
   15DOPE   H2Y 1841   0.240   2.475   6.414 -1.3001  0.7756  0.7764
   15DOPE   C23 1842   0.848   2.069   6.354 -0.6507  0.1310 -0.0320
   15DOPE   H3R 1843   0.757   2.039   6.297 -1.5241  1.2108  0.7471
   15DOPE   H3S 1844   0.896   1.973   6.382  2.6478  1.4191 -0.9157
   15DOPE   C24 1845   0.929   2.148   6.260  1.0032 -0.1146  0.2125
   15DOPE   H4R 1846   1.020   2.194   6.305  1.6618 -1.3592  0.2013
   15DOPE   H4S 1847   0.866   2.228   6.216  0.9890 -1.2202 -1.8856
   15DOPE   C25 1848   0.964   2.072   6.131  0.8185  0.0980 -0.2611
   15DOPE   H5R 1849   0.869   2.025   6.099  0.9111 -2.1679  2.3446
   15DOPE   H5S 1850   1.018   1.978   6.155  1.2981  0.8325  1.7654
   15DOPE   C26 1851   1.028   2.160   6.020 -0.2748  0.5985  0.1028
   15DOPE   H6R 1852   1.126   2.202   6.049 -0.8148  1.6725  0.4022
   15DOPE   H6S 1853   0.961   2.247   6.005  0.6583  0.9287 -2.7272
   15DOPE   C27 1854   1.041   2.087   5.887 -0.4588  0.2557 -0.3073
   15DOPE   H7R 1855   0.938   2.073   5.847  0.0488 -1.4468 -1.1380
   15DOPE   H7S 1856   1.089   1.990   5.913  0.6129 -0.5172 -4.3914
   15DOPE   C28 1857   1.128   2.154   5.783 -0.0938 -0.6188  0.5348
   15DOPE   H8R 1858   1.222   2.170   5.840  0.2696 -1.2305  0.1212
   15DOPE   H8S 1859   1.075   2.248   5.758 -1.4015 -1.7782 -1.3925
   15DOPE   C29 1860   1.154   2.075   5.660 -0.5791  0.7871 -0.7324
   15DOPE   H9R 1861   1.082   2.002   5.619 -0.7769  0.6126 -0.0906
   15DOPE  C210 1862   1.270   2.078   5.595 -0.4707  0.2451  0.0695
   15DOPE  H10R 1863   1.279   2.020   5.502 -0.3589 -0.4109  0.4795
   15DOPE  C211 1864   1.387   2.164   5.636  0.2868 -0.3264 -0.0681
   15DOPE  H11R 1865   1.481   2.139   5.583  2.0240 -0.6669  2.9142
   15DOPE  H11S 1866   1.405   2.143   5.744 -1.1530 -2.1196 -0.1095
   15DOPE  C212 1867   1.368   2.320   5.637  0.2629 -0.1467 -0.1054
   15DOPE  H12R 1868   1.444   2.362   5.706 -0.3441  2.0279 -0.6788
   15DOPE  H12S 1869   1.270   2.341   5.684  0.3403 -0.9446  0.4294
   15DOPE  C213 1870   1.376   2.380   5.494  0.4308 -0.0220 -0.6339
   15DOPE  H13R 1871   1.290   2.334   5.443 -0.4901 -0.1254  0.9321
   15DOPE  H13S 1872   1.466   2.346   5.438 -0.4081 -0.6875 -1.6014
   15DOPE  C214 1873   1.370   2.531   5.483 -0.0470 -0.3582 -0.4059
   15DOPE  H14R 1874   1.264   2.561   5.480  0.8021  3.1916  0.1142
   15DOPE  H14S 1875   1.418   2.565   5.389  0.3004 -0.6558 -0.3379
   15DOPE  C215 1876   1.454   2.608   5.591  0.1898 -0.0881  0.3141
   15DOPE  H15R 1877   1.558   2.570   5.585  0.1055 -0.3073  0.2551
   15DOPE  H15S 1878   1.417   2.585   5.693 -0.9118  0.7405  0.1207
   15DOPE  C216 1879   1.454   2.761   5.571  0.2453  0.1405  0.1929
   15DOPE  H16R 1880   1.350   2.800   5.581 -0.1325 -0.8923  0.5098
   15DOPE  H16S 1881   1.477   2.779   5.464  0.0546  1.5401  0.3777
   15DOPE  C217 1882   1.544   2.847   5.664  0.2794  0.6921 -0.6204
   15DOPE  H17R 1883   1.557   2.943   5.610  0.7664 -0.2238 -2.1648
   15DOPE  H17S 1884   1.647   2.808   5.674  0.6936  1.6227 -1.1617
   15DOPE  C218 1885   1.485   2.862   5.806 -0.1768 -0.7544  0.0784
   15DOPE  H18R 1886   1.556   2.917   5.871 -0.0226  0.4490 -1.0650
   15DOPE  H18S 1887   1.455   2.762   5.845 -0.4473 -1.0503 -0.8573
   15DOPE  H18T 1888   1.396   2.929   5.809  1.9815  2.3179  1.5319
   15DOPE   C33 1889   0.274   2.332   6.261  0.2202  0.1070  0.0202
   15DOPE   H3X 1890   0.268   2.221   6.254  0.7336  0.0198  0.8060
   15DOPE   H3Y 1891   0.384   2.347   6.259  0.1579  0.7301  0.8841
   15DOPE   C34 1892   0.208   2.396   6.141 -0.2898 -0.1857 -0.7579
   15DOPE   H4X 1893   0.104   2.357   6.141  0.1875 -1.5476 -1.4554
   15DOPE   H4Y 1894   0.215   2.506   6.151  1.3001 -0.1312 -2.0380
   15DOPE   C35 1895   0.277   2.354   6.010  0.1444 -0.1020 -0.5341
   15DOPE   H5X 1896   0.278   2.243   6.008  1.5714 -0.1231 -3.1576
   15DOPE   H5Y 1897   0.381   2.391   6.020  0.0268  0.2008 -0.3966
   15DOPE   C36 1898   0.205   2.406   5.883 -0.0999 -0.1364  0.2274
   15DOPE   H6X 1899   0.274   2.411   5.796 -0.1910 -1.2181  0.0789
   15DOPE   H6Y 1900   0.172   2.508   5.910 -0.0604  0.0406 -0.3837
   15DOPE   C37 1901   0.087   2.318   5.824 -0.2821 -0.4078  0.3059
   15DOPE   H7X 1902   0.001   2.316   5.893 -0.5604  0.1632 -0.0172
   15DOPE   H7Y 1903   0.055   2.371   5.731  1.1519 -1.1537 -0.6531
   15DOPE   C38 1904   0.117   2.175   5.779  0.3415  0.1104  0.6879
   15DOPE   H8X 1905   0.020   2.121   5.781 -1.3297  2.8008 -1.1164
   15DOPE   H8Y 1906   0.177   2.127   5.860 -0.6848 -1.4085  0.5942
   15DOPE   C39 1907   0.200   2.156   5.651  0.1870  0.6951 -0.1067
   15DOPE   H9X 1908   0.308   2.148   5.671  0.1177 -2.8996 -0.6415
   15DOPE  C310 1909   0.146   2.118   5.534 -0.2698 -0.1921 -0.6042
   15DOPE  H10X 1910   0.211   2.110   5.445  1.6349 -1.5297  0.8326
   15DOPE  C311 1911  -0.007   2.096   5.499  0.5057  0.1112 -0.1962
   15DOPE  H11X 1912  -0.080   2.133   5.574  0.1327  1.0610 -1.0068
   15DOPE  H11Y 1913  -0.031   2.154   5.407  1.2367 -0.8969 -1.0507
   15DOPE  C312 1914  -0.037   1.951   5.438  0.2836 -0.3347  0.4804
   15DOPE  H12X 1915   0.028   1.930   5.351 -0.1153 -0.0333  0.1063
   15DOPE  H12Y 1916  -0.144   1.945   5.408  0.3392 -0.1417  0.2424
   15DOPE  C313 1917  -0.015   1.833   5.538  0.8976  0.4180 -0.6404
   15DOPE  H13X 1918   0.094   1.828   5.558  1.1172 -3.4558 -1.9671
   15DOPE  H13Y 1919  -0.056   1.853   5.639 -0.4292  0.1231 -1.1060
   15DOPE  C314 1920  -0.060   1.693   5.499  0.2214  0.3570  0.6076
   15DOPE  H14X 1921  -0.168   1.680   5.524  0.7420 -0.7398  2.4609
   15DOPE  H14Y 1922  -0.012   1.625   5.573  0.4285 -0.4430 -0.2390
   15DOPE  C315 1923  -0.023   1.656   5.361 -1.0867  0.3846  0.4547
   15DOPE  H15X 1924   0.080   1.690   5.335 -0.4975 -1.0302  0.8395
   15DOPE  H15Y 1925  -0.088   1.709   5.288  1.1811  2.1928 -0.3911
   15DOPE  C316 1926  -0.024   1.508   5.336 -0.0329  0.3656  0.4270
   15DOPE  H16X 1927   0.059   1.454   5.387 -0.5152 -1.9859 -1.1064
   15DOPE  H16Y 1928  -0.003   1.489   5.228 -2.6073  0.8074 -0.2035
   15DOPE  C317 1929  -0.159   1.453   5.378  0.0358 -0.2032  0.0785
   15DOPE  H17X 1930  -0.182   1.465   5.487 -1.0907  0.2113 -0.1853
   15DOPE  H17Y 1931  -0.234   1.518   5.328 -0.6752 -0.8919  0.2288
   15DOPE  C318 1932  -0.195   1.307   5.347 -0.0979 -0.7069  0.1409
   15DOPE  H18X 1933  -0.241   1.298   5.247  1.3747 -4.8804 -0.3835
   15DOPE  H18Y 1934  -0.103   1.245   5.355  0.8883  0.7853  0.7699
   15DOPE  H18Z 1935  -0.264   1.267   5.424  0.6948  2.1058  2.5121
   16DOPE     N 1936   6.988   3.392   6.647 -0.7001 -0.1604  0.1231
   16DOPE   HN1 1937   6.936   3.306   6.670  1.8801 -1.9510 -0.2806
   16DOPE   HN2 1938   6.956   3.426   6.554 -0.8911 -0.5103  0.0607
   16DOPE   HN3 1939   7.088   3.363   6.641 -0.6970 -0.0983 -0.1506
   16DOPE   C12 1940   6.974   3.499   6.752 -0.2602  0.0887 -0.3734
   16DOPE  H12A 1941   6.987   3.599   6.704 -0.4372  0.2603 -0.0671
   16DOPE  H12B 1942   7.055   3.483   6.826  0.9358  0.0359 -1.6308
   16DOPE   C11 1943   6.831   3.513   6.809 -0.1314  0.3608  0.2000
   16DOPE  H11A 1944   6.824   3.579   6.898 -3.9497 -0.9372  1.0343
   16DOPE  H11B 1945   6.807   3.412   6.847  2.4349 -0.1841  0.5620
   16DOPE     P 1946   6.687   3.698   6.675 -0.0272  0.3511  0.2162
   16DOPE   O13 1947   6.788   3.795   6.711  0.5253  0.1931 -0.1515
   16DOPE   O14 1948   6.556   3.718   6.745  0.2262  0.1621 -0.1676
   16DOPE   O11 1949   6.686   3.688   6.516  0.4358  0.9970 -0.0553
   16DOPE   O12 1950   6.735   3.549   6.709  0.5817 -0.4851  0.0998
   16DOPE    C1 1951   6.667   3.559   6.447  0.1133 -0.9002 -0.6666
   16DOPE    HA 1952   6.670   3.471   6.516 -1.4611  1.7573  3.1633
   16DOPE    HB 1953   6.750   3.551   6.374 -0.7163  1.0384 -1.9008
   16DOPE    C2 1954   6.536   3.586   6.373  0.0526  0.5238  0.5838
   16DOPE    HS 1955   6.512   3.492   6.320  1.0048  0.0413  0.9799
   16DOPE   O21 1956   6.542   3.691   6.271 -0.5183  0.4427 -0.0194
   16DOPE   C21 1957   6.628   3.678   6.176 -0.7223 -0.1479  0.7517
   16DOPE   O22 1958   6.692   3.577   6.150 -0.8193  0.2807 -0.1348
   16DOPE   C22 1959   6.632   3.811   6.096 -0.1028  0.0758 -0.5011
   16DOPE   H2R 1960   6.658   3.890   6.170 -3.8297 -1.4240  2.7681
   16DOPE   H2S 1961   6.530   3.844   6.064 -0.3587 -0.3007 -0.0842
   16DOPE    C3 1962   6.420   3.608   6.464 -0.0516 -0.5915  0.0472
   16DOPE    HX 1963   6.407   3.718   6.476  0.3980 -0.7163  1.8694
   16DOPE    HY 1964   6.452   3.566   6.562  1.0096  3.3122  1.5508
   16DOPE   O31 1965   6.301   3.538   6.415 -0.2590  0.4910  0.2829
   16DOPE   C31 1966   6.181   3.600   6.440 -0.5726  0.0682 -0.1723
   16DOPE   O32 1967   6.168   3.709   6.490  0.0954  0.0461  0.3302
   16DOPE   C32 1968   6.072   3.512   6.382  0.2385  0.5629 -0.1422
   16DOPE   H2X 1969   6.121   3.436   6.316 -1.9687  0.2184 -1.4822
   16DOPE   H2Y 1970   6.021   3.461   6.466 -1.5861  2.6675  0.1260
   16DOPE   C23 1971   6.731   3.807   5.974 -0.6968 -0.1541 -0.2793
   16DOPE   H3R 1972   6.808   3.731   5.997  1.2956  1.5976 -0.9384
   16DOPE   H3S 1973   6.786   3.903   5.975 -2.2545  0.7825 -0.6659
   16DOPE   C24 1974   6.657   3.782   5.845 -0.1720 -0.0535  0.2126
   16DOPE   H4R 1975   6.590   3.865   5.816  0.2876  1.4456  3.0962
   16DOPE   H4S 1976   6.599   3.688   5.856  0.4164 -0.3067  1.3247
   16DOPE   C25 1977   6.759   3.768   5.730  0.4038  0.2863 -0.1359
   16DOPE   H5R 1978   6.836   3.689   5.742  0.3182 -0.1325 -2.0131
   16DOPE   H5S 1979   6.822   3.860   5.730  0.8099  0.0148 -0.9115
   16DOPE   C26 1980   6.697   3.730   5.595  0.4061  0.3438  0.1741
   16DOPE   H6R 1981   6.636   3.638   5.593  0.5096  0.2763  0.1386
   16DOPE   H6S 1982   6.778   3.706   5.523 -0.4804  1.1850 -1.1396
   16DOPE   C27 1983   6.615   3.845   5.536 -0.6655  0.1839 -0.0156
   16DOPE   H7R 1984   6.657   3.946   5.556 -0.5988  0.2628 -0.5337
   16DOPE   H7S 1985   6.520   3.841   5.594 -0.1945 -1.7426  0.6779
   16DOPE   C28 1986   6.596   3.840   5.383  0.4302  1.2014  0.6444
   16DOPE   H8R 1987   6.690   3.810   5.331  0.1177  0.3249  0.5671
   16DOPE   H8S 1988   6.565   3.941   5.348 -0.2096  0.5060 -0.9174
   16DOPE   C29 1989   6.483   3.738   5.367 -0.1452  0.5197  0.3170
   16DOPE   H9R 1990   6.496   3.660   5.445  3.8572 -0.9556 -1.5386
   16DOPE  C210 1991   6.384   3.753   5.280 -0.2668 -0.2483 -0.3800
   16DOPE  H10R 1992   6.313   3.669   5.280 -0.0045 -0.4721 -0.7994
   16DOPE  C211 1993   6.358   3.856   5.179  0.0528 -0.2419  0.9612
   16DOPE  H11R 1994   6.393   3.951   5.224 -1.9428  1.1101 -0.2266
   16DOPE  H11S 1995   6.249   3.868   5.162 -0.1580  0.0455  2.4610
   16DOPE  C212 1996   6.428   3.850   5.041 -0.3350  0.4953 -0.1168
   16DOPE  H12R 1997   6.423   3.948   4.989  2.3568  0.7313 -0.1155
   16DOPE  H12S 1998   6.377   3.765   4.991  2.6953 -1.3704 -0.3015
   16DOPE  C213 1999   6.574   3.794   5.047  0.6717 -0.1917  0.1783
   16DOPE  H13R 2000   6.567   3.693   5.092  1.1969 -0.4641 -0.3538
   16DOPE  H13S 2001   6.621   3.861   5.123  0.8025  0.2982 -0.3249
   16DOPE  C214 2002   6.662   3.793   4.924  0.8670  0.0384  0.4292
   16DOPE  H14R 2003   6.699   3.897   4.911  0.0268  0.0406 -2.8162
   16DOPE  H14S 2004   6.591   3.774   4.840 -0.0185 -1.7547  1.5166
   16DOPE  C215 2005   6.778   3.696   4.927 -0.5069  0.2083 -0.1715
   16DOPE  H15R 2006   6.839   3.707   5.019 -0.8010 -3.6862  0.6952
   16DOPE  H15S 2007   6.852   3.720   4.848 -1.2800 -0.6250 -1.1821
   16DOPE  C216 2008   6.740   3.539   4.924 -0.1221 -0.6009 -0.0298
   16DOPE  H16R 2009   6.659   3.521   4.997  1.4480 -0.9646  1.6815
   16DOPE  H16S 2010   6.827   3.474   4.946 -0.6726 -0.6441  2.2710
   16DOPE  C217 2011   6.696   3.502   4.785 -0.2848 -0.9141  0.4338
   16DOPE  H17R 2012   6.767   3.556   4.719  0.7855  0.1047  2.3271
   16DOPE  H17S 2013   6.593   3.538   4.763  0.2701  0.2993 -0.2837
   16DOPE  C218 2014   6.705   3.353   4.752  0.6708  0.6113 -0.2127
   16DOPE  H18R 2015   6.803   3.303   4.765  0.1201 -0.4378 -0.0717
   16DOPE  H18S 2016   6.678   3.338   4.646  0.1056  2.0629 -0.3049
   16DOPE  H18T 2017   6.621   3.308   4.810  0.2431 -0.5853 -1.7153
   16DOPE   C33 2018   5.965   3.591   6.312  0.5954 -0.0090 -0.4986
   16DOPE   H3X 2019   6.001   3.663   6.234 -2.8038  2.7857  0.2446
   16DOPE   H3Y 2020   5.919   3.659   6.387  4.3712  0.5657  1.5284
   16DOPE   C34 2021   5.851   3.497   6.258 -0.6148 -0.1158  0.1497
   16DOPE   H4X 2022   5.900   3.430   6.185 -0.6999  0.9297 -0.8924
   16DOPE   H4Y 2023   5.807   3.439   6.342 -1.2441 -0.4866 -0.4364
   16DOPE   C35 2024   5.739   3.569   6.181  0.3764  0.1548 -0.5252
   16DOPE   H5X 2025   5.785   3.659   6.134 -0.3156  0.2359 -1.0571
   16DOPE   H5Y 2026   5.671   3.617   6.255  0.7130 -2.0490  1.3379
   16DOPE   C36 2027   5.665   3.489   6.075 -0.0150  0.8237  0.4875
   16DOPE   H6X 2028   5.614   3.403   6.125 -1.9403  1.3775 -0.4038
   16DOPE   H6Y 2029   5.737   3.441   6.005  0.2722 -0.1678  1.4348
   16DOPE   C37 2030   5.564   3.580   6.002 -0.6873  0.5906  0.1722
   16DOPE   H7X 2031   5.522   3.653   6.075  0.4702  0.2005  1.2647
   16DOPE   H7Y 2032   5.629   3.643   5.937 -1.4825 -0.2205 -1.4864
   16DOPE   C38 2033   5.470   3.490   5.924 -0.3221  0.4988 -0.5221
   16DOPE   H8X 2034   5.396   3.445   5.994 -0.3502  3.5918  1.6529
   16DOPE   H8Y 2035   5.531   3.404   5.890 -2.0865 -2.6886  3.4750
   16DOPE   C39 2036   5.391   3.553   5.810  0.4461 -0.4855  0.5428
   16DOPE   H9X 2037   5.293   3.593   5.838 -0.8551  0.0479 -3.9089
   16DOPE  C310 2038   5.431   3.564   5.678  0.3958  0.8116  0.2025
   16DOPE  H10X 2039   5.358   3.608   5.608  0.2256 -1.6152 -1.2561
   16DOPE  C311 2040   5.555   3.506   5.611 -0.3699 -0.5653  0.3250
   16DOPE  H11X 2041   5.640   3.577   5.603  0.0816 -1.2291 -1.0412
   16DOPE  H11Y 2042   5.598   3.417   5.662  2.2891 -0.2984 -1.2612
   16DOPE  C312 2043   5.534   3.474   5.463 -0.0397 -0.1222  0.1039
   16DOPE  H12X 2044   5.471   3.550   5.412 -0.9392  0.9320  2.6358
   16DOPE  H12Y 2045   5.481   3.377   5.471  1.4133 -0.7902  3.6041
   16DOPE  C313 2046   5.663   3.430   5.393 -0.0061  0.2812  0.3557
   16DOPE  H13X 2047   5.730   3.372   5.460  1.4477  0.8887 -0.5026
   16DOPE  H13Y 2048   5.630   3.363   5.311 -0.2462 -0.8820  1.3727
   16DOPE  C314 2049   5.732   3.546   5.322  0.2925  0.0388  0.1254
   16DOPE  H14X 2050   5.750   3.637   5.383 -0.4630 -0.6004  1.3472
   16DOPE  H14Y 2051   5.668   3.579   5.237 -0.3513  2.1964  1.3797
   16DOPE  C315 2052   5.873   3.518   5.266 -0.9848 -0.3367 -0.1304
   16DOPE  H15X 2053   5.882   3.408   5.248  1.5188  0.0117 -1.4556
   16DOPE  H15Y 2054   5.953   3.538   5.339  1.1468 -2.1843 -1.7917
   16DOPE  C316 2055   5.921   3.608   5.145 -0.6996  0.4970 -0.5461
   16DOPE  H16X 2056   5.840   3.626   5.071 -1.0169  1.5208  0.0372
   16DOPE  H16Y 2057   6.010   3.570   5.091 -0.7793 -1.3787  0.5217
   16DOPE  C317 2058   5.959   3.749   5.201  0.4862 -0.1283  0.0633
   16DOPE  H17X 2059   5.878   3.787   5.268  0.6243 -1.1008  0.8124
   16DOPE  H17Y 2060   6.046   3.734   5.268  0.2532  0.9947  0.6404
   16DOPE  C318 2061   5.989   3.856   5.094 -0.9440  0.2141 -0.8992
   16DOPE  H18X 2062   6.027   3.946   5.148  2.1926 -1.2316 -0.4345
   16DOPE  H18Y 2063   6.066   3.822   5.021  3.4014  1.4102  2.6316
   16DOPE  H18Z 2064   5.902   3.904   5.045 -0.1647  2.0676 -0.5758
   17DOPE     N 2065   0.888   7.381   7.004 -0.1615 -0.4053  0.2473
   17DOPE   HN1 2066   0.825   7.336   7.073 -0.3063 -0.3381  0.1597
   17DOPE   HN2 2067   0.986   7.390   7.038 -1.2969  4.1456  3.1688
   17DOPE   HN3 2068   0.863   7.480   6.986 -0.7757 -0.8114 -1.3179
   17DOPE   C12 2069   0.900   7.299   6.877 -0.2869 -0.2229  0.9768
   17DOPE  H12A 2070   1.001   7.312   6.832  0.4850 -0.1611  2.6316
   17DOPE  H12B 2071   0.825   7.345   6.809  1.3334 -0.0485 -0.8014
   17DOPE   C11 2072   0.870   7.152   6.892  0.0151 -0.4898 -0.2034
   17DOPE  H11A 2073   0.885   7.091   6.801 -0.1609  1.2553 -1.4397
   17DOPE  H11B 2074   0.760   7.162   6.908 -0.1743 -0.0928 -1.6407
   17DOPE     P 2075   0.944   6.960   7.056  0.1383 -0.2383  0.2082
   17DOPE   O13 2076   0.833   6.884   7.005  0.1965  0.6389 -0.1929
   17DOPE   O14 2077   0.958   6.966   7.201  0.4039  0.2153  0.1063
   17DOPE   O11 2078   1.078   6.901   6.998 -0.2632 -0.4777 -0.0976
   17DOPE   O12 2079   0.941   7.110   7.006  0.4795 -0.4557  0.2815
   17DOPE    C1 2080   1.185   6.983   6.955 -0.0291  0.0439  0.3002
   17DOPE    HA 2081   1.277   6.928   6.982  0.1265  0.9175  1.6132
   17DOPE    HB 2082   1.193   7.081   7.008  0.4017  0.4258 -0.4534
   17DOPE    C2 2083   1.181   7.011   6.804 -0.6189  0.1982  0.7896
   17DOPE    HS 2084   1.079   7.050   6.783 -0.7261  0.9319  2.5196
   17DOPE   O21 2085   1.209   6.878   6.738 -0.4577  0.0651 -0.0780
   17DOPE   C21 2086   1.100   6.820   6.688  0.1795 -0.2147 -0.3151
   17DOPE   O22 2087   0.985   6.854   6.697 -0.1778 -0.5463 -0.6463
   17DOPE   C22 2088   1.136   6.684   6.624  0.3164  0.1458 -0.1065
   17DOPE   H2R 2089   1.059   6.612   6.658  1.5821 -1.0178  0.4358
   17DOPE   H2S 2090   1.230   6.652   6.676 -0.4432  1.0646  1.9340
   17DOPE    C3 2091   1.284   7.107   6.756  0.0380 -1.0399  0.4428
   17DOPE    HX 2092   1.381   7.076   6.799 -0.0057 -0.0258  1.3104
   17DOPE    HY 2093   1.265   7.209   6.795  0.2181 -0.1496 -1.6689
   17DOPE   O31 2094   1.294   7.109   6.616 -0.2687 -0.2274  0.0585
   17DOPE   C31 2095   1.203   7.181   6.559 -0.3009  0.2566  0.4458
   17DOPE   O32 2096   1.125   7.261   6.608 -1.0270 -0.4310 -0.1326
   17DOPE   C32 2097   1.196   7.134   6.412 -0.1461 -0.0265  0.8825
   17DOPE   H2X 2098   1.119   7.055   6.400  0.0557 -0.1167  0.1035
   17DOPE   H2Y 2099   1.156   7.223   6.360 -1.2603 -0.3371  1.1777
   17DOPE   C23 2100   1.158   6.688   6.470  0.5469  0.1638 -0.9282
   17DOPE   H3R 2101   1.198   6.591   6.432  1.4011 -0.2809  0.9924
   17DOPE   H3S 2102   1.227   6.766   6.431  0.9651  0.0639 -0.3992
   17DOPE   C24 2103   1.021   6.706   6.401  0.4720  0.1926  0.5744
   17DOPE   H4R 2104   0.976   6.798   6.443  1.3255  0.3083  1.2811
   17DOPE   H4S 2105   0.950   6.621   6.406 -1.0546  1.2466 -1.6553
   17DOPE   C25 2106   1.026   6.738   6.245 -0.6622  0.1420 -0.4239
   17DOPE   H5R 2107   1.082   6.653   6.199  1.5776  0.8683  0.8228
   17DOPE   H5S 2108   1.088   6.829   6.231  0.9557 -0.7924  0.2658
   17DOPE   C26 2109   0.887   6.754   6.182  0.7953 -0.3201 -0.0404
   17DOPE   H6R 2110   0.837   6.829   6.246  1.9259 -0.3076  0.8686
   17DOPE   H6S 2111   0.839   6.655   6.195  1.5333 -0.5597  1.0300
   17DOPE   C27 2112   0.893   6.811   6.035 -0.2472  0.1092 -0.4414
   17DOPE   H7R 2113   0.951   6.903   6.053 -0.1114 -0.4207  2.1138
   17DOPE   H7S 2114   0.793   6.848   6.001  0.5025  1.2012 -1.5564
   17DOPE   C28 2115   0.963   6.714   5.933  0.1266  0.4033  0.0479
   17DOPE   H8R 2116   1.065   6.691   5.970 -0.8682 -0.2972  2.6158
   17DOPE   H8S 2117   0.968   6.779   5.843  0.7081 -0.2989 -0.4428
   17DOPE   C29 2118   0.871   6.597   5.929 -0.3105 -0.4145 -0.2806
   17DOPE   H9R 2119   0.901   6.534   6.014  1.2852  1.6675  0.8272
   17DOPE  C210 2120   0.782   6.568   5.835  0.0809  0.0424  0.0460
   17DOPE  H10R 2121   0.719   6.477   5.837  1.0390 -0.9447 -4.1267
   17DOPE  C211 2122   0.758   6.643   5.708 -0.1830 -0.0959  0.1610
   17DOPE  H11R 2123   0.796   6.747   5.717 -0.4377  0.0843 -0.7220
   17DOPE  H11S 2124   0.648   6.649   5.699 -0.6840 -4.9220  0.2399
   17DOPE  C212 2125   0.817   6.570   5.584 -0.2367  0.5686 -0.2991
   17DOPE  H12R 2126   0.761   6.476   5.563  0.5770 -0.3810  1.5787
   17DOPE  H12S 2127   0.925   6.556   5.603 -0.4202  0.6243  0.8112
   17DOPE  C213 2128   0.811   6.667   5.461  0.2785  0.0005 -0.6489
   17DOPE  H13R 2129   0.846   6.769   5.487  1.1704 -0.2476 -0.8246
   17DOPE  H13S 2130   0.703   6.662   5.437 -0.8135  0.8114  3.3798
   17DOPE  C214 2131   0.886   6.622   5.339  0.8910 -0.5021  0.1041
   17DOPE  H14R 2132   0.856   6.521   5.306  0.6217 -0.9580  1.6683
   17DOPE  H14S 2133   0.992   6.611   5.370  0.2782 -0.5216  2.3668
   17DOPE  C215 2134   0.903   6.738   5.231  0.4493  0.1918 -0.3192
   17DOPE  H15R 2135   0.951   6.829   5.275  0.5980 -0.2324  0.4157
   17DOPE  H15S 2136   0.807   6.770   5.186  1.1249  0.9375 -1.2831
   17DOPE  C216 2137   0.993   6.687   5.118 -0.5765  0.7552 -0.2978
   17DOPE  H16R 2138   0.946   6.595   5.076 -1.1436  0.9715 -0.1509
   17DOPE  H16S 2139   1.100   6.670   5.141 -0.9183  1.2458  1.8286
   17DOPE  C217 2140   0.991   6.787   5.001  0.7322  0.1453  0.2482
   17DOPE  H17R 2141   1.024   6.882   5.049 -0.2035 -0.2375  1.7148
   17DOPE  H17S 2142   0.890   6.797   4.957 -0.3575  2.6516  2.9127
   17DOPE  C218 2143   1.086   6.757   4.887 -0.2840 -0.1189 -0.1660
   17DOPE  H18R 2144   1.190   6.765   4.925 -0.6460  0.6430  0.7157
   17DOPE  H18S 2145   1.075   6.843   4.818  2.6721  1.5226  1.2230
   17DOPE  H18T 2146   1.067   6.665   4.828 -0.5923 -0.8001  0.9671
   17DOPE   C33 2147   1.335   7.089   6.348 -0.0780  0.9174 -0.2802
   17DOPE   H3X 2148   1.387   7.010   6.406 -1.4370 -0.5695 -1.0024
   17DOPE   H3Y 2149   1.408   7.172   6.333  0.2492  0.3412 -2.1335
   17DOPE   C34 2150   1.308   7.033   6.206 -0.3036 -0.4681 -0.1704
   17DOPE   H4X 2151   1.404   7.001   6.160  0.0926 -1.2111  1.0949
   17DOPE   H4Y 2152   1.256   6.935   6.208 -0.8306 -0.3336 -3.3007
   17DOPE   C35 2153   1.236   7.127   6.105  0.3054 -0.3144  0.6720
   17DOPE   H5X 2154   1.286   7.226   6.118  1.2388 -0.7925  0.7573
   17DOPE   H5Y 2155   1.128   7.146   6.123  0.1527  1.3595 -1.5163
   17DOPE   C36 2156   1.254   7.081   5.960 -0.4536 -0.7020 -0.1797
   17DOPE   H6X 2157   1.222   6.976   5.942 -0.6785 -0.3400 -2.0476
   17DOPE   H6Y 2158   1.363   7.071   5.945 -0.1389 -0.4093  1.6329
   17DOPE   C37 2159   1.190   7.164   5.850 -0.6109 -0.2485 -0.5998
   17DOPE   H7X 2160   1.083   7.171   5.881 -0.2230 -1.2424  1.1006
   17DOPE   H7Y 2161   1.219   7.271   5.859 -4.3824  0.9055 -0.1893
   17DOPE   C38 2162   1.205   7.108   5.713 -0.6401  0.9708 -0.3161
   17DOPE   H8X 2163   1.313   7.092   5.691 -0.6965 -0.4795  0.3719
   17DOPE   H8Y 2164   1.167   7.185   5.643 -3.4945  1.4033  1.5250
   17DOPE   C39 2165   1.125   6.982   5.687 -0.0193  0.0445  0.0610
   17DOPE   H9X 2166   1.018   6.993   5.711 -0.2313  0.5984 -1.0697
   17DOPE  C310 2167   1.166   6.870   5.623 -0.3267  0.0214 -0.5626
   17DOPE  H10X 2168   1.103   6.780   5.620 -1.6169  0.5939  3.2248
   17DOPE  C311 2169   1.309   6.862   5.574  0.3058  0.6311 -0.1540
   17DOPE  H11X 2170   1.371   6.954   5.580  0.7626  0.2257  3.7975
   17DOPE  H11Y 2171   1.361   6.784   5.634  0.8528  1.5073  0.5282
   17DOPE  C312 2172   1.306   6.810   5.432  0.3361 -0.5580 -0.3427
   17DOPE  H12X 2173   1.222   6.750   5.390 -0.2460 -0.2029  0.2849
   17DOPE  H12Y 2174   1.387   6.735   5.423 -0.2428 -0.9685 -2.9021
   17DOPE  C313 2175   1.322   6.927   5.326  0.7189  0.2041 -0.7876
   17DOPE  H13X 2176   1.425   6.966   5.345  1.5409 -0.0296 -4.0979
   17DOPE  H13Y 2177   1.336   6.884   5.224  0.2396 -0.8928 -0.4076
   17DOPE  C314 2178   1.211   7.030   5.321  0.2080 -0.0294 -0.0582
   17DOPE  H14X 2179   1.204   7.076   5.422  2.5018 -2.8199  1.5253
   17DOPE  H14Y 2180   1.123   6.966   5.298  1.4935 -1.7671 -0.3480
   17DOPE  C315 2181   1.228   7.121   5.199 -0.4729 -0.1067 -0.3486
   17DOPE  H15X 2182   1.229   7.051   5.113  1.0822 -0.7938  0.1957
   17DOPE  H15Y 2183   1.326   7.173   5.206  0.9947 -2.8541  1.0664
   17DOPE  C316 2184   1.130   7.239   5.191  0.2015  0.5381 -0.0087
   17DOPE  H16X 2185   1.022   7.215   5.188 -0.4475  3.2415 -1.0345
   17DOPE  H16Y 2186   1.156   7.309   5.109  0.3410  0.9274  0.3708
   17DOPE  C317 2187   1.140   7.318   5.323 -0.2985 -0.2995  0.3601
   17DOPE  H17X 2188   1.080   7.268   5.402  1.9974 -1.3418  1.5564
   17DOPE  H17Y 2189   1.248   7.323   5.349  0.0967 -1.7874 -0.8367
   17DOPE  C318 2190   1.088   7.462   5.306  0.4257 -0.3404 -0.5881
   17DOPE  H18X 2191   1.065   7.512   5.403 -0.5904  1.0794 -1.5211
   17DOPE  H18Y 2192   1.163   7.523   5.252  0.0168  0.5527 -0.1682
   17DOPE  H18Z 2193   0.990   7.458   5.254  0.2316 -0.8281 -0.2005
   18DOPE     N 2194   7.492   2.442   6.703 -0.5319 -0.1095 -0.2749
   18DOPE   HN1 2195   7.590   2.467   6.678 -0.6560 -0.6126 -1.3692
   18DOPE   HN2 2196   7.491   2.338   6.704  0.6129 -0.1370 -0.0009
   18DOPE   HN3 2197   7.415   2.479   6.644 -2.9331 -1.8613  1.5511
   18DOPE   C12 2198   7.471   2.480   6.850 -0.0105  0.3776 -0.0298
   18DOPE  H12A 2199   7.565   2.446   6.898 -0.4800 -0.5363  0.2743
   18DOPE  H12B 2200   7.385   2.419   6.888  1.5062 -2.3538 -0.7224
   18DOPE   C11 2201   7.443   2.629   6.864 -0.3930  0.0142  0.1464
   18DOPE  H11A 2202   7.446   2.640   6.974  0.9140 -2.4016  0.4113
   18DOPE  H11B 2203   7.339   2.645   6.830 -0.5095 -1.6344 -0.3609
   18DOPE     P 2204   7.563   2.858   6.823  0.3394 -0.1521 -0.6054
   18DOPE   O13 2205   7.660   2.919   6.733 -0.1600 -0.0108  0.4281
   18DOPE   O14 2206   7.570   2.895   6.968  0.2851 -0.2705  0.1821
   18DOPE   O11 2207   7.420   2.907   6.769  0.3851 -0.6116  0.3929
   18DOPE   O12 2208   7.552   2.701   6.806  0.1411 -0.5300  0.0351
   18DOPE    C1 2209   7.362   2.864   6.646 -0.3427 -0.1740 -0.3729
   18DOPE    HA 2210   7.266   2.814   6.670 -1.1342  1.9113  1.0902
   18DOPE    HB 2211   7.420   2.785   6.593 -1.2493 -2.3059  1.6373
   18DOPE    C2 2212   7.333   2.984   6.552  0.3664  0.0906  0.3254
   18DOPE    HS 2213   7.355   3.079   6.606 -2.2780 -0.5874  2.7912
   18DOPE   O21 2214   7.195   2.965   6.510 -0.4709 -0.0870 -0.4823
   18DOPE   C21 2215   7.123   3.070   6.504  0.3041 -0.4450 -0.0399
   18DOPE   O22 2216   7.156   3.186   6.522 -0.7803 -0.4542  0.0674
   18DOPE   C22 2217   6.987   3.032   6.439  0.1777 -0.2566  0.9967
   18DOPE   H2R 2218   6.935   2.958   6.503 -0.4277 -1.2297 -0.5476
   18DOPE   H2S 2219   7.017   2.974   6.348 -0.1398 -0.7694  1.2150
   18DOPE    C3 2220   7.423   2.977   6.434 -0.6378  0.1910  0.0002
   18DOPE    HX 2221   7.527   2.990   6.472 -0.8010  3.5246 -0.3539
   18DOPE    HY 2222   7.413   3.069   6.372 -0.2418 -1.0033 -1.9178
   18DOPE   O31 2223   7.400   2.858   6.352 -0.2039  0.0518  0.1434
   18DOPE   C31 2224   7.511   2.806   6.293  1.1485  0.8296  0.7488
   18DOPE   O32 2225   7.621   2.859   6.285 -0.4031 -0.8084 -0.2033
   18DOPE   C32 2226   7.470   2.678   6.223 -0.0259  0.1896  0.2261
   18DOPE   H2X 2227   7.465   2.588   6.288  1.3335 -0.8465 -1.0293
   18DOPE   H2Y 2228   7.376   2.695   6.166  0.1879  0.7830  0.0483
   18DOPE   C23 2229   6.898   3.145   6.400 -0.0688 -0.0612  0.0908
   18DOPE   H3R 2230   6.945   3.233   6.352 -2.7443  0.2905 -2.1631
   18DOPE   H3S 2231   6.841   3.186   6.486 -0.5137 -1.6349  0.5785
   18DOPE   C24 2232   6.781   3.092   6.313 -0.9986 -0.1373  0.3422
   18DOPE   H4R 2233   6.769   2.984   6.334  0.3959 -0.0105  1.9976
   18DOPE   H4S 2234   6.806   3.083   6.206 -3.1544  2.0334 -0.4694
   18DOPE   C25 2235   6.643   3.160   6.328  0.5689  0.0836  0.1987
   18DOPE   H5R 2236   6.653   3.270   6.318 -0.3737  0.4321  2.3769
   18DOPE   H5S 2237   6.604   3.138   6.430 -0.0259  0.8984  0.1553
   18DOPE   C26 2238   6.545   3.113   6.223  0.0432  0.8437  0.1903
   18DOPE   H6R 2239   6.512   3.016   6.266  1.1142 -0.3109 -1.4537
   18DOPE   H6S 2240   6.589   3.071   6.130  0.3800  0.1613  0.6476
   18DOPE   C27 2241   6.440   3.202   6.168  1.0923 -0.0008  0.2735
   18DOPE   H7R 2242   6.401   3.261   6.254 -1.1098  0.8741 -1.2699
   18DOPE   H7S 2243   6.352   3.153   6.123  0.6501  0.3785  0.7153
   18DOPE   C28 2244   6.509   3.297   6.071 -0.1600  0.0166 -0.3861
   18DOPE   H8R 2245   6.538   3.252   5.974 -0.7352  1.0180 -1.0486
   18DOPE   H8S 2246   6.599   3.338   6.122 -0.8138 -1.0266  1.6957
   18DOPE   C29 2247   6.413   3.405   6.040  1.0201  0.8910  0.0619
   18DOPE   H9R 2248   6.336   3.434   6.113 -2.8621 -1.4565 -2.7384
   18DOPE  C210 2249   6.400   3.469   5.921 -0.1038 -0.0604  0.0932
   18DOPE  H10R 2250   6.320   3.542   5.899  0.5143  0.7952  0.6172
   18DOPE  C211 2251   6.479   3.444   5.793  0.1209  0.6388  0.2258
   18DOPE  H11R 2252   6.566   3.377   5.812 -0.0477 -0.0646 -1.3547
   18DOPE  H11S 2253   6.518   3.539   5.751  0.2300 -0.0016 -1.1486
   18DOPE  C212 2254   6.394   3.368   5.695 -0.4491 -0.6191 -0.7905
   18DOPE  H12R 2255   6.294   3.413   5.673 -0.3044  0.5541  0.8275
   18DOPE  H12S 2256   6.384   3.269   5.744  2.5876  0.6211  2.7563
   18DOPE  C213 2257   6.463   3.364   5.559  0.3342  0.1244  0.0218
   18DOPE  H13R 2258   6.573   3.345   5.565  0.4169 -0.0451 -1.5323
   18DOPE  H13S 2259   6.437   3.464   5.517 -0.9778  0.3245  1.2377
   18DOPE  C214 2260   6.397   3.257   5.473  0.0168  0.0672 -0.2293
   18DOPE  H14R 2261   6.288   3.277   5.478 -0.1921 -1.0905  0.0038
   18DOPE  H14S 2262   6.417   3.156   5.514  0.4532 -0.0069 -0.6108
   18DOPE  C215 2263   6.427   3.255   5.317  0.6058 -0.1859  0.1830
   18DOPE  H15R 2264   6.402   3.157   5.271 -0.3042 -1.2135  2.7173
   18DOPE  H15S 2265   6.535   3.266   5.290  0.6134 -1.5821 -0.4683
   18DOPE  C216 2266   6.362   3.371   5.243 -0.7712  0.2592  0.3181
   18DOPE  H16R 2267   6.354   3.467   5.298 -2.7447  0.3754 -0.0856
   18DOPE  H16S 2268   6.261   3.355   5.200 -1.3059  2.9673  0.3656
   18DOPE  C217 2269   6.443   3.413   5.111  0.0107  0.7293 -0.5157
   18DOPE  H17R 2270   6.500   3.325   5.075 -0.5294  0.6651 -1.2461
   18DOPE  H17S 2271   6.510   3.494   5.147 -1.5718  1.2854  1.3929
   18DOPE  C218 2272   6.354   3.455   5.003 -0.8359 -0.4304 -0.1320
   18DOPE  H18R 2273   6.290   3.370   4.973 -0.9795 -0.8492  1.2665
   18DOPE  H18S 2274   6.410   3.488   4.913  1.9241  2.1326  2.3094
   18DOPE  H18T 2275   6.283   3.538   5.025  0.0462 -0.2050  2.1491
   18DOPE   C33 2276   7.568   2.632   6.102 -0.2602  0.7105  0.0982
   18DOPE   H3X 2277   7.665   2.596   6.142 -0.5433 -1.1567 -0.7919
   18DOPE   H3Y 2278   7.582   2.719   6.035 -0.6953 -0.5011 -1.6219
   18DOPE   C34 2279   7.513   2.512   6.019  0.3070 -0.9738  0.1819
   18DOPE   H4X 2280   7.588   2.511   5.938 -0.2998  4.1174 -0.7463
   18DOPE   H4Y 2281   7.516   2.415   6.074  0.8615 -0.7008  0.6388
   18DOPE   C35 2282   7.375   2.538   5.972  0.6211 -0.6836 -0.1315
   18DOPE   H5X 2283   7.366   2.638   5.924 -0.5915 -1.1948 -1.0458
   18DOPE   H5Y 2284   7.301   2.527   6.054 -0.8400 -1.4117 -1.4842
   18DOPE   C36 2285   7.326   2.432   5.863 -0.3032  0.8573  0.4071
   18DOPE   H6X 2286   7.218   2.452   5.848  0.0260  2.2798 -0.3028
   18DOPE   H6Y 2287   7.346   2.336   5.915 -0.8554  0.5503  0.0539
   18DOPE   C37 2288   7.411   2.446   5.733 -0.3318  0.8459  0.3150
   18DOPE   H7X 2289   7.384   2.544   5.686 -2.0498 -0.6255 -1.9819
   18DOPE   H7Y 2290   7.519   2.451   5.759 -0.3058  0.2179  0.3304
   18DOPE   C38 2291   7.387   2.339   5.620 -0.1423  0.1465  0.1430
   18DOPE   H8X 2292   7.401   2.244   5.676  0.6928  0.6149  0.7606
   18DOPE   H8Y 2293   7.470   2.347   5.547  0.3275 -1.1713  0.5217
   18DOPE   C39 2294   7.252   2.342   5.545  0.0997  0.2647  0.0680
   18DOPE   H9X 2295   7.173   2.338   5.621 -0.0058 -2.1792 -0.1089
   18DOPE  C310 2296   7.215   2.354   5.418  0.4760 -0.1413 -0.1299
   18DOPE  H10X 2297   7.108   2.335   5.399  0.6123 -0.9460 -0.1292
   18DOPE  C311 2298   7.281   2.353   5.289 -0.3141  0.8389  0.6037
   18DOPE  H11X 2299   7.230   2.431   5.228 -0.2185  0.6896  0.3297
   18DOPE  H11Y 2300   7.380   2.402   5.295 -0.2740  0.6746  1.5148
   18DOPE  C312 2301   7.280   2.233   5.197  0.3397  1.5899 -0.1030
   18DOPE  H12X 2302   7.304   2.267   5.094  2.5549 -2.7595 -1.2511
   18DOPE  H12Y 2303   7.180   2.185   5.190  0.2657  1.3328  2.1278
   18DOPE  C313 2304   7.386   2.125   5.242 -0.0661  0.3228  0.5640
   18DOPE  H13X 2305   7.475   2.183   5.273  0.8787 -1.6174  1.7210
   18DOPE  H13Y 2306   7.353   2.079   5.338 -0.4563  0.4689  0.5013
   18DOPE  C314 2307   7.428   2.025   5.136  0.2091  0.2316  0.2562
   18DOPE  H14X 2308   7.492   1.954   5.193  2.9923 -0.9099 -3.8861
   18DOPE  H14Y 2309   7.497   2.065   5.059  0.2722  0.1126  0.2495
   18DOPE  C315 2310   7.320   1.945   5.061 -0.8985 -0.2549  0.1783
   18DOPE  H15X 2311   7.362   1.872   4.989  0.7559  0.4309  0.4059
   18DOPE  H15Y 2312   7.267   2.014   4.991  1.6835 -1.3306 -3.0716
   18DOPE  C316 2313   7.220   1.872   5.153  0.0810  0.8691 -0.3316
   18DOPE  H16X 2314   7.159   1.804   5.090  1.6302 -1.0845  0.1889
   18DOPE  H16Y 2315   7.155   1.937   5.216  1.5606  0.5177  1.6265
   18DOPE  C317 2316   7.291   1.778   5.252  0.2597 -0.5890  0.9414
   18DOPE  H17X 2317   7.377   1.739   5.193 -0.9342  0.6434 -1.7919
   18DOPE  H17Y 2318   7.334   1.835   5.337 -0.0526  1.0256  0.0557
   18DOPE  C318 2319   7.202   1.660   5.305  0.0684  0.6591 -0.0802
   18DOPE  H18X 2320   7.264   1.589   5.364  0.1157 -1.3426 -2.3782
   18DOPE  H18Y 2321   7.127   1.706   5.373 -0.5204 -1.3658  0.7189
   18DOPE  H18Z 2322   7.153   1.602   5.225  0.6342  1.6498 -1.1803
   19DOPE     N 2323   0.961   3.501   6.786  0.0439 -0.0131  0.0388
   19DOPE   HN1 2324   1.011   3.411   6.774 -0.0003 -0.3831  2.2761
   19DOPE   HN2 2325   0.859   3.483   6.794 -0.3463  1.7142 -0.3910
   19DOPE   HN3 2326   0.976   3.553   6.696 -2.8213 -1.6181 -1.5023
   19DOPE   C12 2327   1.015   3.577   6.902 -0.1898 -0.0394  0.0999
   19DOPE  H12A 2328   1.126   3.586   6.902 -0.0032 -1.7546  2.0203
   19DOPE  H12B 2329   0.983   3.524   6.994  0.2295 -2.5161 -1.0860
   19DOPE   C11 2330   0.957   3.723   6.915 -1.1369  0.6712 -0.9896
   19DOPE  H11A 2331   0.992   3.791   6.834 -0.3839 -1.6346 -2.7074
   19DOPE  H11B 2332   0.991   3.752   7.016  0.6546 -2.4220 -0.5856
   19DOPE     P 2333   0.721   3.823   6.982 -0.0160  0.0526 -0.3424
   19DOPE   O13 2334   0.811   3.923   7.043  0.1375 -0.7311  0.3830
   19DOPE   O14 2335   0.635   3.755   7.078  0.1430  0.4324 -0.2901
   19DOPE   O11 2336   0.641   3.894   6.870  0.3006  0.3751  0.0589
   19DOPE   O12 2337   0.816   3.716   6.914 -0.1165 -0.3108  0.3483
   19DOPE    C1 2338   0.571   3.819   6.764  0.1993 -0.4758  0.1557
   19DOPE    HA 2339   0.465   3.852   6.766  0.8831  1.9498  2.3729
   19DOPE    HB 2340   0.556   3.710   6.775 -0.9219 -0.3189  0.3221
   19DOPE    C2 2341   0.634   3.845   6.619 -0.4966  0.2096 -0.8017
   19DOPE    HS 2342   0.665   3.950   6.638  0.5321 -0.2206 -0.0246
   19DOPE   O21 2343   0.532   3.837   6.517  0.1664 -0.1156 -0.5519
   19DOPE   C21 2344   0.537   3.929   6.416  0.1028  0.1776  0.3515
   19DOPE   O22 2345   0.625   4.014   6.405  0.4904 -0.2214  0.3518
   19DOPE   C22 2346   0.409   3.907   6.330 -0.2774 -0.4922 -0.1270
   19DOPE   H2R 2347   0.332   3.880   6.406 -0.9793 -0.3958 -0.7947
   19DOPE   H2S 2348   0.418   3.819   6.264  0.9357  0.5134 -1.3522
   19DOPE    C3 2349   0.750   3.753   6.597 -0.0988  0.3415 -0.0948
   19DOPE    HX 2350   0.703   3.653   6.583 -0.3116  0.3929  0.2400
   19DOPE    HY 2351   0.815   3.741   6.685 -0.6403 -0.2867  0.2328
   19DOPE   O31 2352   0.814   3.792   6.472 -0.2732 -0.4938  0.7140
   19DOPE   C31 2353   0.895   3.897   6.495 -0.4376  0.3279  0.1537
   19DOPE   O32 2354   0.915   3.944   6.604 -0.2206  0.2107  0.0512
   19DOPE   C32 2355   0.974   3.916   6.364  0.2523  0.6207  0.4429
   19DOPE   H2X 2356   1.021   3.820   6.335 -1.2891  0.2564 -0.9880
   19DOPE   H2Y 2357   0.892   3.934   6.291  0.0801 -0.8265  0.2579
   19DOPE   C23 2358   0.385   4.029   6.234  0.6310  0.0383 -0.0270
   19DOPE   H3R 2359   0.487   4.043   6.193  0.3669  0.1633 -0.6487
   19DOPE   H3S 2360   0.347   4.110   6.301 -0.6856 -1.7000  1.4352
   19DOPE   C24 2361   0.264   4.001   6.138 -0.4851 -0.2874  0.7642
   19DOPE   H4R 2362   0.181   3.952   6.192 -0.7914 -1.5132 -0.7650
   19DOPE   H4S 2363   0.291   3.932   6.056 -2.6405  1.1883 -1.3517
   19DOPE   C25 2364   0.221   4.134   6.071 -0.2014 -0.3291  0.1063
   19DOPE   H5R 2365   0.160   4.192   6.143 -1.9589 -2.5421  0.5034
   19DOPE   H5S 2366   0.150   4.106   5.991 -1.3373  2.0760  0.1955
   19DOPE   C26 2367   0.332   4.221   6.003 -0.2023 -0.2469  0.0938
   19DOPE   H6R 2368   0.384   4.142   5.945  1.2635  0.9194 -0.2457
   19DOPE   H6S 2369   0.404   4.261   6.078  0.8913 -1.5227 -0.2241
   19DOPE   C27 2370   0.282   4.328   5.909  0.1957  0.2184  0.1488
   19DOPE   H7R 2371   0.234   4.408   5.969 -1.3969 -0.3174 -0.3679
   19DOPE   H7S 2372   0.204   4.282   5.844 -0.2971 -0.6460  1.3170
   19DOPE   C28 2373   0.387   4.391   5.818  0.1390  0.0810  0.8665
   19DOPE   H8R 2374   0.462   4.434   5.887  1.0379  0.3828 -0.2698
   19DOPE   H8S 2375   0.341   4.477   5.765 -1.4778 -0.5860  1.1169
   19DOPE   C29 2376   0.452   4.293   5.722 -0.8218 -0.1721  0.1931
   19DOPE   H9R 2377   0.498   4.217   5.788 -0.3848 -0.3877 -0.3500
   19DOPE  C210 2378   0.466   4.289   5.588 -0.0187 -0.3694 -0.0124
   19DOPE  H10R 2379   0.520   4.201   5.551 -0.3408 -0.1927 -0.9264
   19DOPE  C211 2380   0.406   4.384   5.485 -0.5329 -0.3767  0.0540
   19DOPE  H11R 2381   0.482   4.457   5.449 -2.4602  1.6676 -0.0978
   19DOPE  H11S 2382   0.327   4.433   5.546 -2.9550 -4.2855  0.3985
   19DOPE  C212 2383   0.331   4.313   5.372 -0.0694  0.6576 -0.1416
   19DOPE  H12R 2384   0.256   4.243   5.414 -1.8788  0.8915 -2.7628
   19DOPE  H12S 2385   0.393   4.245   5.310 -0.1499  0.3910  0.0710
   19DOPE  C213 2386   0.263   4.416   5.284 -0.5729 -0.0908 -0.2266
   19DOPE  H13R 2387   0.338   4.463   5.218 -1.3304 -0.8629 -1.6892
   19DOPE  H13S 2388   0.210   4.488   5.350 -2.4153 -1.6913  0.1419
   19DOPE  C214 2389   0.153   4.364   5.191  0.1020 -0.1249 -0.0955
   19DOPE  H14R 2390   0.107   4.453   5.142 -1.6936  0.4021  2.3249
   19DOPE  H14S 2391   0.075   4.315   5.253  1.5389 -1.3510  0.8152
   19DOPE  C215 2392   0.207   4.264   5.088  0.0518  0.0638  0.8739
   19DOPE  H15R 2393   0.269   4.190   5.142  1.0934 -0.9059 -1.5236
   19DOPE  H15S 2394   0.278   4.318   5.022  0.1275 -0.7530  0.2823
   19DOPE  C216 2395   0.104   4.181   5.000  0.4163 -0.0710  0.4527
   19DOPE  H16R 2396   0.043   4.119   5.070 -1.0232 -2.2720 -2.5271
   19DOPE  H16S 2397   0.162   4.106   4.941  2.9006  0.9746  1.4292
   19DOPE  C217 2398   0.013   4.268   4.912 -0.5311 -0.3489  0.8564
   19DOPE  H17R 2399   0.069   4.279   4.817 -0.9261  0.4063  0.7018
   19DOPE  H17S 2400  -0.003   4.368   4.958  1.0432 -0.3759  1.5163
   19DOPE  C218 2401  -0.119   4.194   4.879 -0.1745 -1.0320  0.1084
   19DOPE  H18R 2402  -0.186   4.213   4.966  1.1827  2.6395  0.5362
   19DOPE  H18S 2403  -0.103   4.088   4.850  0.4164 -0.4694 -1.7642
   19DOPE  H18T 2404  -0.163   4.233   4.785 -1.5869 -2.7090  0.0047
   19DOPE   C33 2405   1.057   4.043   6.350 -0.8244 -0.1115 -0.0757
   19DOPE   H3X 2406   1.109   4.065   6.445 -0.0949 -2.3097  0.1014
   19DOPE   H3Y 2407   0.996   4.135   6.333  1.0657  0.7797 -2.7961
   19DOPE   C34 2408   1.157   4.043   6.227 -0.5349  0.2108  0.4274
   19DOPE   H4X 2409   1.238   3.974   6.257  0.8902  1.7636  0.2960
   19DOPE   H4Y 2410   1.102   4.014   6.134  2.3127 -0.8820 -1.0324
   19DOPE   C35 2411   1.225   4.167   6.188  0.2042  0.1475 -0.4535
   19DOPE   H5X 2412   1.304   4.194   6.262 -0.6866 -1.3455  1.1328
   19DOPE   H5Y 2413   1.143   4.242   6.190 -0.3580 -0.4544  1.6107
   19DOPE   C36 2414   1.280   4.170   6.046 -0.2171  0.3004 -0.2512
   19DOPE   H6X 2415   1.200   4.137   5.977  1.3881 -2.4135 -1.0064
   19DOPE   H6Y 2416   1.348   4.082   6.036 -2.0855 -1.2873  0.2361
   19DOPE   C37 2417   1.338   4.298   6.000  0.3257  0.2020  0.5646
   19DOPE   H7X 2418   1.265   4.379   6.019  0.2606  0.1972  0.3393
   19DOPE   H7Y 2419   1.427   4.327   6.059  0.7839 -0.2422  0.1046
   19DOPE   C38 2420   1.374   4.297   5.845 -0.2613  0.6127  0.5880
   19DOPE   H8X 2421   1.444   4.213   5.824 -1.6471 -0.7149  1.1003
   19DOPE   H8Y 2422   1.435   4.387   5.823 -1.2120  0.9003 -1.0206
   19DOPE   C39 2423   1.258   4.293   5.750 -0.3630 -0.5190  0.4141
   19DOPE   H9X 2424   1.226   4.394   5.720  0.9612 -0.1295  0.2755
   19DOPE  C310 2425   1.190   4.187   5.695 -0.6630 -0.5424 -0.0463
   19DOPE  H10X 2426   1.098   4.221   5.646  0.1224  2.1327  0.1400
   19DOPE  C311 2427   1.214   4.041   5.713 -0.1066 -0.2024 -0.1027
   19DOPE  H11X 2428   1.299   4.014   5.779  0.8051  2.9818  0.1778
   19DOPE  H11Y 2429   1.124   3.996   5.760 -0.2369  0.1574 -0.0001
   19DOPE  C312 2430   1.236   3.978   5.569  0.1638 -0.4795  0.0035
   19DOPE  H12X 2431   1.222   3.869   5.585 -2.5947 -0.2675 -0.4758
   19DOPE  H12Y 2432   1.336   4.001   5.526  1.0446 -3.1264  0.4364
   19DOPE  C313 2433   1.121   4.002   5.466  0.0303 -0.5353 -0.2600
   19DOPE  H13X 2434   1.123   4.111   5.446  0.2840 -0.1258  1.7706
   19DOPE  H13Y 2435   1.138   3.951   5.368 -1.3445 -0.9709 -0.2872
   19DOPE  C314 2436   0.982   3.952   5.527  0.3095 -0.1249  0.2144
   19DOPE  H14X 2437   0.955   3.999   5.624 -1.1871 -0.6710  0.0892
   19DOPE  H14Y 2438   0.982   3.843   5.546 -1.0736 -0.5702 -2.0561
   19DOPE  C315 2439   0.869   3.971   5.425 -0.0578 -0.6733 -0.3415
   19DOPE  H15X 2440   0.891   3.904   5.339  1.5566  0.5899 -0.9758
   19DOPE  H15Y 2441   0.867   4.077   5.391  0.1659 -0.7940 -0.7291
   19DOPE  C316 2442   0.732   3.929   5.477  0.6439  0.3117 -0.3037
   19DOPE  H16X 2443   0.705   3.993   5.565  2.0383 -1.2805  1.3537
   19DOPE  H16Y 2444   0.735   3.827   5.519 -0.4566 -0.1622 -1.3170
   19DOPE  C317 2445   0.611   3.934   5.379  0.6604  0.1044  0.1293
   19DOPE  H17X 2446   0.595   4.032   5.329 -1.0707 -0.2282 -0.0171
   19DOPE  H17Y 2447   0.631   3.856   5.302  0.1701 -0.7862  0.8838
   19DOPE  C318 2448   0.485   3.893   5.455 -1.0269 -0.5896  0.0831
   19DOPE  H18X 2449   0.447   3.965   5.532  0.4354 -1.3633  1.5961
   19DOPE  H18Y 2450   0.404   3.860   5.386  0.4025 -1.4239 -1.2310
   19DOPE  H18Z 2451   0.499   3.806   5.523  0.1066  0.6949  1.5572
   20DOPE     N 2452   7.532   5.163   6.830 -0.2010  0.0015 -0.2103
   20DOPE   HN1 2453   7.495   5.180   6.734 -1.8763 -0.0779  0.3926
   20DOPE   HN2 2454   7.570   5.252   6.870  3.2416 -1.2909 -0.2386
   20DOPE   HN3 2455   7.617   5.103   6.819  1.6119  2.1568  1.0772
   20DOPE   C12 2456   7.405   5.095   6.881 -0.2475  0.1763 -0.0408
   20DOPE  H12A 2457   7.415   5.078   6.991  0.3315  1.1346  0.0592
   20DOPE  H12B 2458   7.387   5.003   6.822 -1.7817 -0.9676  2.0501
   20DOPE   C11 2459   7.276   5.182   6.864  0.4939 -0.0281  0.2997
   20DOPE  H11A 2460   7.297   5.267   6.933 -0.1121  1.0442 -0.7924
   20DOPE  H11B 2461   7.190   5.121   6.899  0.0212  0.7501  0.5234
   20DOPE     P 2462   7.124   5.301   6.685 -0.0844  0.0664 -0.0244
   20DOPE   O13 2463   7.162   5.446   6.665 -0.3068  0.0598 -0.1738
   20DOPE   O14 2464   7.014   5.275   6.780  0.4739 -0.4138 -0.2767
   20DOPE   O11 2465   7.076   5.236   6.548  0.1884 -0.8057 -0.5565
   20DOPE   O12 2466   7.252   5.218   6.729  0.2033 -0.0824 -0.4655
   20DOPE    C1 2467   7.096   5.093   6.521  0.2696  0.1702 -0.2489
   20DOPE    HA 2468   7.087   5.027   6.610  2.0969  1.1876  0.7609
   20DOPE    HB 2469   7.199   5.076   6.481 -0.2873 -0.6187 -1.4220
   20DOPE    C2 2470   6.989   5.045   6.415 -0.1131  0.0734 -0.3572
   20DOPE    HS 2471   7.006   4.936   6.403  1.1563  0.0162  1.4766
   20DOPE   O21 2472   7.001   5.120   6.293  0.4422  0.0565 -0.0779
   20DOPE   C21 2473   7.107   5.113   6.227 -0.0530 -0.1932  0.1790
   20DOPE   O22 2474   7.199   5.032   6.246 -0.1921  0.1887  0.1229
   20DOPE   C22 2475   7.095   5.209   6.105 -0.4639 -0.5435 -0.0581
   20DOPE   H2R 2476   7.193   5.220   6.053 -0.5952  1.4458  0.0325
   20DOPE   H2S 2477   7.064   5.311   6.137 -0.2324 -0.5385  0.1517
   20DOPE    C3 2478   6.851   5.060   6.483 -0.0071  0.5409  0.2085
   20DOPE    HX 2479   6.846   5.160   6.532 -0.8616  0.1430  0.9717
   20DOPE    HY 2480   6.842   4.984   6.564 -2.0150  0.0651 -0.3897
   20DOPE   O31 2481   6.744   5.025   6.391  0.3797 -0.0067 -0.1484
   20DOPE   C31 2482   6.620   5.059   6.446 -0.1725  0.1219 -0.0184
   20DOPE   O32 2483   6.603   5.087   6.564 -0.3544 -0.2735 -0.0735
   20DOPE   C32 2484   6.508   5.058   6.337  0.0070 -0.0587 -0.2538
   20DOPE   H2X 2485   6.518   4.959   6.287 -1.4057  0.0956 -0.8781
   20DOPE   H2Y 2486   6.414   5.053   6.394  0.5199  0.0261  0.6092
   20DOPE   C23 2487   6.988   5.161   6.000 -0.5201 -0.0355 -0.5285
   20DOPE   H3R 2488   6.890   5.206   6.025 -0.5535  0.3362 -1.2892
   20DOPE   H3S 2489   6.977   5.050   5.997 -0.6619 -0.0428  0.1670
   20DOPE   C24 2490   7.030   5.203   5.857  0.0231  0.0039  0.2648
   20DOPE   H4R 2491   7.127   5.154   5.830 -0.0979  1.3604 -3.0759
   20DOPE   H4S 2492   7.050   5.312   5.862 -0.4716  0.0405  2.5011
   20DOPE   C25 2493   6.925   5.169   5.746  0.0558 -0.3458 -0.3343
   20DOPE   H5R 2494   6.851   5.252   5.756  1.4102  0.8365  0.2129
   20DOPE   H5S 2495   6.867   5.081   5.781 -0.5082  0.2918  0.3680
   20DOPE   C26 2496   6.967   5.160   5.598 -0.5296  0.5462  0.0256
   20DOPE   H6R 2497   7.016   5.253   5.560  1.0953 -0.4375 -0.3866
   20DOPE   H6S 2498   6.870   5.164   5.544 -0.1745  1.5602 -0.5761
   20DOPE   C27 2499   7.049   5.035   5.563  0.1891  0.1367  0.2176
   20DOPE   H7R 2500   6.993   4.941   5.582  1.2893 -1.1352 -2.3245
   20DOPE   H7S 2501   7.142   5.024   5.622  0.5906 -4.2156 -0.8807
   20DOPE   C28 2502   7.082   5.038   5.414 -0.4346 -0.1361 -0.0685
   20DOPE   H8R 2503   7.124   5.140   5.398 -1.2366 -0.0820 -2.0880
   20DOPE   H8S 2504   6.992   5.048   5.350 -0.0064  0.9364 -0.5245
   20DOPE   C29 2505   7.166   4.939   5.354  0.1687  0.4209  0.3452
   20DOPE   H9R 2506   7.270   4.975   5.364  0.0106  0.5626  1.5842
   20DOPE  C210 2507   7.138   4.822   5.292 -0.0836 -0.4800  0.5743
   20DOPE  H10R 2508   7.213   4.751   5.253 -1.0059 -2.1536  1.7381
   20DOPE  C211 2509   6.999   4.772   5.278 -0.4541 -0.3740 -0.1144
   20DOPE  H11R 2510   6.982   4.744   5.172 -1.6409  1.1213 -0.3484
   20DOPE  H11S 2511   6.914   4.841   5.299 -1.3056 -0.2230 -3.5047
   20DOPE  C212 2512   6.986   4.653   5.366 -0.3601 -0.0229 -0.2477
   20DOPE  H12R 2513   6.987   4.685   5.473  2.1952  1.2055 -0.5477
   20DOPE  H12S 2514   7.068   4.578   5.361 -0.7254 -0.4244 -0.2040
   20DOPE  C213 2515   6.845   4.595   5.339 -0.3001  0.8839  0.4607
   20DOPE  H13R 2516   6.820   4.577   5.232  0.6825 -0.4269  0.4317
   20DOPE  H13S 2517   6.779   4.667   5.392 -0.4851  0.1192  1.2885
   20DOPE  C214 2518   6.844   4.458   5.419 -0.3063 -0.2930 -0.2035
   20DOPE  H14R 2519   6.879   4.468   5.524  2.9597 -1.1038 -1.1022
   20DOPE  H14S 2520   6.918   4.393   5.367  0.3068 -1.2922  1.8439
   20DOPE  C215 2521   6.706   4.393   5.418 -0.6699  0.6816  0.0991
   20DOPE  H15R 2522   6.643   4.448   5.491 -1.3959 -0.6850  0.5439
   20DOPE  H15S 2523   6.712   4.287   5.453 -0.8428  0.3306 -0.8931
   20DOPE  C216 2524   6.633   4.382   5.284 -0.1039 -0.1219 -0.1463
   20DOPE  H16R 2525   6.599   4.483   5.254  1.0023  0.5925  0.8788
   20DOPE  H16S 2526   6.541   4.320   5.292  0.1213 -0.4359  0.0482
   20DOPE  C217 2527   6.708   4.309   5.170  0.6317  0.8930  0.1602
   20DOPE  H17R 2528   6.745   4.211   5.206  1.7282  0.7900 -1.1988
   20DOPE  H17S 2529   6.791   4.369   5.128  0.0012  0.0063 -2.5277
   20DOPE  C218 2530   6.622   4.282   5.045  0.6607  0.5451  0.5528
   20DOPE  H18R 2531   6.681   4.211   4.982 -0.1443 -0.3516  0.7877
   20DOPE  H18S 2532   6.601   4.380   4.997 -1.1798  0.1652  0.5362
   20DOPE  H18T 2533   6.521   4.243   5.068  1.7383 -1.5872  2.1282
   20DOPE   C33 2534   6.504   5.177   6.232 -0.1389 -0.0520 -0.0763
   20DOPE   H3X 2535   6.541   5.272   6.275  2.3393 -0.0684 -1.9175
   20DOPE   H3Y 2536   6.398   5.190   6.199 -0.0273 -0.6059 -0.6860
   20DOPE   C34 2537   6.592   5.158   6.103 -0.1144 -0.3895  0.0032
   20DOPE   H4X 2538   6.584   5.250   6.042  1.4843  1.2535  2.0864
   20DOPE   H4Y 2539   6.699   5.142   6.131 -0.3070  0.9697  1.7359
   20DOPE   C35 2540   6.542   5.048   6.011  0.0943  0.2618  0.3476
   20DOPE   H5X 2541   6.435   5.067   5.987  0.2413  2.2436  1.0575
   20DOPE   H5Y 2542   6.546   4.958   6.075  0.6857 -0.8915 -1.2305
   20DOPE   C36 2543   6.628   5.014   5.885 -0.1998  0.3074  0.7067
   20DOPE   H6X 2544   6.724   4.963   5.910  0.4471 -0.6758 -3.0954
   20DOPE   H6Y 2545   6.650   5.098   5.816  0.0833 -0.5227 -0.2414
   20DOPE   C37 2546   6.558   4.908   5.794  0.4839 -0.2307  0.2429
   20DOPE   H7X 2547   6.555   4.818   5.860 -1.1339  0.0178  0.5567
   20DOPE   H7Y 2548   6.456   4.947   5.775  0.7248  0.7157  0.8562
   20DOPE   C38 2549   6.639   4.886   5.666 -0.7330  0.5143  0.9721
   20DOPE   H8X 2550   6.739   4.844   5.688 -0.1969  2.4176  2.3944
   20DOPE   H8Y 2551   6.642   4.982   5.610 -0.8089 -1.7078 -3.2970
   20DOPE   C39 2552   6.573   4.797   5.562 -0.8198  0.3003 -0.1764
   20DOPE   H9X 2553   6.616   4.696   5.558  0.2926  0.6907  1.1131
   20DOPE  C310 2554   6.465   4.825   5.497 -0.3939  0.0707  0.0406
   20DOPE  H10X 2555   6.442   4.752   5.418  0.5351 -0.0453 -0.1416
   20DOPE  C311 2556   6.384   4.952   5.481  0.0637  0.2555 -0.1562
   20DOPE  H11X 2557   6.422   5.023   5.557 -2.7976 -0.7284  2.4043
   20DOPE  H11Y 2558   6.399   4.996   5.381 -0.0656  0.6119 -0.0195
   20DOPE  C312 2559   6.239   4.926   5.518 -0.4952 -0.5117 -0.2021
   20DOPE  H12X 2560   6.189   5.024   5.510  2.6365  1.1219 -1.5206
   20DOPE  H12Y 2561   6.239   4.883   5.620  1.3020 -2.5910 -0.9703
   20DOPE  C313 2562   6.166   4.839   5.410  0.9765  0.2896 -0.1439
   20DOPE  H13X 2563   6.233   4.756   5.376  1.5219  1.4003 -1.8844
   20DOPE  H13Y 2564   6.076   4.791   5.454  0.3438 -0.2637 -1.9641
   20DOPE  C314 2565   6.118   4.920   5.293 -0.2036 -0.7026  0.0605
   20DOPE  H14X 2566   6.202   4.972   5.243 -0.2678 -0.9736 -0.3287
   20DOPE  H14Y 2567   6.035   4.986   5.326 -0.3249 -0.7594 -0.1375
   20DOPE  C315 2568   6.054   4.839   5.182 -0.4041  0.6196  0.1096
   20DOPE  H15X 2569   5.969   4.784   5.226 -1.3569  2.9967  1.4383
   20DOPE  H15Y 2570   6.132   4.770   5.144 -0.7236  1.5617 -2.4388
   20DOPE  C316 2571   6.001   4.929   5.072  0.3540  0.1549  0.0546
   20DOPE  H16X 2572   6.087   4.982   5.026  2.3818 -0.2220  3.1069
   20DOPE  H16Y 2573   5.936   5.005   5.120 -0.6819  0.2669 -1.4475
   20DOPE  C317 2574   5.921   4.850   4.964 -0.2500 -0.8650 -0.5061
   20DOPE  H17X 2575   5.987   4.772   4.920  0.2601  0.1305 -1.5703
   20DOPE  H17Y 2576   5.829   4.812   5.013  0.5566 -1.3864  0.6520
   20DOPE  C318 2577   5.865   4.936   4.848 -0.2422 -0.3998  0.2238
   20DOPE  H18X 2578   5.948   4.979   4.787 -0.9492  0.4108 -0.1834
   20DOPE  H18Y 2579   5.793   4.885   4.780  0.4827  1.4963 -2.1532
   20DOPE  H18Z 2580   5.815   5.021   4.900  0.1047 -0.0286 -0.0404
   21DOPE     N 2581   2.352   6.872   7.037 -0.4177 -0.1021 -0.0186
   21DOPE   HN1 2582   2.262   6.833   7.004 -0.2705 -1.2104  0.8351
   21DOPE   HN2 2583   2.356   6.914   7.132 -0.4083 -0.7361  0.2665
   21DOPE   HN3 2584   2.353   6.950   6.968 -3.6117  1.5872  1.6148
   21DOPE   C12 2585   2.457   6.767   7.006  0.0086 -0.4130 -0.0181
   21DOPE  H12A 2586   2.424   6.715   6.914  1.1133 -0.1311 -0.5865
   21DOPE  H12B 2587   2.472   6.688   7.083  1.4303 -0.7157 -0.5892
   21DOPE   C11 2588   2.591   6.845   6.984 -0.2687  0.3580 -0.0496
   21DOPE  H11A 2589   2.564   6.927   6.914 -2.4414 -0.2190  0.0570
   21DOPE  H11B 2590   2.654   6.775   6.925 -1.0804 -1.1810  0.8770
   21DOPE     P 2591   2.803   6.919   7.123 -0.0668 -0.3562 -0.0518
   21DOPE   O13 2592   2.857   6.798   7.187  0.1291  0.2125 -0.2230
   21DOPE   O14 2593   2.831   7.043   7.200  0.0385 -0.0775 -0.3847
   21DOPE   O11 2594   2.852   6.934   6.977 -0.0303 -0.1341  0.6156
   21DOPE   O12 2595   2.643   6.891   7.107 -1.1619 -0.1808 -0.0383
   21DOPE    C1 2596   2.846   7.065   6.920 -0.1656  0.1641 -0.5598
   21DOPE    HA 2597   2.795   7.140   6.984  0.4612  2.6901 -2.7905
   21DOPE    HB 2598   2.786   7.055   6.827 -2.3049  2.5202  0.4500
   21DOPE    C2 2599   2.988   7.125   6.883 -0.4467 -0.3745 -0.4045
   21DOPE    HS 2600   2.975   7.234   6.864  0.8295 -0.1746 -0.2199
   21DOPE   O21 2601   3.049   7.049   6.774 -0.3934 -0.1733  0.1297
   21DOPE   C21 2602   3.035   7.111   6.649 -0.3536 -0.2734 -0.8099
   21DOPE   O22 2603   2.987   7.224   6.632 -0.2282 -0.2683  0.1136
   21DOPE   C22 2604   3.081   7.026   6.536 -0.2794 -0.3827 -0.2847
   21DOPE   H2R 2605   3.046   6.921   6.543 -0.9411 -0.1031  0.7510
   21DOPE   H2S 2606   3.191   7.041   6.526 -0.4950  0.7682 -1.1187
   21DOPE    C3 2607   3.089   7.119   6.998 -0.1811  0.4228  0.1031
   21DOPE    HX 2608   3.109   7.015   7.029 -1.9894 -0.0497 -0.2230
   21DOPE    HY 2609   3.045   7.165   7.089  0.9695  2.6903 -0.3965
   21DOPE   O31 2610   3.216   7.188   6.975  0.8495 -0.0117  0.5685
   21DOPE   C31 2611   3.241   7.308   7.024 -0.3886  0.4394  0.3481
   21DOPE   O32 2612   3.152   7.382   7.062  0.7877 -0.4575  0.0154
   21DOPE   C32 2613   3.397   7.345   7.025 -0.4000 -0.8232  1.0054
   21DOPE   H2X 2614   3.415   7.383   7.127 -2.6268  0.5797  0.9403
   21DOPE   H2Y 2615   3.444   7.255   6.981  0.2859  0.5938 -1.3541
   21DOPE   C23 2616   3.012   7.071   6.405  0.3720 -0.2957  0.5655
   21DOPE   H3R 2617   2.905   7.078   6.435  0.0798 -1.8978  0.0062
   21DOPE   H3S 2618   3.020   6.991   6.328  0.6706 -2.2590  2.5454
   21DOPE   C24 2619   3.062   7.202   6.345 -0.1449 -0.0392  0.2500
   21DOPE   H4R 2620   3.173   7.216   6.343 -0.1478 -0.0289  0.1354
   21DOPE   H4S 2621   3.021   7.285   6.406 -0.5268  1.6112 -2.0918
   21DOPE   C25 2622   3.027   7.220   6.196  0.2746  0.1024  0.3256
   21DOPE   H5R 2623   3.076   7.312   6.157  2.4730 -1.5675 -1.1383
   21DOPE   H5S 2624   2.919   7.244   6.185  0.1857 -0.1868  0.5562
   21DOPE   C26 2625   3.068   7.106   6.097 -0.4515  0.2820  0.0871
   21DOPE   H6R 2626   2.996   7.024   6.117  1.0101 -0.6778  1.6042
   21DOPE   H6S 2627   3.170   7.074   6.126  0.4160  2.6856 -0.1002
   21DOPE   C27 2628   3.090   7.143   5.947  0.2075 -0.8039 -0.7962
   21DOPE   H7R 2629   3.144   7.240   5.943  1.1385 -1.2143  0.9180
   21DOPE   H7S 2630   2.989   7.176   5.915  0.2268  1.0259  0.8158
   21DOPE   C28 2631   3.151   7.030   5.860  0.0391  0.1597 -0.5710
   21DOPE   H8R 2632   3.088   6.940   5.877 -1.5260  1.2283 -0.4194
   21DOPE   H8S 2633   3.257   7.010   5.887  0.2581 -0.2800 -1.7095
   21DOPE   C29 2634   3.133   7.081   5.713 -0.1740  0.1944  0.0111
   21DOPE   H9R 2635   3.034   7.118   5.683 -0.4027  0.1973  0.7586
   21DOPE  C210 2636   3.228   7.085   5.618  0.6824  0.3790 -1.0446
   21DOPE  H10R 2637   3.181   7.111   5.522 -2.0818 -0.2644  0.0181
   21DOPE  C211 2638   3.375   7.048   5.641 -0.4023  0.3014 -0.5197
   21DOPE  H11R 2639   3.411   7.043   5.745  3.9910 -0.9420 -1.8951
   21DOPE  H11S 2640   3.433   7.131   5.593 -2.5019  1.3245 -1.4373
   21DOPE  C212 2641   3.415   6.917   5.561  0.4134 -0.0901 -0.2883
   21DOPE  H12R 2642   3.389   6.924   5.453 -0.7553 -1.8634 -0.1588
   21DOPE  H12S 2643   3.347   6.839   5.601  0.7678 -0.0272  0.4588
   21DOPE  C213 2644   3.557   6.870   5.584 -0.0087 -0.0390 -0.6960
   21DOPE  H13R 2645   3.563   6.856   5.694 -0.3068 -0.3004 -0.7112
   21DOPE  H13S 2646   3.622   6.952   5.548  1.4032 -1.2215 -0.9688
   21DOPE  C214 2647   3.580   6.734   5.513 -0.1033  0.2445 -0.1449
   21DOPE  H14R 2648   3.563   6.761   5.407  0.1493  0.5504 -0.1095
   21DOPE  H14S 2649   3.500   6.668   5.553 -1.3091  1.8654  0.1835
   21DOPE  C215 2650   3.721   6.678   5.541  1.2128 -0.4041 -0.0631
   21DOPE  H15R 2651   3.732   6.635   5.643  0.7160 -1.2481 -0.3585
   21DOPE  H15S 2652   3.793   6.763   5.539 -0.2124  0.9768  1.8634
   21DOPE  C216 2653   3.767   6.581   5.430 -0.9159 -0.0568 -0.6185
   21DOPE  H16R 2654   3.752   6.636   5.334  0.3205  0.3788 -0.5799
   21DOPE  H16S 2655   3.699   6.493   5.431 -0.3349 -0.5068  0.3231
   21DOPE  C217 2656   3.912   6.543   5.452 -0.1407 -0.0479 -0.1910
   21DOPE  H17R 2657   3.923   6.489   5.549 -2.7820  0.2218  0.3345
   21DOPE  H17S 2658   3.973   6.635   5.447 -1.6619  0.9081 -3.0349
   21DOPE  C218 2659   3.965   6.456   5.335 -0.0372  0.0282 -0.6227
   21DOPE  H18R 2660   4.076   6.450   5.342 -0.0241 -1.2982 -1.5870
   21DOPE  H18S 2661   3.951   6.505   5.236  3.9600  0.8735 -0.9261
   21DOPE  H18T 2662   3.916   6.356   5.333 -1.0623  0.5155 -3.4116
   21DOPE   C33 2663   3.423   7.473   6.936 -0.7349 -0.2984  0.6538
   21DOPE   H3X 2664   3.532   7.493   6.935 -1.3158  3.6748  1.0475
   21DOPE   H3Y 2665   3.372   7.562   6.979 -0.1946 -0.2520  1.2120
   21DOPE   C34 2666   3.381   7.459   6.795 -0.3444  0.5016  0.1693
   21DOPE   H4X 2667   3.274   7.428   6.797 -0.6894  1.6211 -0.0541
   21DOPE   H4Y 2668   3.384   7.557   6.743  0.1124 -0.2475 -1.2781
   21DOPE   C35 2669   3.469   7.357   6.710  0.4517 -0.4683 -0.3391
   21DOPE   H5X 2670   3.461   7.260   6.762  2.1034 -0.6549 -0.4041
   21DOPE   H5Y 2671   3.576   7.387   6.705 -0.0659  1.6341  0.2350
   21DOPE   C36 2672   3.435   7.357   6.557  0.5770  0.2467 -0.6001
   21DOPE   H6X 2673   3.439   7.461   6.520 -0.7913  0.4982 -0.0692
   21DOPE   H6Y 2674   3.334   7.312   6.548  1.1924 -1.3531  0.0510
   21DOPE   C37 2675   3.534   7.271   6.475  0.1696  0.3245  0.6198
   21DOPE   H7X 2676   3.630   7.314   6.509  0.0413  2.5939 -1.6702
   21DOPE   H7Y 2677   3.511   7.167   6.507 -0.2666  0.2487  0.0559
   21DOPE   C38 2678   3.509   7.299   6.326 -0.5582  0.0255  0.2478
   21DOPE   H8X 2679   3.511   7.409   6.316 -0.7608 -0.0795 -1.0532
   21DOPE   H8Y 2680   3.404   7.271   6.301 -1.0139  0.0622  1.9328
   21DOPE   C39 2681   3.626   7.241   6.250  0.4100  0.0925 -0.0293
   21DOPE   H9X 2682   3.727   7.275   6.274  0.8911 -0.7625 -0.7579
   21DOPE  C310 2683   3.620   7.152   6.152 -0.2396 -0.5969 -0.2342
   21DOPE  H10X 2684   3.710   7.121   6.097  0.2387 -1.5908  1.0601
   21DOPE  C311 2685   3.492   7.084   6.098 -0.6158  0.0047  0.8446
   21DOPE  H11X 2686   3.397   7.137   6.120 -1.0005 -0.7190  0.9565
   21DOPE  H11Y 2687   3.480   7.077   5.987  0.6896 -0.7584  0.7290
   21DOPE  C312 2688   3.480   6.935   6.136  0.2207 -0.8839 -0.1902
   21DOPE  H12X 2689   3.387   6.905   6.082 -0.9722  3.0807 -0.7174
   21DOPE  H12Y 2690   3.468   6.941   6.246  0.0170 -0.2532 -0.2393
   21DOPE  C313 2691   3.596   6.846   6.106 -0.0379 -0.3332 -0.3965
   21DOPE  H13X 2692   3.691   6.880   6.154 -0.5697 -1.1591  1.3236
   21DOPE  H13Y 2693   3.579   6.741   6.138 -0.0735 -0.4189 -0.6933
   21DOPE  C314 2694   3.615   6.827   5.958 -0.4800 -0.3389  0.4525
   21DOPE  H14X 2695   3.593   6.925   5.910  3.8760  0.4170 -0.4393
   21DOPE  H14Y 2696   3.543   6.749   5.928 -0.1152 -0.3329 -0.4602
   21DOPE  C315 2697   3.759   6.788   5.920 -0.3160 -0.4723  0.0119
   21DOPE  H15X 2698   3.830   6.859   5.968 -1.0108  0.1316  0.1719
   21DOPE  H15Y 2699   3.765   6.789   5.809  4.1231 -0.0170  0.0791
   21DOPE  C316 2700   3.811   6.650   5.978 -0.0668 -0.1241  0.8213
   21DOPE  H16X 2701   3.727   6.577   5.974  1.8518 -2.4149 -0.0060
   21DOPE  H16Y 2702   3.839   6.678   6.082  1.7433  1.8067 -0.1200
   21DOPE  C317 2703   3.938   6.601   5.908  0.3069 -0.9083 -0.1438
   21DOPE  H17X 2704   3.925   6.585   5.799 -0.0599  2.4102 -0.7027
   21DOPE  H17Y 2705   4.030   6.664   5.906  0.7099 -1.4803  0.0011
   21DOPE  C318 2706   3.978   6.464   5.973  0.6375 -0.2121  0.4253
   21DOPE  H18X 2707   3.891   6.395   5.976 -0.0136  0.5465 -0.2704
   21DOPE  H18Y 2708   4.058   6.427   5.906  0.9687  1.4973 -0.1643
   21DOPE  H18Z 2709   4.008   6.489   6.077  1.3289  1.8203 -0.2191
   22DOPE     N 2710   7.397   4.040   6.828 -0.0575  0.3039 -0.4906
   22DOPE   HN1 2711   7.434   4.052   6.925  2.1034 -0.8197 -1.1056
   22DOPE   HN2 2712   7.350   4.130   6.805 -0.3800 -0.4212 -2.8941
   22DOPE   HN3 2713   7.324   3.966   6.827  1.8059 -1.7365  1.8101
   22DOPE   C12 2714   7.491   4.000   6.723 -0.1735  0.1791 -0.0991
   22DOPE  H12A 2715   7.543   3.909   6.758 -1.0049 -0.9070 -1.5936
   22DOPE  H12B 2716   7.571   4.074   6.701  0.4740  0.2902  2.3662
   22DOPE   C11 2717   7.407   3.967   6.604  0.2717 -0.4471 -0.1726
   22DOPE  H11A 2718   7.468   3.948   6.513  1.5536 -0.3410  0.6334
   22DOPE  H11B 2719   7.337   4.049   6.578  0.1722 -0.9317 -1.4855
   22DOPE     P 2720   7.274   3.745   6.543  0.2168  0.4258 -0.4247
   22DOPE   O13 2721   7.128   3.773   6.542  0.2392  0.3387  0.4839
   22DOPE   O14 2722   7.315   3.605   6.580 -0.4116  0.5213 -0.4472
   22DOPE   O11 2723   7.341   3.777   6.402 -0.3770 -0.4871 -0.0638
   22DOPE   O12 2724   7.336   3.851   6.641 -0.2203 -0.5085 -0.0939
   22DOPE    C1 2725   7.465   3.728   6.351  0.0515 -0.6183 -0.4621
   22DOPE    HA 2726   7.474   3.618   6.363  1.1227 -0.4736  0.1370
   22DOPE    HB 2727   7.547   3.769   6.413  0.8960 -1.7592 -0.7984
   22DOPE    C2 2728   7.494   3.766   6.197  0.0683  0.3302 -0.3010
   22DOPE    HS 2729   7.601   3.745   6.174  0.0901 -0.7645  0.6603
   22DOPE   O21 2730   7.468   3.905   6.163 -0.1567  0.1322  0.3382
   22DOPE   C21 2731   7.548   3.996   6.209 -0.5429  0.9077  0.6365
   22DOPE   O22 2732   7.640   3.972   6.283 -0.4427  0.3123 -0.1108
   22DOPE   C22 2733   7.505   4.131   6.153 -0.1158 -0.1534  0.2185
   22DOPE   H2R 2734   7.522   4.119   6.043  0.8758 -3.0748  0.6050
   22DOPE   H2S 2735   7.584   4.204   6.182  0.0332 -0.1582 -0.1684
   22DOPE    C3 2736   7.397   3.689   6.102 -0.3421  0.2284  0.0213
   22DOPE    HX 2737   7.301   3.745   6.111  1.3450  3.4144 -0.2439
   22DOPE    HY 2738   7.383   3.587   6.142 -0.2457  0.7067  1.2941
   22DOPE   O31 2739   7.432   3.685   5.968  0.1138  0.5212 -0.2043
   22DOPE   C31 2740   7.335   3.651   5.880 -0.6535 -0.2018  0.0459
   22DOPE   O32 2741   7.224   3.614   5.912 -0.2927  0.1893  0.0179
   22DOPE   C32 2742   7.375   3.689   5.740 -0.4114  0.5761  0.8871
   22DOPE   H2X 2743   7.285   3.741   5.702  0.0940 -0.7448 -2.4092
   22DOPE   H2Y 2744   7.464   3.755   5.733 -1.3007  1.6645 -0.5109
   22DOPE   C23 2745   7.356   4.177   6.185 -0.0011 -0.0147  0.8044
   22DOPE   H3R 2746   7.354   4.193   6.295 -1.6324  0.2677  0.7498
   22DOPE   H3S 2747   7.290   4.090   6.163  0.3592 -0.1767  0.3277
   22DOPE   C24 2748   7.313   4.302   6.101  0.3906  0.0474 -0.3203
   22DOPE   H4R 2749   7.309   4.276   5.993 -1.3973  0.0878 -0.2877
   22DOPE   H4S 2750   7.384   4.386   6.121 -0.6944  1.0828 -0.6708
   22DOPE   C25 2751   7.175   4.346   6.144 -0.0508  0.2972  0.2470
   22DOPE   H5R 2752   7.165   4.448   6.102 -1.9700  0.1727  0.3281
   22DOPE   H5S 2753   7.148   4.347   6.252 -1.0759 -1.9857  0.0750
   22DOPE   C26 2754   7.071   4.242   6.089 -0.4383  0.3241  0.2215
   22DOPE   H6R 2755   7.084   4.151   6.152  1.7762 -0.1103 -0.7453
   22DOPE   H6S 2756   7.089   4.228   5.980 -1.6161  3.1260 -0.4136
   22DOPE   C27 2757   6.924   4.295   6.105  0.1128  0.4779 -0.5567
   22DOPE   H7R 2758   6.915   4.391   6.050 -1.0382  1.2497  0.9018
   22DOPE   H7S 2759   6.918   4.308   6.215  0.1374  0.6174 -0.5707
   22DOPE   C28 2760   6.812   4.202   6.056  0.4172 -0.1503  0.5604
   22DOPE   H8R 2761   6.712   4.238   6.089  0.5676 -0.2945  1.1864
   22DOPE   H8S 2762   6.816   4.105   6.110 -0.7428 -1.4633 -1.5879
   22DOPE   C29 2763   6.823   4.186   5.909  0.2071  0.3853 -0.2913
   22DOPE   H9R 2764   6.906   4.118   5.887 -1.1171 -1.5807  0.5762
   22DOPE  C210 2765   6.773   4.263   5.810 -0.4834 -0.0591  0.8081
   22DOPE  H10R 2766   6.788   4.237   5.704 -0.7186 -0.2522  0.8208
   22DOPE  C211 2767   6.681   4.376   5.830  0.1410 -0.2346 -0.3031
   22DOPE  H11R 2768   6.724   4.468   5.785 -0.3749 -0.8304 -2.1224
   22DOPE  H11S 2769   6.652   4.396   5.935 -1.6745  0.5945 -0.9147
   22DOPE  C212 2770   6.549   4.351   5.758 -0.7952 -0.4207  1.0691
   22DOPE  H12R 2771   6.558   4.325   5.651  0.8596 -0.6400  1.2423
   22DOPE  H12S 2772   6.505   4.453   5.759 -1.8920 -0.7157 -2.7039
   22DOPE  C213 2773   6.467   4.244   5.832 -0.7632 -0.3691 -0.2604
   22DOPE  H13R 2774   6.458   4.285   5.935 -0.3251  0.1389 -0.4227
   22DOPE  H13S 2775   6.524   4.148   5.834 -0.4579 -0.2144 -1.2204
   22DOPE  C214 2776   6.335   4.248   5.765  0.2402  0.2604 -0.5615
   22DOPE  H14R 2777   6.305   4.353   5.742  0.8415  0.4236 -0.6109
   22DOPE  H14S 2778   6.259   4.201   5.832 -0.7833  1.1290 -1.0661
   22DOPE  C215 2779   6.337   4.162   5.644  0.0347  0.2079  0.4242
   22DOPE  H15R 2780   6.383   4.063   5.666  1.8259  0.6359 -1.1460
   22DOPE  H15S 2781   6.414   4.209   5.578 -0.5624 -0.7896 -1.0444
   22DOPE  C216 2782   6.209   4.139   5.561  0.6044  0.8942  0.1850
   22DOPE  H16R 2783   6.139   4.069   5.612  0.8559  0.5595  0.0739
   22DOPE  H16S 2784   6.234   4.085   5.468 -0.1275 -0.2141  0.6165
   22DOPE  C217 2785   6.130   4.272   5.532 -0.7692 -0.1121  0.0432
   22DOPE  H17R 2786   6.107   4.324   5.628 -0.3516  2.9384 -1.3831
   22DOPE  H17S 2787   6.035   4.240   5.484 -0.5763 -2.2509  0.9890
   22DOPE  C218 2788   6.203   4.370   5.446  0.6408 -0.6167 -0.5244
   22DOPE  H18R 2789   6.129   4.448   5.418 -0.1571 -0.7106  1.1815
   22DOPE  H18S 2790   6.236   4.312   5.357  2.2478 -2.0039  0.9097
   22DOPE  H18T 2791   6.288   4.423   5.493 -0.2299 -1.1113  1.7349
   22DOPE   C33 2792   7.392   3.566   5.645  0.1031  0.2811  0.2262
   22DOPE   H3X 2793   7.359   3.598   5.544 -1.2787  0.2101  0.6366
   22DOPE   H3Y 2794   7.316   3.491   5.674  0.9348 -0.4597  0.5554
   22DOPE   C34 2795   7.530   3.500   5.650 -0.0074  0.6040  0.8711
   22DOPE   H4X 2796   7.570   3.501   5.753  2.0820  2.1901  0.1268
   22DOPE   H4Y 2797   7.525   3.392   5.621 -0.3943  0.3099  1.9953
   22DOPE   C35 2798   7.637   3.580   5.568 -0.2971 -0.1146 -0.1549
   22DOPE   H5X 2799   7.736   3.556   5.612 -0.4865  1.3575  1.1875
   22DOPE   H5Y 2800   7.613   3.686   5.593 -1.7473 -0.1887 -1.1461
   22DOPE   C36 2801   7.655   3.563   5.417 -0.6308  0.0215  0.1856
   22DOPE   H6X 2802   7.556   3.593   5.375 -0.5485  0.5389  0.3565
   22DOPE   H6Y 2803   7.683   3.461   5.383  1.0324  1.0444 -1.7424
   22DOPE   C37 2804   7.772   3.647   5.365  0.7407  0.4421 -0.0222
   22DOPE   H7X 2805   7.749   3.755   5.378  0.9135  0.3492  1.1571
   22DOPE   H7Y 2806   7.858   3.630   5.434 -0.3046  1.9091  1.7361
   22DOPE   C38 2807   7.810   3.612   5.221 -0.3078  0.0372 -0.1862
   22DOPE   H8X 2808   7.719   3.634   5.162 -1.8679 -0.2797  1.9918
   22DOPE   H8Y 2809   7.816   3.501   5.224 -2.3175 -0.0940  0.2836
   22DOPE   C39 2810   7.939   3.681   5.177  0.2258 -0.1565 -0.1627
   22DOPE   H9X 2811   7.923   3.779   5.129 -2.6998 -0.8513 -0.7819
   22DOPE  C310 2812   8.062   3.620   5.186 -0.1227 -0.4831 -0.2935
   22DOPE  H10X 2813   8.144   3.682   5.146 -0.7331  0.2945 -0.3741
   22DOPE  C311 2814   8.104   3.485   5.237  1.4836 -0.7075  0.6849
   22DOPE  H11X 2815   8.030   3.407   5.208  0.1722  0.6225  0.3496
   22DOPE  H11Y 2816   8.200   3.452   5.193  1.9235  1.7421 -0.3461
   22DOPE  C312 2817   8.120   3.486   5.393 -0.3815 -0.1643 -0.4015
   22DOPE  H12X 2818   8.100   3.379   5.413  0.7660 -1.0247 -3.3429
   22DOPE  H12Y 2819   8.026   3.529   5.435 -0.4585 -0.3009 -0.4342
   22DOPE  C313 2820   8.257   3.521   5.442  0.0174 -0.0295 -0.2197
   22DOPE  H13X 2821   8.326   3.457   5.383 -0.1430 -0.4973  0.0994
   22DOPE  H13Y 2822   8.291   3.627   5.434  1.2585 -0.4114 -0.1403
   22DOPE  C314 2823   8.263   3.477   5.591 -0.2103  0.1697  0.8069
   22DOPE  H14X 2824   8.246   3.368   5.609  0.4350  0.2875  2.3217
   22DOPE  H14Y 2825   8.176   3.521   5.645 -1.4805 -1.4361  0.1682
   22DOPE  C315 2826   8.391   3.528   5.662 -0.2455 -0.3679 -0.5261
   22DOPE  H15X 2827   8.410   3.487   5.763 -0.5340  1.1099  0.1591
   22DOPE  H15Y 2828   8.377   3.639   5.670 -2.3191 -0.6321  0.4000
   22DOPE  C316 2829   8.519   3.494   5.585 -0.0006 -0.1819 -0.2670
   22DOPE  H16X 2830   8.535   3.546   5.489 -1.9385 -1.0754 -1.1233
   22DOPE  H16Y 2831   8.498   3.389   5.555  0.3399 -1.0132  2.1080
   22DOPE  C317 2832   8.649   3.478   5.667 -0.0781 -0.2343 -0.4632
   22DOPE  H17X 2833   8.656   3.557   5.744 -0.1395 -1.0805  0.4263
   22DOPE  H17Y 2834   8.657   3.382   5.722 -0.2120 -0.0486 -0.1227
   22DOPE  C318 2835   8.778   3.490   5.581  0.3728 -0.2665  0.2701
   22DOPE  H18X 2836   8.874   3.502   5.636  1.5055  1.0981 -1.8369
   22DOPE  H18Y 2837   8.794   3.401   5.517  0.3355  1.2934 -2.0637
   22DOPE  H18Z 2838   8.766   3.579   5.515 -0.4201 -1.7603 -1.7128
   23DOPE     N 2839   3.510   0.732   7.421 -0.6743 -0.3747  0.2277
   23DOPE   HN1 2840   3.430   0.783   7.464 -1.3626 -2.0066  1.0181
   23DOPE   HN2 2841   3.513   0.634   7.458  0.7066 -1.0977 -1.6405
   23DOPE   HN3 2842   3.594   0.780   7.457 -0.4097 -0.8595  0.2645
   23DOPE   C12 2843   3.502   0.746   7.270 -0.2885  0.4241 -0.1065
   23DOPE  H12A 2844   3.491   0.854   7.246 -0.2980  0.5431  0.4277
   23DOPE  H12B 2845   3.403   0.701   7.243 -0.3547  0.3637  0.2321
   23DOPE   C11 2846   3.624   0.684   7.200  0.0003  0.1594  0.5586
   23DOPE  H11A 2847   3.588   0.673   7.095  2.7502 -3.6811 -0.1913
   23DOPE  H11B 2848   3.628   0.584   7.247 -0.6984  0.4127  1.1732
   23DOPE     P 2849   3.882   0.693   7.229  0.5791  0.2124  0.1038
   23DOPE   O13 2850   3.868   0.554   7.274  0.6386 -0.6740  0.1273
   23DOPE   O14 2851   3.961   0.788   7.305 -0.1623 -0.1309  0.1247
   23DOPE   O11 2852   3.938   0.691   7.083  0.0316 -0.0213 -0.0783
   23DOPE   O12 2853   3.740   0.763   7.212  0.4267 -0.5849  0.4429
   23DOPE    C1 2854   4.025   0.799   7.029 -0.1545  0.4846  0.0008
   23DOPE    HA 2855   4.055   0.777   6.924 -0.6773  1.0445 -0.2745
   23DOPE    HB 2856   4.117   0.800   7.092  0.1874 -1.6252 -0.4051
   23DOPE    C2 2857   3.943   0.937   7.021 -0.2358  0.7159  0.1841
   23DOPE    HS 2858   3.910   0.961   7.124  1.0072  0.2573  0.7052
   23DOPE   O21 2859   3.841   0.919   6.923  0.3099 -0.2632 -0.1947
   23DOPE   C21 2860   3.751   1.021   6.904  0.9008 -0.1703  0.1571
   23DOPE   O22 2861   3.733   1.126   6.974  0.1623  0.3170  0.2009
   23DOPE   C22 2862   3.658   0.979   6.786 -0.2651 -0.5974 -0.0816
   23DOPE   H2R 2863   3.567   1.040   6.803  0.7199  0.4272  1.8468
   23DOPE   H2S 2864   3.633   0.871   6.792  0.2160 -0.9522 -2.8599
   23DOPE    C3 2865   4.046   1.051   6.980  0.5103  0.0637  0.6514
   23DOPE    HX 2866   4.127   1.061   7.055  0.5563  1.0765  0.4816
   23DOPE    HY 2867   4.003   1.153   6.990  1.4568  0.7442 -1.6004
   23DOPE   O31 2868   4.111   1.026   6.849 -0.8857  0.8112 -0.1868
   23DOPE   C31 2869   4.066   1.099   6.750  0.2170 -0.1569 -0.0745
   23DOPE   O32 2870   3.972   1.177   6.761  0.0863  0.5503  0.3418
   23DOPE   C32 2871   4.167   1.084   6.637 -0.0696  0.3065  0.2493
   23DOPE   H2X 2872   4.264   1.052   6.680  0.2684 -0.3065 -0.9182
   23DOPE   H2Y 2873   4.134   1.004   6.567  0.9225  0.8327 -0.8572
   23DOPE   C23 2874   3.708   1.012   6.647 -0.0934 -0.2187  0.3666
   23DOPE   H3R 2875   3.745   1.116   6.639  2.2989 -0.9642  0.8931
   23DOPE   H3S 2876   3.630   0.992   6.570  1.0486  0.2810 -0.9551
   23DOPE   C24 2877   3.807   0.903   6.597 -0.4541 -0.6121 -0.1798
   23DOPE   H4R 2878   3.768   0.799   6.592  0.6108 -1.0650  0.5965
   23DOPE   H4S 2879   3.892   0.882   6.666 -0.6737 -0.0001  0.2861
   23DOPE   C25 2880   3.871   0.951   6.462 -0.1626  0.5589 -0.6037
   23DOPE   H5R 2881   3.979   0.928   6.452  0.4101  2.1955  1.2796
   23DOPE   H5S 2882   3.856   1.059   6.442 -0.2366  0.9134  1.2696
   23DOPE   C26 2883   3.807   0.870   6.342 -0.3108  0.9834  0.7272
   23DOPE   H6R 2884   3.707   0.915   6.322 -0.8895  0.5504  2.4756
   23DOPE   H6S 2885   3.796   0.761   6.362  1.3761  0.4991 -0.7214
   23DOPE   C27 2886   3.892   0.877   6.215 -0.5624  0.2790  0.0642
   23DOPE   H7R 2887   3.983   0.816   6.236 -0.1013  0.8689 -0.1659
   23DOPE   H7S 2888   3.919   0.983   6.193  0.5212 -0.3117 -1.6438
   23DOPE   C28 2889   3.822   0.803   6.091  0.2733  0.1546 -0.2474
   23DOPE   H8R 2890   3.789   0.708   6.138  1.7300  0.6979  2.0457
   23DOPE   H8S 2891   3.905   0.784   6.020 -0.5247  3.1405 -2.1742
   23DOPE   C29 2892   3.715   0.878   6.015  0.3238 -0.2319 -0.0471
   23DOPE   H9R 2893   3.610   0.843   6.014 -0.3701  1.7643 -1.2720
   23DOPE  C210 2894   3.746   0.978   5.923 -0.2900  0.8056  0.2967
   23DOPE  H10R 2895   3.663   1.027   5.869  1.8454  4.6977  0.1383
   23DOPE  C211 2896   3.888   1.026   5.894  0.4184 -0.2233 -0.6148
   23DOPE  H11R 2897   3.959   0.944   5.916 -0.3864 -0.8010 -0.1111
   23DOPE  H11S 2898   3.916   1.119   5.949 -0.7124 -0.4745  0.4267
   23DOPE  C212 2899   3.897   1.055   5.747  0.6154  0.3452  0.4544
   23DOPE  H12R 2900   3.823   1.132   5.716  0.3095 -0.2948 -0.4445
   23DOPE  H12S 2901   3.868   0.969   5.683  0.6610 -1.2044  2.4023
   23DOPE  C213 2902   4.036   1.098   5.700  0.3868  0.4970  0.6750
   23DOPE  H13R 2903   4.105   1.014   5.724 -0.7073 -0.3912  0.8498
   23DOPE  H13S 2904   4.060   1.183   5.767 -1.0487 -0.9028  3.1443
   23DOPE  C214 2905   4.052   1.128   5.550 -0.1082 -0.4271  0.1350
   23DOPE  H14R 2906   4.148   1.184   5.541 -0.3828 -0.2526 -2.0596
   23DOPE  H14S 2907   3.976   1.204   5.524 -0.2652 -0.4894  0.4057
   23DOPE  C215 2908   4.035   1.009   5.456  0.1088 -0.6122 -0.1159
   23DOPE  H15R 2909   3.933   0.970   5.476 -0.4282  1.5296  1.7878
   23DOPE  H15S 2910   4.111   0.931   5.478 -0.0684 -0.5377  0.8148
   23DOPE  C216 2911   4.038   1.055   5.311 -0.8479  0.1486 -0.2100
   23DOPE  H16R 2912   3.966   1.137   5.291  0.7012  1.4431 -0.7700
   23DOPE  H16S 2913   4.016   0.971   5.243  0.8592 -0.2848 -0.2673
   23DOPE  C217 2914   4.184   1.105   5.279  0.0190  0.6617 -0.7920
   23DOPE  H17R 2915   4.258   1.023   5.284 -0.5012  0.1542 -1.2610
   23DOPE  H17S 2916   4.214   1.177   5.358 -0.3478 -0.3143  0.2658
   23DOPE  C218 2917   4.192   1.177   5.146 -0.4899 -0.7644 -0.4907
   23DOPE  H18R 2918   4.134   1.119   5.071  0.7256  0.3024 -2.3293
   23DOPE  H18S 2919   4.294   1.197   5.107 -1.2803  0.6568 -1.9549
   23DOPE  H18T 2920   4.142   1.276   5.152 -1.0021 -0.9423 -1.5107
   23DOPE   C33 2921   4.171   1.213   6.549 -0.0936  0.5763  0.7571
   23DOPE   H3X 2922   4.199   1.297   6.616  0.1076  0.9929  0.1563
   23DOPE   H3Y 2923   4.066   1.233   6.518  0.1954  1.4559  0.2975
   23DOPE   C34 2924   4.260   1.199   6.424  0.0717 -0.6379  0.2652
   23DOPE   H4X 2925   4.250   1.293   6.366  0.3907  0.4394  1.8888
   23DOPE   H4Y 2926   4.369   1.190   6.447  0.1857 -3.0338 -0.9121
   23DOPE   C35 2927   4.222   1.090   6.326 -0.0850  0.0654 -0.3128
   23DOPE   H5X 2928   4.115   1.101   6.300 -0.1755 -3.0781 -1.7328
   23DOPE   H5Y 2929   4.237   0.991   6.375 -0.4078  0.8236  1.3735
   23DOPE   C36 2930   4.304   1.086   6.195 -0.4607 -0.0105  0.3462
   23DOPE   H6X 2931   4.294   0.980   6.164  0.2213  0.3181 -1.0744
   23DOPE   H6Y 2932   4.413   1.105   6.212  0.0215 -0.9448 -1.4815
   23DOPE   C37 2933   4.270   1.192   6.092  0.1904  0.1456  0.0664
   23DOPE   H7X 2934   4.165   1.177   6.059  0.1534 -0.1656  0.3228
   23DOPE   H7Y 2935   4.269   1.288   6.147  0.4223 -0.4101  1.0624
   23DOPE   C38 2936   4.362   1.204   5.965 -0.5249  0.1045 -0.4337
   23DOPE   H8X 2937   4.379   1.101   5.926  1.5220 -0.0296  0.7122
   23DOPE   H8Y 2938   4.461   1.241   5.999 -0.0949 -2.0776  0.9045
   23DOPE   C39 2939   4.298   1.282   5.857 -1.2336 -0.1180 -0.2216
   23DOPE   H9X 2940   4.206   1.330   5.894 -2.5431 -3.0966  0.7153
   23DOPE  C310 2941   4.325   1.273   5.725 -1.0965 -0.4805 -0.1315
   23DOPE  H10X 2942   4.276   1.343   5.655  0.3373 -0.7399 -1.4460
   23DOPE  C311 2943   4.433   1.191   5.661  0.1773 -0.2524  0.1222
   23DOPE  H11X 2944   4.486   1.117   5.725  0.2656 -0.1205  0.2021
   23DOPE  H11Y 2945   4.392   1.135   5.575 -0.0940 -0.6000  0.4709
   23DOPE  C312 2946   4.546   1.281   5.590  1.1713 -0.4449 -0.2712
   23DOPE  H12X 2947   4.581   1.355   5.665 -2.3898  0.3678  0.7809
   23DOPE  H12Y 2948   4.498   1.336   5.507  0.0917 -0.5031  0.2871
   23DOPE  C313 2949   4.657   1.198   5.525 -0.0520  0.1697  0.1236
   23DOPE  H13X 2950   4.701   1.149   5.615  0.4362 -1.5121 -0.9851
   23DOPE  H13Y 2951   4.626   1.119   5.454  1.6343  0.0215 -0.4835
   23DOPE  C314 2952   4.770   1.279   5.472 -0.7163  0.2463 -0.4176
   23DOPE  H14X 2953   4.863   1.220   5.482 -0.5342  0.3843 -1.2767
   23DOPE  H14Y 2954   4.783   1.369   5.536  0.4654 -0.1580 -0.0666
   23DOPE  C315 2955   4.758   1.319   5.321 -0.6713  0.2348 -0.1849
   23DOPE  H15X 2956   4.649   1.332   5.305 -0.6371 -0.3757 -1.0016
   23DOPE  H15Y 2957   4.784   1.228   5.264  0.7511  0.4975  0.0020
   23DOPE  C316 2958   4.849   1.437   5.281  0.0243 -0.4032  0.2957
   23DOPE  H16X 2959   4.959   1.424   5.280  0.4682  2.5296 -1.7070
   23DOPE  H16Y 2960   4.822   1.525   5.343  0.8543  1.6431 -2.0901
   23DOPE  C317 2961   4.818   1.485   5.134  0.3778  0.4225 -0.0751
   23DOPE  H17X 2962   4.719   1.438   5.112  1.2372 -1.3646 -0.3117
   23DOPE  H17Y 2963   4.804   1.595   5.134 -2.0233  0.2307  2.3100
   23DOPE  C318 2964   4.915   1.436   5.029  0.0927  0.0315  0.2650
   23DOPE  H18X 2965   5.024   1.444   5.044  0.1317  1.0771 -0.5108
   23DOPE  H18Y 2966   4.903   1.327   5.011 -0.5414  0.0241  0.6783
   23DOPE  H18Z 2967   4.893   1.477   4.929 -2.7408 -0.9234  0.3809
   24DOPE     N 2968   6.956   3.999   6.539 -0.1947  0.1258 -0.5614
   24DOPE   HN1 2969   7.038   3.936   6.521  2.3839  2.6508  1.4071
   24DOPE   HN2 2970   6.938   4.007   6.641 -0.0063 -3.2224 -0.1218
   24DOPE   HN3 2971   6.867   3.958   6.503  0.4893  0.1437 -2.3932
   24DOPE   C12 2972   6.962   4.138   6.477 -0.3369 -0.2754 -0.0791
   24DOPE  H12A 2973   6.862   4.185   6.495  0.2873  1.0963 -0.0627
   24DOPE  H12B 2974   6.963   4.116   6.368  0.2935 -0.2362 -0.0821
   24DOPE   C11 2975   7.085   4.218   6.525  0.1563  0.1023 -0.0652
   24DOPE  H11A 2976   7.098   4.315   6.472 -3.6895  0.4314 -0.6819
   24DOPE  H11B 2977   7.177   4.156   6.509 -0.0430 -0.3910  0.6503
   24DOPE     P 2978   7.165   4.349   6.747 -0.3959  0.2007  0.3309
   24DOPE   O13 2979   7.261   4.265   6.826  0.0541 -0.1713  0.6723
   24DOPE   O14 2980   7.089   4.456   6.820 -0.0120  0.5373  0.1733
   24DOPE   O11 2981   7.257   4.419   6.634  0.3049  0.3446  1.0948
   24DOPE   O12 2982   7.066   4.255   6.666  0.1586  0.6583  0.5112
   24DOPE    C1 2983   7.269   4.568   6.633 -0.5878  0.5698  0.0846
   24DOPE    HA 2984   7.374   4.603   6.640 -0.4795  0.2018  0.3744
   24DOPE    HB 2985   7.219   4.612   6.722 -2.3658 -0.5667 -0.3029
   24DOPE    C2 2986   7.220   4.624   6.504  0.8415 -0.3064  0.7477
   24DOPE    HS 2987   7.217   4.735   6.510  0.9924 -0.3242  1.1583
   24DOPE   O21 2988   7.091   4.578   6.470 -0.5754  0.2931 -0.4260
   24DOPE   C21 2989   6.987   4.647   6.526 -0.4378 -0.4761  0.2122
   24DOPE   O22 2990   6.996   4.743   6.601  0.4027 -0.0754  0.3864
   24DOPE   C22 2991   6.858   4.595   6.467 -0.0013  0.1037 -0.5812
   24DOPE   H2R 2992   6.783   4.601   6.549  0.2102  1.4453 -0.4767
   24DOPE   H2S 2993   6.860   4.488   6.436 -3.9668 -1.3537  3.1249
   24DOPE    C3 2994   7.328   4.587   6.388  0.3128  0.0292 -0.4074
   24DOPE    HX 2995   7.321   4.480   6.359 -1.3958  0.2699 -1.0181
   24DOPE    HY 2996   7.428   4.610   6.429 -0.7415  1.2711  1.6288
   24DOPE   O31 2997   7.287   4.651   6.261 -0.0428 -0.1703 -0.1376
   24DOPE   C31 2998   7.352   4.756   6.227  0.5611  0.2294  0.2312
   24DOPE   O32 2999   7.437   4.817   6.291  0.4766 -0.0127  0.1372
   24DOPE   C32 3000   7.311   4.781   6.084 -0.3506  0.0821  1.0446
   24DOPE   H2X 3001   7.315   4.689   6.022  0.7483  0.0432  1.1579
   24DOPE   H2Y 3002   7.203   4.807   6.090  0.0488  2.1735  0.0565
   24DOPE   C23 3003   6.790   4.677   6.355  0.5659 -0.0334 -0.0751
   24DOPE   H3R 3004   6.812   4.785   6.370  0.1373  0.0350  0.0905
   24DOPE   H3S 3005   6.680   4.665   6.361  0.4276  1.1320 -0.0219
   24DOPE   C24 3006   6.844   4.634   6.211 -0.7643  0.3335  0.4648
   24DOPE   H4R 3007   6.801   4.533   6.192  1.6294 -0.3247 -2.2378
   24DOPE   H4S 3008   6.954   4.619   6.212 -0.6800  0.7356 -0.7212
   24DOPE   C25 3009   6.805   4.730   6.098 -0.8140  0.7977  0.2650
   24DOPE   H5R 3010   6.856   4.827   6.115 -1.6505  1.5350 -1.2241
   24DOPE   H5S 3011   6.696   4.750   6.106 -1.1907 -1.0991  0.5486
   24DOPE   C26 3012   6.840   4.677   5.959 -0.0898  0.3802 -0.6596
   24DOPE   H6R 3013   6.757   4.719   5.898  0.2021  1.9555 -0.0312
   24DOPE   H6S 3014   6.827   4.567   5.959 -0.6429  0.4442 -0.7862
   24DOPE   C27 3015   6.981   4.724   5.906  0.2143 -0.2185 -0.5186
   24DOPE   H7R 3016   7.052   4.724   5.992 -2.3771  2.0640  1.8211
   24DOPE   H7S 3017   6.977   4.832   5.880  1.8167 -0.1329 -0.5138
   24DOPE   C28 3018   7.021   4.660   5.775  0.1552  0.1417  0.2029
   24DOPE   H8R 3019   7.095   4.729   5.729  0.3720  0.1651  0.5823
   24DOPE   H8S 3020   6.936   4.668   5.704 -0.1124 -0.8649  0.4071
   24DOPE   C29 3021   7.063   4.520   5.785 -0.2215  0.2034 -0.0469
   24DOPE   H9R 3022   6.989   4.441   5.804 -0.7618  1.0426  1.4347
   24DOPE  C210 3023   7.187   4.473   5.753 -0.2063 -0.6178  0.0595
   24DOPE  H10R 3024   7.217   4.367   5.752  1.5777 -0.1501 -0.0026
   24DOPE  C211 3025   7.303   4.560   5.701 -0.5951  0.0677  0.1297
   24DOPE  H11R 3026   7.395   4.566   5.764 -0.5854 -1.6978  0.3440
   24DOPE  H11S 3027   7.278   4.667   5.689  0.3433  0.0843 -2.1678
   24DOPE  C212 3028   7.362   4.520   5.562  0.6089  0.5366 -0.5349
   24DOPE  H12R 3029   7.441   4.592   5.529 -1.0443  3.4305  1.3415
   24DOPE  H12S 3030   7.278   4.527   5.489  0.3483 -0.9860 -0.4033
   24DOPE  C213 3031   7.415   4.373   5.549 -0.6621 -0.4209  0.0224
   24DOPE  H13R 3032   7.335   4.305   5.585 -1.3275 -0.5274 -1.5588
   24DOPE  H13S 3033   7.496   4.364   5.624  1.2141  2.0308 -1.5255
   24DOPE  C214 3034   7.476   4.354   5.407  0.1824 -0.1173 -0.4310
   24DOPE  H14R 3035   7.566   4.417   5.394  0.2363 -0.1033 -0.0128
   24DOPE  H14S 3036   7.401   4.389   5.334 -0.7486 -1.6564 -0.2692
   24DOPE  C215 3037   7.519   4.205   5.382 -0.0463  0.3840  0.2826
   24DOPE  H15R 3038   7.566   4.202   5.282 -1.3513 -2.4443 -0.3353
   24DOPE  H15S 3039   7.429   4.140   5.383  0.7075 -0.6972 -0.6365
   24DOPE  C216 3040   7.616   4.155   5.495  0.4869  0.0222 -0.2950
   24DOPE  H16R 3041   7.659   4.242   5.549 -1.6633  1.4943 -0.8224
   24DOPE  H16S 3042   7.702   4.102   5.448  1.1259  1.4199 -0.7555
   24DOPE  C217 3043   7.564   4.052   5.608  0.0042  0.1887  0.6071
   24DOPE  H17R 3044   7.522   3.968   5.550  2.4035 -0.0679 -0.9161
   24DOPE  H17S 3045   7.490   4.110   5.666 -1.1532 -0.6952  0.0440
   24DOPE  C218 3046   7.677   3.999   5.697  0.9744  0.1166 -0.0165
   24DOPE  H18R 3047   7.651   3.953   5.795  0.2370 -1.4693 -0.9127
   24DOPE  H18S 3048   7.758   4.073   5.713  0.1685  1.1516 -0.6151
   24DOPE  H18T 3049   7.736   3.928   5.636 -0.7730 -1.9902  0.6052
   24DOPE   C33 3050   7.393   4.888   6.018  0.1880 -0.5338 -0.0888
   24DOPE   H3X 3051   7.489   4.839   5.989  0.6135  0.7814 -0.9791
   24DOPE   H3Y 3052   7.403   4.979   6.081 -0.1830  0.5664 -1.5694
   24DOPE   C34 3053   7.314   4.935   5.892 -0.1646 -0.5314 -0.2356
   24DOPE   H4X 3054   7.290   4.861   5.813  0.7374 -0.1804 -0.8607
   24DOPE   H4Y 3055   7.215   4.968   5.928 -1.0508 -1.3969 -1.7777
   24DOPE   C35 3056   7.400   5.042   5.820 -0.1596 -0.0397 -0.2817
   24DOPE   H5X 3057   7.420   5.137   5.874  0.0922 -0.2577  0.0118
   24DOPE   H5Y 3058   7.336   5.078   5.737  0.0090  0.2901 -0.2717
   24DOPE   C36 3059   7.536   4.991   5.767 -0.1975 -0.4975  0.0186
   24DOPE   H6X 3060   7.538   4.880   5.766  0.3642 -0.5170  1.2386
   24DOPE   H6Y 3061   7.616   5.026   5.836 -1.1855  0.0011  0.9395
   24DOPE   C37 3062   7.581   5.055   5.637  0.0268 -0.2109  0.2521
   24DOPE   H7X 3063   7.591   5.165   5.650  1.0134 -0.3387  0.7340
   24DOPE   H7Y 3064   7.684   5.019   5.615 -0.2831 -1.9927  1.4837
   24DOPE   C38 3065   7.489   5.019   5.511 -0.1697  0.3655 -0.3246
   24DOPE   H8X 3066   7.390   5.059   5.539 -0.7580 -1.2623  0.0229
   24DOPE   H8Y 3067   7.469   4.910   5.498 -1.2108  0.0641  2.9452
   24DOPE   C39 3068   7.532   5.078   5.376 -0.5600  0.4948  0.0816
   24DOPE   H9X 3069   7.537   5.187   5.375  1.6957  0.5295  2.9098
   24DOPE  C310 3070   7.559   5.014   5.261 -0.4467 -0.4254  0.5735
   24DOPE  H10X 3071   7.568   5.083   5.176 -0.4192  0.5874  1.3805
   24DOPE  C311 3072   7.549   4.863   5.229 -0.3825 -0.1480 -0.3066
   24DOPE  H11X 3073   7.545   4.807   5.325 -0.7935 -3.1402 -1.9728
   24DOPE  H11Y 3074   7.470   4.826   5.161  0.9972  0.7773 -2.5125
   24DOPE  C312 3075   7.677   4.820   5.162  0.8512  0.0096 -0.0763
   24DOPE  H12X 3076   7.668   4.710   5.156  2.3374 -0.1181 -0.2093
   24DOPE  H12Y 3077   7.766   4.830   5.227  0.6371  1.2447  0.0615
   24DOPE  C313 3078   7.713   4.883   5.027  0.0142 -1.0565  0.3552
   24DOPE  H13X 3079   7.618   4.919   4.982  0.1470 -3.2679 -1.9004
   24DOPE  H13Y 3080   7.760   4.983   5.036 -0.9706 -0.4379 -0.9096
   24DOPE  C314 3081   7.778   4.799   4.917 -0.2828  0.0459 -0.1854
   24DOPE  H14X 3082   7.865   4.743   4.957 -0.5465  0.4379  0.9615
   24DOPE  H14Y 3083   7.815   4.873   4.843 -3.6482  0.9695 -1.1566
   24DOPE  C315 3084   7.672   4.700   4.871 -0.8122  0.7602 -0.1523
   24DOPE  H15X 3085   7.593   4.759   4.819 -1.3725  0.1262 -0.0413
   24DOPE  H15Y 3086   7.634   4.646   4.960 -3.5570  1.1464 -0.9858
   24DOPE  C316 3087   7.726   4.588   4.783  0.3022 -0.3023 -0.4056
   24DOPE  H16X 3088   7.646   4.511   4.782 -1.3418  1.3351  0.7658
   24DOPE  H16Y 3089   7.819   4.550   4.831  0.5036  2.4333  1.5851
   24DOPE  C317 3090   7.764   4.627   4.639  0.0322 -0.0340 -0.1660
   24DOPE  H17X 3091   7.664   4.650   4.594  0.3497  2.1246  0.0932
   24DOPE  H17Y 3092   7.832   4.715   4.636 -0.7171  0.6508  1.4224
   24DOPE  C318 3093   7.832   4.519   4.556 -0.2896 -0.2169  0.8673
   24DOPE  H18X 3094   7.933   4.498   4.598 -0.0623 -2.7804 -0.7362
   24DOPE  H18Y 3095   7.771   4.426   4.548 -0.0228 -0.2786 -0.8844
   24DOPE  H18Z 3096   7.844   4.566   4.456 -2.1538  0.7823  1.0631
   25DOPE     N 3097   0.706   5.191   7.118 -0.2578  0.4635  0.0604
   25DOPE   HN1 3098   0.754   5.188   7.210 -2.0591  0.1922  1.0327
   25DOPE   HN2 3099   0.707   5.098   7.072 -2.0127  0.0843  0.7056
   25DOPE   HN3 3100   0.763   5.260   7.064  0.3719 -1.2407 -1.5806
   25DOPE   C12 3101   0.570   5.238   7.126  0.1891 -0.3559 -0.0696
   25DOPE  H12A 3102   0.575   5.341   7.167  0.6971  0.1620 -1.3560
   25DOPE  H12B 3103   0.514   5.171   7.194 -1.6973  1.0065 -0.2118
   25DOPE   C11 3104   0.512   5.238   6.980  0.0280 -0.0743  0.6403
   25DOPE  H11A 3105   0.576   5.301   6.914  0.9932 -1.1624  0.5246
   25DOPE  H11B 3106   0.416   5.295   6.975 -0.8003 -1.5183 -1.0070
   25DOPE     P 3107   0.453   5.072   6.775 -0.3639  0.6557  0.1135
   25DOPE   O13 3108   0.308   5.077   6.754  0.0098  0.1425 -0.0732
   25DOPE   O14 3109   0.516   4.935   6.754  1.2238  0.0247  0.3606
   25DOPE   O11 3110   0.537   5.189   6.699 -0.1063  0.5227 -0.2748
   25DOPE   O12 3111   0.485   5.106   6.929 -0.1955 -0.1118 -0.3552
   25DOPE    C1 3112   0.569   5.181   6.557  0.5118  0.0061 -0.5170
   25DOPE    HA 3113   0.576   5.078   6.516 -0.0494  0.3547 -1.5298
   25DOPE    HB 3114   0.670   5.218   6.528  0.6200 -1.0864 -1.6006
   25DOPE    C2 3115   0.469   5.254   6.474 -0.9300 -0.4634  0.1699
   25DOPE    HS 3116   0.370   5.213   6.504 -0.6237 -1.1997  0.1956
   25DOPE   O21 3117   0.500   5.225   6.335  0.0220 -0.1026  0.2212
   25DOPE   C21 3118   0.400   5.234   6.245  0.3118 -0.0234  0.0245
   25DOPE   O22 3119   0.280   5.262   6.275 -0.0486 -0.2208  0.0984
   25DOPE   C22 3120   0.456   5.219   6.108  0.1499  0.1177  0.4135
   25DOPE   H2R 3121   0.375   5.171   6.049  0.0801  0.9510 -0.1975
   25DOPE   H2S 3122   0.550   5.161   6.107 -0.3294 -0.7140 -1.8736
   25DOPE    C3 3123   0.482   5.395   6.511 -0.1072 -0.3302  0.0149
   25DOPE    HX 3124   0.584   5.428   6.481 -0.6445 -0.5095 -2.1689
   25DOPE    HY 3125   0.473   5.406   6.621 -1.0087  0.0466 -0.0905
   25DOPE   O31 3126   0.394   5.475   6.430  0.3774 -0.1470 -0.0061
   25DOPE   C31 3127   0.270   5.483   6.480 -0.1290 -0.4379 -0.0545
   25DOPE   O32 3128   0.237   5.443   6.591  0.1857 -0.4388 -0.0136
   25DOPE   C32 3129   0.182   5.567   6.391 -0.0678 -0.8582 -0.4323
   25DOPE   H2X 3130   0.121   5.499   6.328  0.9013 -0.6507 -1.6384
   25DOPE   H2Y 3131   0.100   5.616   6.447 -0.3216 -2.3947  0.6144
   25DOPE   C23 3132   0.473   5.358   6.039 -0.3221 -0.8692  0.6799
   25DOPE   H3R 3133   0.535   5.343   5.947 -0.6060  1.9649 -0.0416
   25DOPE   H3S 3134   0.526   5.418   6.116 -0.6684 -0.4341  0.5780
   25DOPE   C24 3135   0.344   5.416   5.983  0.4958  0.4258  0.8249
   25DOPE   H4R 3136   0.358   5.519   5.942  0.4794  0.4565  0.8957
   25DOPE   H4S 3137   0.269   5.425   6.064  0.9591 -0.8348  1.4029
   25DOPE   C25 3138   0.285   5.338   5.863  0.2889  0.1614  0.0937
   25DOPE   H5R 3139   0.178   5.367   5.854  0.9696  2.6883 -1.0048
   25DOPE   H5S 3140   0.294   5.229   5.881 -0.3657  0.1870  0.6107
   25DOPE   C26 3141   0.336   5.389   5.723 -0.1246  0.5347 -0.6074
   25DOPE   H6R 3142   0.443   5.364   5.708 -0.2570 -0.4153 -0.0366
   25DOPE   H6S 3143   0.320   5.496   5.696  1.0474  0.8562 -0.1055
   25DOPE   C27 3144   0.263   5.309   5.617 -0.2711  0.0682 -0.2073
   25DOPE   H7R 3145   0.256   5.202   5.644  1.3679  0.3892  1.7362
   25DOPE   H7S 3146   0.320   5.309   5.522 -0.4916  3.4499 -0.4786
   25DOPE   C28 3147   0.111   5.347   5.594 -0.2696  0.3231  0.0561
   25DOPE   H8R 3148   0.068   5.361   5.695  1.5532 -0.0990  0.9377
   25DOPE   H8S 3149   0.068   5.253   5.551  2.2952 -0.2941 -1.3847
   25DOPE   C29 3150   0.085   5.463   5.506  1.0519 -0.2404 -0.5338
   25DOPE   H9R 3151   0.083   5.555   5.566  0.8053 -0.4220 -0.2612
   25DOPE  C210 3152   0.118   5.477   5.376  0.0348  0.5678 -0.3162
   25DOPE  H10R 3153   0.114   5.577   5.330 -1.9623  1.2701  1.2601
   25DOPE  C211 3154   0.161   5.361   5.283  0.5511 -0.4103  0.4117
   25DOPE  H11R 3155   0.162   5.267   5.342  0.9393 -0.2181  0.7148
   25DOPE  H11S 3156   0.264   5.386   5.249  0.4840 -1.1216 -0.3460
   25DOPE  C212 3157   0.082   5.339   5.150 -0.0374 -0.3430 -0.1825
   25DOPE  H12R 3158  -0.025   5.336   5.181 -0.4628  0.7604 -1.4584
   25DOPE  H12S 3159   0.110   5.243   5.102  0.0758 -0.5523  0.2952
   25DOPE  C213 3160   0.107   5.447   5.044  0.0691 -0.3193  0.1112
   25DOPE  H13R 3161   0.211   5.447   5.004  0.0672  0.2673  0.0947
   25DOPE  H13S 3162   0.091   5.545   5.094  2.2722 -0.0498  0.4060
   25DOPE  C214 3163   0.006   5.445   4.931  0.2835 -0.8587 -0.3716
   25DOPE  H14R 3164  -0.095   5.439   4.978  0.0561  2.9420 -0.0527
   25DOPE  H14S 3165   0.026   5.350   4.878 -0.4779 -1.0826 -0.2701
   25DOPE  C215 3166   0.033   5.560   4.837 -0.0918  0.0370 -0.0263
   25DOPE  H15R 3167   0.128   5.554   4.781 -0.3431  2.6576 -0.8793
   25DOPE  H15S 3168   0.037   5.651   4.899 -0.1729 -0.1799  0.2996
   25DOPE  C216 3169  -0.084   5.570   4.736 -0.2919  0.0910  0.2750
   25DOPE  H16R 3170  -0.058   5.663   4.681 -0.2507  0.6057  1.1555
   25DOPE  H16S 3171  -0.185   5.571   4.782 -0.5284 -0.5712 -0.2013
   25DOPE  C217 3172  -0.082   5.465   4.626 -0.4249 -0.0389 -0.4283
   25DOPE  H17R 3173  -0.112   5.363   4.660  2.2155 -0.9208 -0.5269
   25DOPE  H17S 3174   0.024   5.459   4.593 -0.4320  0.3979 -0.5310
   25DOPE  C218 3175  -0.165   5.513   4.507  0.0365 -0.2568 -0.3264
   25DOPE  H18R 3176  -0.269   5.535   4.541  0.7225  0.8145  1.1828
   25DOPE  H18S 3177  -0.160   5.443   4.421  0.6896 -1.5747  0.7297
   25DOPE  H18T 3178  -0.127   5.611   4.473 -1.2083  0.1129 -0.7068
   25DOPE   C33 3179   0.252   5.660   6.291  0.4570  0.8445 -0.1199
   25DOPE   H3X 3180   0.320   5.602   6.226 -1.2738  0.0105 -1.2746
   25DOPE   H3Y 3181   0.312   5.735   6.347 -0.9343 -0.2237  3.0476
   25DOPE   C34 3182   0.148   5.719   6.202 -0.4284 -0.1591  0.5783
   25DOPE   H4X 3183   0.064   5.646   6.207  0.3613 -1.0263  1.7516
   25DOPE   H4Y 3184   0.112   5.812   6.252  0.4793 -1.0804  3.0926
   25DOPE   C35 3185   0.203   5.759   6.061  0.4765 -0.3852  0.5170
   25DOPE   H5X 3186   0.241   5.671   6.005  1.7022 -0.2426  1.0948
   25DOPE   H5Y 3187   0.289   5.828   6.070  0.2767 -0.2989  1.8690
   25DOPE   C36 3188   0.091   5.817   5.972  0.6011  0.3061 -0.6670
   25DOPE   H6X 3189   0.062   5.921   5.999 -1.8483 -0.6794  0.7201
   25DOPE   H6Y 3190  -0.003   5.766   6.001 -0.2181  1.6383 -0.9095
   25DOPE   C37 3191   0.111   5.810   5.824  0.1871 -0.3586  0.4931
   25DOPE   H7X 3192   0.215   5.847   5.806  0.6250 -2.2930 -1.3648
   25DOPE   H7Y 3193   0.113   5.704   5.791  1.6774  0.1401 -1.1830
   25DOPE   C38 3194   0.019   5.892   5.738 -0.5222  0.2677  0.1467
   25DOPE   H8X 3195   0.067   5.911   5.639  2.9029  2.5493  2.0691
   25DOPE   H8Y 3196   0.008   5.991   5.786 -1.0043 -0.4079  1.4568
   25DOPE   C39 3197  -0.114   5.822   5.718 -0.6036 -0.7163 -0.0672
   25DOPE   H9X 3198  -0.106   5.729   5.660  0.2321 -1.4073  1.1193
   25DOPE  C310 3199  -0.239   5.857   5.763  0.6163  0.3132  0.1131
   25DOPE  H10X 3200  -0.314   5.776   5.757  2.3657 -1.6645  2.6990
   25DOPE  C311 3201  -0.271   5.976   5.847  0.7543 -0.1308 -0.2881
   25DOPE  H11X 3202  -0.363   5.954   5.906  2.8112 -0.1712  3.1667
   25DOPE  H11Y 3203  -0.189   6.004   5.916  1.7891  1.2878 -2.0133
   25DOPE  C312 3204  -0.275   6.110   5.765 -0.7651  0.0831  0.2037
   25DOPE  H12X 3205  -0.174   6.122   5.722 -0.3418  0.8168  1.3400
   25DOPE  H12Y 3206  -0.305   6.205   5.816  3.6201  0.7640  1.9203
   25DOPE  C313 3207  -0.376   6.098   5.648 -0.2536 -0.5402 -0.3937
   25DOPE  H13X 3208  -0.341   6.015   5.584 -0.1707 -2.9269  2.4987
   25DOPE  H13Y 3209  -0.476   6.056   5.673 -0.8757  1.3465  0.5520
   25DOPE  C314 3210  -0.385   6.229   5.564 -0.3007 -0.3069  0.2695
   25DOPE  H14X 3211  -0.286   6.262   5.527 -0.8112  4.0331  2.1359
   25DOPE  H14Y 3212  -0.426   6.312   5.626 -0.6055  0.7148 -1.2383
   25DOPE  C315 3213  -0.476   6.218   5.441 -0.9619  0.0125 -0.8945
   25DOPE  H15X 3214  -0.577   6.190   5.477  0.1964 -2.2407  0.9137
   25DOPE  H15Y 3215  -0.438   6.137   5.375 -0.0603  0.5130 -1.0087
   25DOPE  C316 3216  -0.483   6.343   5.353 -1.1521 -0.3828 -0.0228
   25DOPE  H16X 3217  -0.557   6.328   5.272 -0.0030 -0.4119 -1.1095
   25DOPE  H16Y 3218  -0.385   6.372   5.308 -1.7652  3.0808  0.5693
   25DOPE  C317 3219  -0.534   6.473   5.420 -0.1958 -0.2740  0.4563
   25DOPE  H17X 3220  -0.471   6.505   5.506 -1.4047  1.1361  0.8606
   25DOPE  H17Y 3221  -0.542   6.553   5.343 -0.6507 -0.7753 -0.0222
   25DOPE  C318 3222  -0.673   6.476   5.483 -0.6413 -0.0277  0.5447
   25DOPE  H18X 3223  -0.754   6.451   5.411  1.2580  2.3830 -2.6966
   25DOPE  H18Y 3224  -0.662   6.411   5.572  2.6517  0.3498  0.5040
   25DOPE  H18Z 3225  -0.711   6.576   5.516 -2.2334  0.4368 -2.3639
   26DOPE     N 3226   0.047   7.157   6.628 -0.5017 -0.7262 -0.2192
   26DOPE   HN1 3227  -0.053   7.141   6.654 -0.5523  0.4406  0.4129
   26DOPE   HN2 3228   0.051   7.256   6.596 -0.0887 -0.8571 -0.5660
   26DOPE   HN3 3229   0.071   7.096   6.548  0.5886 -0.4109 -0.1474
   26DOPE   C12 3230   0.135   7.142   6.752  0.2206 -0.2506 -0.0121
   26DOPE  H12A 3231   0.128   7.237   6.811 -2.5356 -0.6877  0.4952
   26DOPE  H12B 3232   0.237   7.125   6.713  0.3679 -0.3691  0.4195
   26DOPE   C11 3233   0.090   7.020   6.836  0.3473  0.5241 -0.2085
   26DOPE  H11A 3234  -0.020   7.025   6.855  0.4502 -0.0102  0.5372
   26DOPE  H11B 3235   0.151   7.021   6.929  1.1238  2.9086 -0.6759
   26DOPE     P 3236   0.150   6.771   6.817 -0.2860  0.0051 -0.3252
   26DOPE   O13 3237   0.107   6.657   6.734 -0.0555  0.6727  0.1509
   26DOPE   O14 3238   0.094   6.769   6.954 -0.5280 -0.1383 -0.2871
   26DOPE   O11 3239   0.311   6.777   6.826 -0.2500 -0.2822  0.0166
   26DOPE   O12 3240   0.119   6.908   6.750  0.1262 -0.3191 -0.6276
   26DOPE    C1 3241   0.382   6.835   6.714 -0.6501  0.4430  0.2783
   26DOPE    HA 3242   0.490   6.844   6.739 -0.4578 -0.3536 -0.2170
   26DOPE    HB 3243   0.347   6.937   6.686  0.2927 -0.1934 -3.9261
   26DOPE    C2 3244   0.374   6.758   6.581 -0.1745  0.2409 -0.4445
   26DOPE    HS 3245   0.272   6.717   6.567  0.1699  0.0210 -2.8075
   26DOPE   O21 3246   0.465   6.648   6.589 -0.0957 -0.6114  0.0394
   26DOPE   C21 3247   0.438   6.543   6.511  0.0690  0.4893 -0.3230
   26DOPE   O22 3248   0.340   6.529   6.437  0.0556 -0.4513 -0.4518
   26DOPE   C22 3249   0.553   6.443   6.530  1.4050 -0.4399 -0.2858
   26DOPE   H2R 3250   0.514   6.363   6.596  2.2972 -0.4838  0.2066
   26DOPE   H2S 3251   0.634   6.501   6.579  2.0219 -0.4616 -1.2500
   26DOPE    C3 3252   0.408   6.839   6.457 -0.0018 -0.2553  0.1944
   26DOPE    HX 3253   0.516   6.864   6.455 -0.2702  0.9223 -0.3689
   26DOPE    HY 3254   0.365   6.941   6.467 -1.9069 -1.0173  0.2413
   26DOPE   O31 3255   0.367   6.774   6.332  0.3010  0.1802 -0.4839
   26DOPE   C31 3256   0.471   6.725   6.255  0.4408 -0.2536  0.0518
   26DOPE   O32 3257   0.586   6.741   6.286  0.5641  0.1152  0.2142
   26DOPE   C32 3258   0.419   6.672   6.124 -0.2699  0.8135  0.2241
   26DOPE   H2X 3259   0.467   6.572   6.127 -0.1957  0.8497  2.7025
   26DOPE   H2Y 3260   0.309   6.660   6.128 -0.3195  1.2983  0.4274
   26DOPE   C23 3261   0.604   6.387   6.396 -0.1941  0.1539  0.4474
   26DOPE   H3R 3262   0.703   6.347   6.426  1.2312  1.9167 -1.6141
   26DOPE   H3S 3263   0.606   6.475   6.328  0.8626  0.7003  1.1466
   26DOPE   C24 3264   0.520   6.279   6.328 -0.9221  0.2464  0.0828
   26DOPE   H4R 3265   0.415   6.309   6.305 -2.2131 -3.8980 -0.3551
   26DOPE   H4S 3266   0.500   6.184   6.383  0.3935 -0.8807 -1.2968
   26DOPE   C25 3267   0.586   6.248   6.197 -0.2333  0.7184 -0.0170
   26DOPE   H5R 3268   0.668   6.175   6.214  0.2479  1.1325 -0.5277
   26DOPE   H5S 3269   0.648   6.331   6.157  1.5423 -0.1643  0.7850
   26DOPE   C26 3270   0.495   6.181   6.099 -0.2072  0.7332 -0.0216
   26DOPE   H6R 3271   0.407   6.249   6.098  1.6605  3.2851 -1.4219
   26DOPE   H6S 3272   0.472   6.077   6.129 -0.6471  0.6392 -0.6595
   26DOPE   C27 3273   0.543   6.172   5.955 -0.4308 -0.5791  0.0866
   26DOPE   H7R 3274   0.619   6.092   5.941  1.8497  1.5871 -0.6091
   26DOPE   H7S 3275   0.600   6.266   5.936  2.2448 -1.8565  1.2418
   26DOPE   C28 3276   0.432   6.139   5.850  0.3205  0.3223  0.2812
   26DOPE   H8R 3277   0.361   6.063   5.889 -0.1446  0.5766 -0.0448
   26DOPE   H8S 3278   0.487   6.100   5.761 -0.4241  1.5079 -0.7470
   26DOPE   C29 3279   0.345   6.258   5.815 -0.9011 -0.5470  0.4960
   26DOPE   H9R 3280   0.314   6.321   5.899 -0.0646 -0.0380  0.4439
   26DOPE  C210 3281   0.309   6.300   5.692 -0.5546  0.0432  0.2000
   26DOPE  H10R 3282   0.236   6.382   5.692  0.3454  0.8550 -0.0248
   26DOPE  C211 3283   0.332   6.235   5.563  0.4994  0.0929  0.1131
   26DOPE  H11R 3284   0.234   6.194   5.530 -1.1513  1.7552  2.6530
   26DOPE  H11S 3285   0.396   6.144   5.566 -0.6535 -0.7221  2.3547
   26DOPE  C212 3286   0.404   6.319   5.462  0.1587  0.0471 -0.4879
   26DOPE  H12R 3287   0.512   6.331   5.483  0.3566  0.9785 -1.8730
   26DOPE  H12S 3288   0.362   6.422   5.453  0.6481  0.3243  0.3629
   26DOPE  C213 3289   0.403   6.242   5.326  0.0278 -0.4110  0.0904
   26DOPE  H13R 3290   0.298   6.215   5.299 -0.7033  1.0476  1.3036
   26DOPE  H13S 3291   0.455   6.146   5.346 -1.8551 -1.3410  0.8029
   26DOPE  C214 3292   0.458   6.322   5.203 -0.4518  0.0282 -0.4535
   26DOPE  H14R 3293   0.565   6.297   5.188 -0.2690  1.5675 -2.0037
   26DOPE  H14S 3294   0.459   6.432   5.216  1.6553  0.0275 -0.2124
   26DOPE  C215 3295   0.386   6.293   5.072  0.2373  0.1881 -0.2798
   26DOPE  H15R 3296   0.429   6.352   4.988 -1.3614  0.7233 -0.7601
   26DOPE  H15S 3297   0.287   6.343   5.073  0.0123 -0.1716 -1.6515
   26DOPE  C216 3298   0.383   6.146   5.028  0.0368  0.5259 -0.3142
   26DOPE  H16R 3299   0.399   6.078   5.114 -0.7016  0.2253 -0.4093
   26DOPE  H16S 3300   0.474   6.121   4.969  0.7760 -2.0925  1.7609
   26DOPE  C217 3301   0.270   6.100   4.941  0.0076  0.6471 -0.6491
   26DOPE  H17R 3302   0.281   6.133   4.836 -0.4198 -2.5399 -1.8191
   26DOPE  H17S 3303   0.177   6.146   4.981 -1.5549 -1.7001 -1.3771
   26DOPE  C218 3304   0.240   5.949   4.922  0.9585 -0.5873  0.2118
   26DOPE  H18R 3305   0.225   5.897   5.019 -2.5264  1.2667  0.8394
   26DOPE  H18S 3306   0.325   5.903   4.867  1.2566  0.3257 -0.1068
   26DOPE  H18T 3307   0.149   5.948   4.858  1.1593 -0.6724 -0.0748
   26DOPE   C33 3308   0.453   6.760   6.003 -0.5598  0.1659  0.4069
   26DOPE   H3X 3309   0.561   6.743   5.982 -0.5272  0.9483 -0.0898
   26DOPE   H3Y 3310   0.418   6.865   6.005 -2.3075 -0.3426 -0.6973
   26DOPE   C34 3311   0.384   6.700   5.876 -0.1027  0.1775  0.3318
   26DOPE   H4X 3312   0.423   6.598   5.861  1.8532  0.8999  0.2821
   26DOPE   H4Y 3313   0.278   6.702   5.912  0.2624  1.4214  1.4312
   26DOPE   C35 3314   0.403   6.787   5.750 -0.0176  0.5219 -0.8864
   26DOPE   H5X 3315   0.501   6.839   5.743 -0.5700  1.7343 -0.0085
   26DOPE   H5Y 3316   0.333   6.873   5.760  0.1928  0.6923 -0.8629
   26DOPE   C36 3317   0.358   6.709   5.622 -0.2644 -0.2264 -0.0865
   26DOPE   H6X 3318   0.256   6.665   5.626  0.5106 -2.3148 -1.4772
   26DOPE   H6Y 3319   0.426   6.621   5.625 -0.3488 -0.2686  0.7678
   26DOPE   C37 3320   0.389   6.788   5.498  0.0176 -0.1428  1.2313
   26DOPE   H7X 3321   0.311   6.867   5.488 -0.7892 -1.2118 -2.1231
   26DOPE   H7Y 3322   0.485   6.843   5.502  1.0437 -1.5715 -1.3635
   26DOPE   C38 3323   0.377   6.705   5.362 -1.0669 -0.3196  0.1274
   26DOPE   H8X 3324   0.282   6.648   5.366  0.3367 -2.7216  2.2239
   26DOPE   H8Y 3325   0.459   6.632   5.351  1.9294  3.0078 -1.8609
   26DOPE   C39 3326   0.389   6.805   5.246  0.3030  0.1696  0.7322
   26DOPE   H9X 3327   0.485   6.859   5.234  0.1703  0.2875  0.1550
   26DOPE  C310 3328   0.308   6.804   5.139 -0.2871  0.0225  0.2886
   26DOPE  H10X 3329   0.349   6.862   5.056  0.9299 -1.1986  0.0103
   26DOPE  C311 3330   0.190   6.722   5.107 -0.0761 -0.3279  0.1965
   26DOPE  H11X 3331   0.169   6.657   5.195  4.0818 -0.7098  1.1258
   26DOPE  H11Y 3332   0.104   6.790   5.096  0.3656  0.4348  1.2862
   26DOPE  C312 3333   0.205   6.640   4.972 -0.6797 -0.6946  0.1247
   26DOPE  H12X 3334   0.303   6.589   4.977 -0.2769  0.1762  1.7705
   26DOPE  H12Y 3335   0.205   6.709   4.885 -2.0341 -0.8066  0.0092
   26DOPE  C313 3336   0.083   6.555   4.953 -0.2423 -0.9190 -0.3326
   26DOPE  H13X 3337   0.056   6.488   5.038 -1.7294 -0.6767 -0.5839
   26DOPE  H13Y 3338  -0.003   6.625   4.954  1.0760  0.8759 -3.0035
   26DOPE  C314 3339   0.098   6.475   4.826  0.6072 -0.3441 -0.3895
   26DOPE  H14X 3340   0.180   6.400   4.831  2.1275  1.0528 -2.7804
   26DOPE  H14Y 3341   0.123   6.529   4.732  1.1653  1.5537  0.7865
   26DOPE  C315 3342  -0.037   6.396   4.806  0.4102  0.3673 -0.0685
   26DOPE  H15X 3343  -0.105   6.449   4.735 -0.1037  2.1185  1.6351
   26DOPE  H15Y 3344  -0.090   6.389   4.903  3.7620  1.1326  1.9779
   26DOPE  C316 3345  -0.017   6.257   4.759  0.1131 -0.0843 -0.3675
   26DOPE  H16X 3346  -0.116   6.208   4.748  0.0702  0.2700 -1.7533
   26DOPE  H16Y 3347   0.043   6.192   4.827  2.0419 -0.7082 -2.5419
   26DOPE  C317 3348   0.054   6.250   4.627 -0.4540 -0.3131  0.0956
   26DOPE  H17X 3349   0.014   6.332   4.564  0.2572  1.0362  1.3427
   26DOPE  H17Y 3350   0.164   6.260   4.628 -0.1390 -2.4335 -2.2760
   26DOPE  C318 3351   0.039   6.111   4.571 -0.4780  0.3509  0.6579
   26DOPE  H18X 3352  -0.068   6.087   4.555 -0.2726  0.2722 -0.7337
   26DOPE  H18Y 3353   0.095   6.114   4.475 -3.1489  0.5401 -1.0200
   26DOPE  H18Z 3354   0.088   6.039   4.638 -2.7275 -0.9111  1.0475
   27DOPE     N 3355   7.116   5.694   6.533  0.2597  0.2322  0.0989
   27DOPE   HN1 3356   7.122   5.596   6.568  1.2472  0.4764  0.6438
   27DOPE   HN2 3357   7.026   5.707   6.482  0.8398  2.2272 -0.5173
   27DOPE   HN3 3358   7.197   5.713   6.471  0.3209 -1.0849 -0.2557
   27DOPE   C12 3359   7.121   5.791   6.648 -0.4277  0.3133 -0.0198
   27DOPE  H12A 3360   7.077   5.891   6.627 -0.1360  0.2935 -0.7572
   27DOPE  H12B 3361   7.227   5.812   6.676  0.3415  2.0274 -3.6745
   27DOPE   C11 3362   7.062   5.727   6.774 -0.6166 -0.2436  0.0837
   27DOPE  H11A 3363   7.084   5.788   6.864 -2.8890  0.0672  0.4875
   27DOPE  H11B 3364   7.116   5.632   6.798 -1.6554 -0.7450  0.5085
   27DOPE     P 3365   6.815   5.771   6.858 -0.2674 -0.0907 -0.2103
   27DOPE   O13 3366   6.761   5.881   6.779  0.2953  0.8571  0.6072
   27DOPE   O14 3367   6.874   5.808   6.992  0.1832 -0.5402 -0.2684
   27DOPE   O11 3368   6.713   5.657   6.880 -0.2625  0.2793  0.1052
   27DOPE   O12 3369   6.923   5.703   6.765 -0.2742  0.3435 -0.0292
   27DOPE    C1 3370   6.733   5.527   6.831  0.1559  0.2394 -0.2423
   27DOPE    HA 3371   6.667   5.452   6.879  0.3443 -1.1417 -2.0610
   27DOPE    HB 3372   6.839   5.494   6.845  0.2817  0.2963 -1.0284
   27DOPE    C2 3373   6.682   5.511   6.688 -0.4108  0.0290  0.1922
   27DOPE    HS 3374   6.707   5.610   6.645 -1.5487  0.7523  1.1587
   27DOPE   O21 3375   6.547   5.495   6.689  0.0049  0.7453  0.0250
   27DOPE   C21 3376   6.459   5.593   6.690  0.2400  0.9431  0.1278
   27DOPE   O22 3377   6.491   5.708   6.690  0.5617  0.0798 -0.1727
   27DOPE   C22 3378   6.315   5.533   6.683  0.2019 -0.3341 -0.1857
   27DOPE   H2R 3379   6.257   5.591   6.758  2.0345 -0.9114  1.7514
   27DOPE   H2S 3380   6.321   5.427   6.714  0.5395 -0.1111  0.5164
   27DOPE    C3 3381   6.753   5.396   6.605 -0.3269 -0.2740  0.1851
   27DOPE    HX 3382   6.718   5.303   6.655  0.4178  0.5300  2.3030
   27DOPE    HY 3383   6.863   5.398   6.620 -0.6030  0.5921  2.4846
   27DOPE   O31 3384   6.718   5.401   6.466  0.4396 -0.4791  0.3126
   27DOPE   C31 3385   6.798   5.480   6.399  0.0130 -0.9057  1.0290
   27DOPE   O32 3386   6.882   5.554   6.446 -0.0161 -0.2584  0.3562
   27DOPE   C32 3387   6.766   5.465   6.251 -0.4166  0.0517  0.1526
   27DOPE   H2X 3388   6.778   5.358   6.227  0.1568 -0.0711  0.9574
   27DOPE   H2Y 3389   6.656   5.475   6.235 -0.3774  0.9314  0.3793
   27DOPE   C23 3390   6.248   5.545   6.550  0.6931  0.2665  0.9054
   27DOPE   H3R 3391   6.151   5.491   6.553  0.6742  0.1300 -0.9381
   27DOPE   H3S 3392   6.299   5.486   6.472  0.9392  0.7277  0.7110
   27DOPE   C24 3393   6.207   5.688   6.502  0.3050 -1.2996 -0.6141
   27DOPE   H4R 3394   6.235   5.760   6.582  1.5415  0.5773 -2.6421
   27DOPE   H4S 3395   6.098   5.692   6.480  0.5635  2.2072 -1.8331
   27DOPE   C25 3396   6.282   5.745   6.379 -0.4814 -0.5978 -0.2399
   27DOPE   H5R 3397   6.267   5.679   6.291  1.0320  0.5343 -1.4261
   27DOPE   H5S 3398   6.389   5.742   6.411 -0.9543 -1.5288  1.3406
   27DOPE   C26 3399   6.234   5.888   6.364 -0.6212  0.4535  0.9750
   27DOPE   H6R 3400   6.211   5.926   6.466 -0.2479 -1.0183  1.6365
   27DOPE   H6S 3401   6.138   5.883   6.308 -0.5991  0.5993  0.9232
   27DOPE   C27 3402   6.322   5.987   6.295 -0.2087  0.2652  0.1659
   27DOPE   H7R 3403   6.365   5.948   6.200 -2.7935 -1.3315 -0.4473
   27DOPE   H7S 3404   6.407   6.017   6.361 -0.5946  2.3793 -0.2050
   27DOPE   C28 3405   6.253   6.125   6.290  0.1296  0.3157  0.7804
   27DOPE   H8R 3406   6.319   6.205   6.251  0.8468 -1.0219 -0.8602
   27DOPE   H8S 3407   6.219   6.165   6.388 -1.0317  0.2924  0.3985
   27DOPE   C29 3408   6.128   6.111   6.210  0.3735  0.6019  0.0411
   27DOPE   H9R 3409   6.039   6.068   6.257  0.9136 -2.0395 -1.1949
   27DOPE  C210 3410   6.108   6.155   6.085  0.3707 -0.5550  0.4979
   27DOPE  H10R 3411   6.013   6.136   6.031  1.7801 -2.1210 -1.5874
   27DOPE  C211 3412   6.215   6.224   5.999  0.3869  0.0053 -0.4229
   27DOPE  H11R 3413   6.229   6.174   5.901 -2.8996 -0.2111 -0.8896
   27DOPE  H11S 3414   6.313   6.204   6.047  0.1329  2.8108  1.5220
   27DOPE  C212 3415   6.190   6.371   5.985 -0.1110 -0.5491 -0.0015
   27DOPE  H12R 3416   6.184   6.429   6.080 -0.0652 -1.3581  0.5060
   27DOPE  H12S 3417   6.090   6.391   5.943  0.3142 -1.5527 -1.5631
   27DOPE  C213 3418   6.300   6.449   5.913  0.1101 -0.0906 -0.5352
   27DOPE  H13R 3419   6.265   6.553   5.898  0.9947  0.6182  1.8581
   27DOPE  H13S 3420   6.307   6.417   5.807  1.4146 -1.0899 -0.1713
   27DOPE  C214 3421   6.434   6.454   5.982  0.3384  0.3033 -0.1391
   27DOPE  H14R 3422   6.481   6.356   5.960 -0.1539 -0.2657  1.2124
   27DOPE  H14S 3423   6.435   6.478   6.091 -0.7465 -2.7228  0.6347
   27DOPE  C215 3424   6.529   6.556   5.921  0.0239 -0.7817  0.2877
   27DOPE  H15R 3425   6.471   6.651   5.932 -0.3215 -0.5980 -2.3899
   27DOPE  H15S 3426   6.527   6.550   5.810 -0.1189 -1.6448  0.3354
   27DOPE  C216 3427   6.660   6.546   5.989 -0.1352  0.2578 -0.0630
   27DOPE  H16R 3428   6.708   6.448   5.967  0.7236  0.7711 -0.5413
   27DOPE  H16S 3429   6.649   6.567   6.098  0.2974 -0.2560  0.0860
   27DOPE  C217 3430   6.756   6.655   5.948  0.7995 -0.0822  0.0680
   27DOPE  H17R 3431   6.792   6.653   5.842 -0.2457  1.5471 -0.3455
   27DOPE  H17S 3432   6.841   6.651   6.019 -0.6399 -1.4037  1.8146
   27DOPE  C218 3433   6.706   6.801   5.964  0.6206  0.1402 -0.1552
   27DOPE  H18R 3434   6.790   6.872   5.948 -0.5059  1.7023  0.6427
   27DOPE  H18S 3435   6.676   6.833   6.066 -0.1290  1.0320 -0.6457
   27DOPE  H18T 3436   6.629   6.824   5.888  0.8340  1.4289 -0.0084
   27DOPE   C33 3437   6.845   5.561   6.162  0.2903 -1.0100  0.2100
   27DOPE   H3X 3438   6.955   5.545   6.171  0.5033  0.6289  0.7656
   27DOPE   H3Y 3439   6.808   5.661   6.191 -1.2595 -0.4442 -3.1839
   27DOPE   C34 3440   6.803   5.552   6.013  0.3101 -0.3526  1.1990
   27DOPE   H4X 3441   6.821   5.449   5.976  0.1509  0.4136 -1.1801
   27DOPE   H4Y 3442   6.701   5.597   6.016  0.1193 -0.6646  0.0416
   27DOPE   C35 3443   6.890   5.625   5.904  0.5305  0.2020  0.3896
   27DOPE   H5X 3444   6.990   5.578   5.901  0.9371  1.0936 -2.3600
   27DOPE   H5Y 3445   6.897   5.734   5.925 -0.9614  0.2278  0.9109
   27DOPE   C36 3446   6.839   5.602   5.762  0.3124  0.1911  0.2055
   27DOPE   H6X 3447   6.743   5.655   5.745  0.0604 -0.3309 -0.0126
   27DOPE   H6Y 3448   6.811   5.495   5.752  0.3979  0.2483 -0.8096
   27DOPE   C37 3449   6.946   5.646   5.666 -0.6114 -0.0993  0.0041
   27DOPE   H7X 3450   6.977   5.749   5.695 -1.8583  0.7984 -1.6413
   27DOPE   H7Y 3451   7.032   5.576   5.671 -1.2759 -1.0882 -1.5300
   27DOPE   C38 3452   6.888   5.634   5.527  0.2171 -0.4515 -0.0607
   27DOPE   H8X 3453   6.783   5.671   5.518  0.6148  0.2252 -3.3855
   27DOPE   H8Y 3454   6.877   5.531   5.485 -3.0826  0.6009 -2.2282
   27DOPE   C39 3455   6.964   5.725   5.430  0.3242 -0.4265  0.4650
   27DOPE   H9X 3456   7.026   5.677   5.352  0.4932  1.4410 -0.6032
   27DOPE  C310 3457   6.954   5.862   5.423  0.2239 -0.4963  0.4786
   27DOPE  H10X 3458   7.015   5.909   5.345  0.3236 -2.0046 -0.3800
   27DOPE  C311 3459   6.872   5.944   5.519  0.2146 -0.6086  0.1953
   27DOPE  H11X 3460   6.782   5.886   5.546  0.8869 -0.3303  3.5026
   27DOPE  H11Y 3461   6.930   5.978   5.608  2.6138 -1.0861 -1.0793
   27DOPE  C312 3462   6.835   6.073   5.440  0.4465 -0.4170 -1.1587
   27DOPE  H12X 3463   6.782   6.050   5.345  0.3242 -2.7607 -0.5738
   27DOPE  H12Y 3464   6.920   6.143   5.424 -0.2485  0.9818  0.8136
   27DOPE  C313 3465   6.737   6.163   5.520 -0.1254  0.5267  0.8862
   27DOPE  H13X 3466   6.649   6.097   5.536  0.3268 -1.3374 -3.1197
   27DOPE  H13Y 3467   6.793   6.189   5.613  0.3548 -1.8601  1.3552
   27DOPE  C314 3468   6.690   6.285   5.455  0.1507 -0.5077 -0.1547
   27DOPE  H14X 3469   6.610   6.268   5.379 -0.6370  1.2435  0.2253
   27DOPE  H14Y 3470   6.775   6.323   5.396  1.8651 -3.7107  0.0143
   27DOPE  C315 3471   6.642   6.394   5.550  0.3305 -0.1979 -0.4740
   27DOPE  H15X 3472   6.737   6.433   5.591  0.6639 -0.5475 -0.9169
   27DOPE  H15Y 3473   6.565   6.364   5.625 -1.3318  3.4793 -0.4797
   27DOPE  C316 3474   6.576   6.513   5.471  0.4323 -0.1378 -0.9486
   27DOPE  H16X 3475   6.490   6.486   5.406 -0.5104 -1.4280  0.7419
   27DOPE  H16Y 3476   6.662   6.533   5.404  0.6933 -1.5416 -1.0693
   27DOPE  C317 3477   6.526   6.628   5.563  0.6904  0.6335  0.2492
   27DOPE  H17X 3478   6.440   6.591   5.622  0.8255  0.0826  0.1133
   27DOPE  H17Y 3479   6.605   6.652   5.638  0.2407 -1.1752  1.3763
   27DOPE  C318 3480   6.493   6.759   5.481  0.5348 -0.2776 -0.1554
   27DOPE  H18X 3481   6.589   6.798   5.440  0.6547  0.5753  0.9005
   27DOPE  H18Y 3482   6.424   6.740   5.397 -2.1747  0.4422  1.7782
   27DOPE  H18Z 3483   6.455   6.842   5.544 -1.4871 -0.6391 -0.8299
   28DOPE     N 3484   7.628   6.471   6.592 -0.5131 -0.6613 -0.5521
   28DOPE   HN1 3485   7.547   6.536   6.592 -0.2264 -0.3056 -0.7400
   28DOPE   HN2 3486   7.694   6.507   6.663 -0.9926 -1.9074  0.5685
   28DOPE   HN3 3487   7.669   6.475   6.496  3.2740  0.8870  0.9517
   28DOPE   C12 3488   7.589   6.335   6.641  0.2929 -0.3645  0.3369
   28DOPE  H12A 3489   7.542   6.342   6.741 -1.8415  0.0870 -0.6323
   28DOPE  H12B 3490   7.682   6.274   6.643  0.7120  0.2809  1.0865
   28DOPE   C11 3491   7.486   6.260   6.554 -0.3379 -0.4818  0.2769
   28DOPE  H11A 3492   7.506   6.152   6.538  0.5126 -0.0891 -1.6997
   28DOPE  H11B 3493   7.493   6.290   6.447  1.0809 -2.5983 -0.2975
   28DOPE     P 3494   7.249   6.184   6.637 -0.0244 -0.1187 -0.5728
   28DOPE   O13 3495   7.112   6.243   6.618 -0.5685 -0.1411 -0.0106
   28DOPE   O14 3496   7.295   6.135   6.770 -0.4532  0.0345 -0.2678
   28DOPE   O11 3497   7.272   6.064   6.533 -0.4789  0.0926 -0.2601
   28DOPE   O12 3498   7.357   6.288   6.596 -0.0613 -0.2670  0.3950
   28DOPE    C1 3499   7.225   6.071   6.397  0.0577  0.1940 -0.4627
   28DOPE    HA 3500   7.241   6.170   6.348 -1.3173  0.0362 -1.2570
   28DOPE    HB 3501   7.118   6.044   6.393  0.1748 -0.2893 -0.2960
   28DOPE    C2 3502   7.297   5.973   6.313 -0.0585  0.7732 -0.0500
   28DOPE    HS 3503   7.327   5.889   6.379 -0.8015  0.4510 -0.1060
   28DOPE   O21 3504   7.412   6.042   6.265 -0.5406 -0.4734 -0.0961
   28DOPE   C21 3505   7.526   5.983   6.271 -0.5338 -0.3939  0.9049
   28DOPE   O22 3506   7.545   5.868   6.303  0.4440 -0.1409 -0.4101
   28DOPE   C22 3507   7.641   6.084   6.239  0.5238 -0.5684  0.1637
   28DOPE   H2R 3508   7.728   6.032   6.195  1.6008 -0.2924  1.8815
   28DOPE   H2S 3509   7.679   6.126   6.334 -0.8657 -1.7147  1.2711
   28DOPE    C3 3510   7.209   5.926   6.199 -0.4833  0.0566  0.2904
   28DOPE    HX 3511   7.186   6.012   6.132 -0.2589 -0.3359 -0.3016
   28DOPE    HY 3512   7.108   5.896   6.236 -1.0167  1.3098 -0.0841
   28DOPE   O31 3513   7.266   5.823   6.115  0.0037 -0.3405  0.4274
   28DOPE   C31 3514   7.287   5.704   6.167 -0.4478 -0.5196 -0.3078
   28DOPE   O32 3515   7.238   5.664   6.272  0.1440 -0.5004  0.4708
   28DOPE   C32 3516   7.379   5.631   6.070  1.2922  0.8226 -0.4591
   28DOPE   H2X 3517   7.450   5.702   6.022  0.6497  1.5048 -0.4077
   28DOPE   H2Y 3518   7.430   5.551   6.128  0.7659  0.2858 -0.7152
   28DOPE   C23 3519   7.596   6.215   6.159 -0.2038  1.0157  0.0179
   28DOPE   H3R 3520   7.551   6.297   6.219  0.5804 -0.6632  3.1022
   28DOPE   H3S 3521   7.516   6.190   6.086  0.3060 -0.6283 -0.0186
   28DOPE   C24 3522   7.713   6.266   6.071  0.3176 -0.1320  0.2330
   28DOPE   H4R 3523   7.728   6.192   5.990  1.0407  0.4057 -0.1335
   28DOPE   H4S 3524   7.804   6.249   6.131 -0.5990 -0.0451  1.6900
   28DOPE   C25 3525   7.702   6.409   6.017  1.1013  0.2210  1.0366
   28DOPE   H5R 3526   7.801   6.455   5.997  0.7919 -0.0631 -1.4664
   28DOPE   H5S 3527   7.645   6.470   6.090 -0.7524  1.7701 -1.5505
   28DOPE   C26 3528   7.618   6.402   5.888 -0.5617  0.6698  0.2218
   28DOPE   H6R 3529   7.525   6.345   5.911  0.1767 -1.5980 -1.9878
   28DOPE   H6S 3530   7.679   6.348   5.813 -1.4420 -0.8191  0.5177
   28DOPE   C27 3531   7.579   6.534   5.835 -0.4380  0.0984 -0.0007
   28DOPE   H7R 3532   7.672   6.587   5.809 -1.2269  0.5247 -2.1602
   28DOPE   H7S 3533   7.525   6.580   5.921 -1.0510 -3.1833  1.5328
   28DOPE   C28 3534   7.492   6.537   5.710 -0.5493  0.2402  0.6617
   28DOPE   H8R 3535   7.460   6.642   5.690 -0.2632  0.2917  0.4554
   28DOPE   H8S 3536   7.396   6.486   5.730  0.0512 -0.9027  0.6812
   28DOPE   C29 3537   7.569   6.476   5.591 -0.4132 -0.0819  0.2089
   28DOPE   H9R 3538   7.602   6.372   5.604 -1.7281 -0.4409  0.8610
   28DOPE  C210 3539   7.647   6.560   5.515 -0.3270  0.4174  0.5242
   28DOPE  H10R 3540   7.725   6.527   5.445  0.4274  1.6733  0.7433
   28DOPE  C211 3541   7.640   6.707   5.508 -0.3442  0.0412  0.4132
   28DOPE  H11R 3542   7.735   6.745   5.465  0.1333 -0.7879  0.7114
   28DOPE  H11S 3543   7.641   6.759   5.606  1.0530 -1.6684  1.3669
   28DOPE  C212 3544   7.515   6.751   5.423 -0.3603  0.1691 -0.8863
   28DOPE  H12R 3545   7.420   6.725   5.474  0.5694 -0.1361  0.7520
   28DOPE  H12S 3546   7.510   6.688   5.331 -0.4472 -2.4312  0.7898
   28DOPE  C213 3547   7.521   6.901   5.400  0.0510 -0.2425 -0.2695
   28DOPE  H13R 3548   7.609   6.905   5.333  1.3181 -0.9622  1.2846
   28DOPE  H13S 3549   7.549   6.948   5.496 -1.2545  1.5207 -0.7072
   28DOPE  C214 3550   7.393   6.963   5.346 -0.2245 -0.6473  0.7295
   28DOPE  H14R 3551   7.300   6.957   5.406 -1.1506 -1.1113 -0.7054
   28DOPE  H14S 3552   7.376   6.900   5.256 -0.2595  1.5845 -0.9019
   28DOPE  C215 3553   7.413   7.098   5.272  0.6206  0.3414 -0.2460
   28DOPE  H15R 3554   7.325   7.136   5.216  0.5430 -0.2223 -0.5050
   28DOPE  H15S 3555   7.496   7.092   5.199  1.9652 -0.6957  1.2912
   28DOPE  C216 3556   7.432   7.214   5.365 -0.0894  0.0598 -0.5848
   28DOPE  H16R 3557   7.512   7.184   5.437  1.5867 -0.4991 -2.5789
   28DOPE  H16S 3558   7.344   7.224   5.432 -0.8220 -2.0553 -1.1798
   28DOPE  C217 3559   7.463   7.348   5.290  1.0907 -0.3135 -0.3428
   28DOPE  H17R 3560   7.369   7.386   5.244  0.8784  0.8305  0.9756
   28DOPE  H17S 3561   7.524   7.330   5.199  1.5945  0.4011 -0.1627
   28DOPE  C218 3562   7.518   7.465   5.377 -0.2423  0.1597  0.0757
   28DOPE  H18R 3563   7.449   7.503   5.456 -0.7702 -1.1553  0.2667
   28DOPE  H18S 3564   7.541   7.551   5.309 -2.9053 -0.2334 -1.4641
   28DOPE  H18T 3565   7.610   7.432   5.428  0.4997  1.3063 -0.4658
   28DOPE   C33 3566   7.307   5.561   5.947 -0.0061 -0.1896 -0.0937
   28DOPE   H3X 3567   7.252   5.636   5.886 -0.3764 -0.4855 -0.1223
   28DOPE   H3Y 3568   7.238   5.482   5.982  0.4932 -0.9962 -0.8652
   28DOPE   C34 3569   7.400   5.488   5.852 -0.0805 -0.1335 -1.0996
   28DOPE   H4X 3570   7.469   5.557   5.798 -0.0091 -0.5936 -1.6078
   28DOPE   H4Y 3571   7.459   5.421   5.918  1.6243  1.4407 -0.9177
   28DOPE   C35 3572   7.325   5.413   5.738 -0.3607  0.7280  0.2807
   28DOPE   H5X 3573   7.219   5.447   5.733  0.5032  3.8755  0.9846
   28DOPE   H5Y 3574   7.316   5.303   5.753  4.4143  0.3244  2.0571
   28DOPE   C36 3575   7.389   5.433   5.598  0.4064  0.1705  0.0390
   28DOPE   H6X 3576   7.482   5.372   5.601  0.1031 -0.4459 -1.7132
   28DOPE   H6Y 3577   7.408   5.542   5.598 -0.9651  0.5118  3.1269
   28DOPE   C37 3578   7.309   5.393   5.471  0.2472  0.3814 -0.3848
   28DOPE   H7X 3579   7.296   5.283   5.463 -0.9894  0.3823  1.1813
   28DOPE   H7Y 3580   7.211   5.444   5.481  0.8116  1.6148 -1.0539
   28DOPE   C38 3581   7.381   5.438   5.342  0.6445  0.3629  0.3024
   28DOPE   H8X 3582   7.478   5.386   5.330  0.2610 -0.3173  0.1042
   28DOPE   H8Y 3583   7.415   5.540   5.369 -1.0974  0.0718  4.2319
   28DOPE   C39 3584   7.302   5.423   5.215 -0.4869 -0.6160 -0.0162
   28DOPE   H9X 3585   7.288   5.316   5.195  1.4368 -0.7857 -0.7376
   28DOPE  C310 3586   7.242   5.519   5.145  0.2810 -0.5193 -0.6872
   28DOPE  H10X 3587   7.179   5.490   5.060  1.4034 -2.0326 -1.0553
   28DOPE  C311 3588   7.243   5.664   5.171 -0.6597 -0.3928  0.3990
   28DOPE  H11X 3589   7.141   5.709   5.170  0.5923  2.6576 -1.3250
   28DOPE  H11Y 3590   7.296   5.686   5.266 -0.7876  1.1275  0.1454
   28DOPE  C312 3591   7.310   5.741   5.062 -0.1161  0.5746  0.7510
   28DOPE  H12X 3592   7.266   5.843   5.059 -2.5656 -0.4211 -0.6941
   28DOPE  H12Y 3593   7.277   5.710   4.960 -1.1077  1.6155  0.7401
   28DOPE  C313 3594   7.463   5.731   5.062 -0.0457 -0.0445 -0.4109
   28DOPE  H13X 3595   7.504   5.629   5.078  2.8429  1.0638 -0.0888
   28DOPE  H13Y 3596   7.502   5.769   4.966  1.5076  0.8715  0.5362
   28DOPE  C314 3597   7.540   5.820   5.165 -0.0477 -0.1081 -0.0622
   28DOPE  H14X 3598   7.646   5.801   5.137  0.3820 -0.8363  1.8825
   28DOPE  H14Y 3599   7.521   5.776   5.265  0.3644 -2.1635 -0.8238
   28DOPE  C315 3600   7.514   5.973   5.166  0.1480 -0.1976  0.1647
   28DOPE  H15X 3601   7.407   5.987   5.191  0.4434 -1.2402  2.2470
   28DOPE  H15Y 3602   7.531   6.016   5.065 -1.2141  3.3635  1.2990
   28DOPE  C316 3603   7.607   6.027   5.270  0.4239  0.0105  0.1767
   28DOPE  H16X 3604   7.709   6.008   5.231 -0.3265 -1.7307 -1.0593
   28DOPE  H16Y 3605   7.592   5.986   5.372 -0.2566 -0.8288 -0.2522
   28DOPE  C317 3606   7.601   6.181   5.291 -0.2862  0.0830 -0.3185
   28DOPE  H17X 3607   7.501   6.205   5.332  0.5802  1.0341  1.3441
   28DOPE  H17Y 3608   7.682   6.208   5.363  1.7238  1.8170 -2.9824
   28DOPE  C318 3609   7.632   6.270   5.170  1.1888 -0.1230 -0.5423
   28DOPE  H18X 3610   7.546   6.281   5.099 -0.2428 -0.9160  0.9964
   28DOPE  H18Y 3611   7.649   6.374   5.202  0.6520  0.1809 -1.2065
   28DOPE  H18Z 3612   7.731   6.246   5.126  2.7849  3.6859  0.5796
   29DOPE     N 3613   6.850   0.362   7.205 -1.0502 -0.0556 -0.1297
   29DOPE   HN1 3614   6.925   0.331   7.139 -1.1701 -2.7868  0.8947
   29DOPE   HN2 3615   6.882   0.443   7.262 -1.0598 -0.7483  0.8784
   29DOPE   HN3 3616   6.839   0.283   7.272  0.9608 -2.2823 -2.1958
   29DOPE   C12 3617   6.725   0.391   7.127  0.0967 -0.3545 -0.3910
   29DOPE  H12A 3618   6.655   0.452   7.189 -0.1251  0.8462 -1.7797
   29DOPE  H12B 3619   6.680   0.293   7.100 -2.5037  0.3879  0.8526
   29DOPE   C11 3620   6.743   0.472   6.996  0.1260 -0.0443  0.7396
   29DOPE  H11A 3621   6.642   0.464   6.950 -0.2775 -0.8212  1.7244
   29DOPE  H11B 3622   6.820   0.418   6.937 -0.2299 -1.6744  1.6924
   29DOPE     P 3623   6.894   0.682   6.950 -0.1501  0.1045  0.2751
   29DOPE   O13 3624   7.014   0.618   7.005 -0.2320  0.5691 -0.3517
   29DOPE   O14 3625   6.878   0.826   6.977  0.3087  0.8794 -0.3321
   29DOPE   O11 3626   6.875   0.659   6.796  0.2937 -0.4959  0.0215
   29DOPE   O12 3627   6.764   0.614   7.016 -0.7172 -0.2082 -0.1734
   29DOPE    C1 3628   6.762   0.709   6.729  0.1079 -0.1916 -0.0928
   29DOPE    HA 3629   6.768   0.820   6.730  1.0281 -0.2461  0.6105
   29DOPE    HB 3630   6.666   0.675   6.775  1.5867 -0.9373  2.6428
   29DOPE    C2 3631   6.762   0.661   6.584 -0.4913  0.1914  0.2449
   29DOPE    HS 3632   6.730   0.555   6.573  0.4186  0.1542 -3.3114
   29DOPE   O21 3633   6.899   0.659   6.534 -0.0685  0.2285  0.6342
   29DOPE   C21 3634   6.936   0.573   6.447 -0.9883  0.2696  0.6121
   29DOPE   O22 3635   6.870   0.475   6.409 -0.4468 -0.1533 -0.4838
   29DOPE   C22 3636   7.077   0.597   6.404  0.2605 -0.4810 -0.1604
   29DOPE   H2R 3637   7.111   0.510   6.344  0.9339  0.1164 -0.6520
   29DOPE   H2S 3638   7.148   0.593   6.489 -1.0427 -1.4963  0.9404
   29DOPE    C3 3639   6.669   0.744   6.495  0.5499  0.3101 -0.4797
   29DOPE    HX 3640   6.702   0.850   6.502  0.3549  0.4363 -1.3521
   29DOPE    HY 3641   6.565   0.730   6.530 -0.4349  0.4531 -3.1493
   29DOPE   O31 3642   6.678   0.707   6.350  0.1336  0.0950 -1.1898
   29DOPE   C31 3643   6.623   0.588   6.323 -0.3512  0.2407  0.1359
   29DOPE   O32 3644   6.562   0.519   6.399  0.0989 -0.3792  0.6774
   29DOPE   C32 3645   6.626   0.577   6.165 -0.7854  0.5723  0.5445
   29DOPE   H2X 3646   6.606   0.678   6.123  1.1293  0.0834 -1.7416
   29DOPE   H2Y 3647   6.723   0.545   6.123 -2.3338 -0.9521 -2.1266
   29DOPE   C23 3648   7.092   0.731   6.326  0.2693  0.8696 -0.3988
   29DOPE   H3R 3649   7.194   0.728   6.282 -0.2113  0.6832 -1.5466
   29DOPE   H3S 3650   7.087   0.799   6.413  1.7489 -0.3299  0.6727
   29DOPE   C24 3651   6.994   0.763   6.218  0.1117 -0.3145 -0.0160
   29DOPE   H4R 3652   7.007   0.867   6.182  0.4656 -0.2072  0.4140
   29DOPE   H4S 3653   6.895   0.750   6.266 -0.9116  0.1388 -1.8948
   29DOPE   C25 3654   6.999   0.668   6.090  0.2930 -0.8454 -0.9032
   29DOPE   H5R 3655   6.928   0.702   6.012  1.7316  1.5597 -1.2499
   29DOPE   H5S 3656   6.975   0.560   6.103 -1.6605 -0.5041 -1.3681
   29DOPE   C26 3657   7.138   0.677   6.028 -0.3529  0.8199  0.3207
   29DOPE   H6R 3658   7.204   0.619   6.096 -1.0431  0.8417  1.0123
   29DOPE   H6S 3659   7.173   0.782   6.025  0.9470  0.3917 -1.0016
   29DOPE   C27 3660   7.162   0.603   5.897  0.8800  0.1339  0.2296
   29DOPE   H7R 3661   7.104   0.508   5.890  2.6305 -0.9440 -0.4575
   29DOPE   H7S 3662   7.264   0.559   5.889  0.5255 -1.0117  1.4584
   29DOPE   C28 3663   7.127   0.687   5.772  0.2824  0.0867  0.3013
   29DOPE   H8R 3664   7.163   0.792   5.786 -0.6886  0.8130 -2.0802
   29DOPE   H8S 3665   7.018   0.695   5.753  0.0901  0.3130  1.4132
   29DOPE   C29 3666   7.192   0.628   5.653  0.4593 -0.1879  0.2689
   29DOPE   H9R 3667   7.297   0.657   5.644  0.7061 -1.3227 -0.7786
   29DOPE  C210 3668   7.143   0.566   5.541 -0.2149  0.0207  0.4272
   29DOPE  H10R 3669   7.216   0.537   5.464  0.3530  1.3140  0.4536
   29DOPE  C211 3670   6.999   0.535   5.519  0.0247 -0.2235 -0.3022
   29DOPE  H11R 3671   6.942   0.559   5.612  1.6838  1.5612  0.3298
   29DOPE  H11S 3672   6.992   0.428   5.491 -2.1847 -0.3755  0.6194
   29DOPE  C212 3673   6.933   0.615   5.407  0.3709  0.5001 -0.4453
   29DOPE  H12R 3674   6.907   0.720   5.432  1.0733  0.1663  1.8791
   29DOPE  H12S 3675   6.834   0.565   5.408  0.3562  0.3609 -2.9401
   29DOPE  C213 3676   6.991   0.608   5.266 -0.3500  0.5795 -0.4453
   29DOPE  H13R 3677   7.001   0.502   5.233  3.0053  0.2368  1.2241
   29DOPE  H13S 3678   7.095   0.646   5.268  0.0451 -0.2239  3.6525
   29DOPE  C214 3679   6.907   0.691   5.168  0.7027 -0.2449 -0.0178
   29DOPE  H14R 3680   6.897   0.791   5.215 -1.3631  0.7271 -2.3324
   29DOPE  H14S 3681   6.804   0.649   5.158  0.7447  0.0081 -1.6726
   29DOPE  C215 3682   6.956   0.714   5.022 -0.3723  0.2250 -0.4052
   29DOPE  H15R 3683   7.057   0.758   5.018  0.7023 -2.0155  0.3669
   29DOPE  H15S 3684   6.885   0.786   4.977 -1.0610 -1.2040 -1.7197
   29DOPE  C216 3685   6.943   0.588   4.929  0.2209 -0.6183  0.2422
   29DOPE  H16R 3686   6.859   0.525   4.965  0.2339 -1.1489 -0.6153
   29DOPE  H16S 3687   7.037   0.529   4.932 -0.7919 -2.2596  3.2068
   29DOPE  C217 3688   6.924   0.615   4.779 -0.4711 -0.1397  0.1434
   29DOPE  H17R 3689   6.847   0.693   4.759  0.2174  0.1892 -1.3789
   29DOPE  H17S 3690   6.874   0.526   4.737 -2.1616  0.3469  1.0503
   29DOPE  C218 3691   7.049   0.656   4.699 -0.8018  0.1769  0.2549
   29DOPE  H18R 3692   7.144   0.603   4.722 -0.9958  0.2839  1.3537
   29DOPE  H18S 3693   7.074   0.763   4.715 -1.2537  0.2369  0.5740
   29DOPE  H18T 3694   7.032   0.649   4.589 -0.3790 -1.4893  0.2585
   29DOPE   C33 3695   6.521   0.470   6.127 -0.8339  0.5849 -0.3610
   29DOPE   H3X 3696   6.427   0.496   6.181 -0.9803  0.8277 -0.7242
   29DOPE   H3Y 3697   6.548   0.369   6.165  0.7308  1.0433 -0.1732
   29DOPE   C34 3698   6.498   0.456   5.974 -0.3690  0.1173  0.4025
   29DOPE   H4X 3699   6.418   0.381   5.953  0.0268 -0.2900  0.3202
   29DOPE   H4Y 3700   6.455   0.552   5.938  0.2047 -0.3245 -1.6288
   29DOPE   C35 3701   6.612   0.396   5.899 -0.1751  0.0142 -0.2330
   29DOPE   H5X 3702   6.624   0.295   5.944 -1.8354 -0.1874 -0.1874
   29DOPE   H5Y 3703   6.700   0.465   5.906 -2.0175  2.4104  1.1211
   29DOPE   C36 3704   6.600   0.384   5.746 -0.3668 -0.1764 -0.8762
   29DOPE   H6X 3705   6.601   0.486   5.702  0.5565  0.5183  0.6620
   29DOPE   H6Y 3706   6.521   0.312   5.715  0.7189 -1.2302 -1.2746
   29DOPE   C37 3707   6.715   0.310   5.685 -0.2003  0.6442 -0.5284
   29DOPE   H7X 3708   6.739   0.350   5.584  1.0860 -0.0174 -0.5117
   29DOPE   H7Y 3709   6.805   0.332   5.747 -0.6147  0.4402  0.1499
   29DOPE   C38 3710   6.689   0.163   5.666  0.1280 -0.2631  0.0321
   29DOPE   H8X 3711   6.598   0.134   5.610  0.5673  0.6160 -1.1619
   29DOPE   H8Y 3712   6.657   0.122   5.765  2.1037  0.3884  0.9966
   29DOPE   C39 3713   6.813   0.093   5.612  0.3749  0.2903 -0.4599
   29DOPE   H9X 3714   6.886   0.068   5.690 -0.7062  1.7023  1.0734
   29DOPE  C310 3715   6.841   0.071   5.482 -0.4345 -0.2635 -0.1459
   29DOPE  H10X 3716   6.940   0.028   5.461 -0.2693  0.6005 -1.2565
   29DOPE  C311 3717   6.756   0.096   5.357 -0.1577 -0.5539  0.2922
   29DOPE  H11X 3718   6.741  -0.003   5.309  0.6002 -1.3111  1.5531
   29DOPE  H11Y 3719   6.657   0.145   5.372  0.0769 -0.0440  0.1871
   29DOPE  C312 3720   6.842   0.187   5.265  0.4860  0.2262  0.0017
   29DOPE  H12X 3721   6.938   0.134   5.247  0.2204  0.1216 -1.1820
   29DOPE  H12Y 3722   6.870   0.281   5.315 -0.5940  0.2901  0.5173
   29DOPE  C313 3723   6.783   0.204   5.124 -0.2723  0.8979  0.6546
   29DOPE  H13X 3724   6.855   0.263   5.063  1.6374 -2.8575 -1.0708
   29DOPE  H13Y 3725   6.784   0.107   5.070 -0.4816  2.4395 -2.2846
   29DOPE  C314 3726   6.656   0.290   5.121 -0.2325 -0.3451  0.4289
   29DOPE  H14X 3727   6.666   0.377   5.190  0.0067 -0.1990  0.2127
   29DOPE  H14Y 3728   6.566   0.242   5.165 -1.7954 -0.3199 -2.5227
   29DOPE  C315 3729   6.628   0.328   4.971  0.1289  0.6751 -0.4035
   29DOPE  H15X 3730   6.588   0.235   4.926  0.5673 -0.2270  0.9921
   29DOPE  H15Y 3731   6.725   0.363   4.930  1.1061  0.1852  1.3537
   29DOPE  C316 3732   6.526   0.438   4.957  0.5079 -0.3468  0.1038
   29DOPE  H16X 3733   6.429   0.393   4.987  0.7347  0.0086  1.4195
   29DOPE  H16Y 3734   6.527   0.458   4.848  0.5982 -2.7489 -0.4085
   29DOPE  C317 3735   6.538   0.569   5.028 -0.5116 -0.6927  0.2161
   29DOPE  H17X 3736   6.532   0.539   5.135 -1.0492  0.3697  0.5059
   29DOPE  H17Y 3737   6.637   0.607   4.994 -0.0880 -1.9907 -0.0417
   29DOPE  C318 3738   6.419   0.672   5.005 -0.5800  0.1385 -0.0836
   29DOPE  H18X 3739   6.324   0.622   5.033  0.5683 -0.7753  2.5270
   29DOPE  H18Y 3740   6.427   0.757   5.077 -0.1605  0.4367 -0.4812
   29DOPE  H18Z 3741   6.435   0.716   4.904  0.7921  0.5930  0.3036
   30DOPE     N 3742   0.099   0.936   7.186 -0.2493 -0.2584  0.2134
   30DOPE   HN1 3743   0.016   0.998   7.188  0.6524  0.9796  0.9266
   30DOPE   HN2 3744   0.062   0.843   7.214  2.0075 -0.6487  2.2433
   30DOPE   HN3 3745   0.153   0.956   7.272 -0.3314 -1.9352  0.6969
   30DOPE   C12 3746   0.182   0.948   7.061  0.0757 -0.4961 -0.1545
   30DOPE  H12A 3747   0.260   0.869   7.069  0.6429  0.2333  3.7533
   30DOPE  H12B 3748   0.226   1.049   7.048  0.3527 -0.7228 -1.0645
   30DOPE   C11 3749   0.095   0.925   6.938 -0.0753  0.5974 -0.2800
   30DOPE  H11A 3750   0.155   0.918   6.844 -0.3887 -0.2463 -0.4269
   30DOPE  H11B 3751   0.020   1.006   6.923  0.2224  0.9686  0.2088
   30DOPE     P 3752  -0.060   0.737   6.844  0.1259  0.4722 -0.0075
   30DOPE   O13 3753  -0.155   0.833   6.789  0.2678 -0.0184 -0.4262
   30DOPE   O14 3754  -0.114   0.607   6.892  0.0838  0.1488  0.0872
   30DOPE   O11 3755   0.051   0.711   6.735 -0.3974  0.3000  0.6730
   30DOPE   O12 3756   0.020   0.804   6.959 -0.4208  0.1568  0.2197
   30DOPE    C1 3757   0.153   0.611   6.758 -0.6511  0.0576  0.6110
   30DOPE    HA 3758   0.113   0.533   6.826 -0.4457  0.4034  1.1328
   30DOPE    HB 3759   0.238   0.666   6.803 -0.9258  1.0818 -0.0941
   30DOPE    C2 3760   0.216   0.536   6.629  0.1418 -0.4959 -0.1816
   30DOPE    HS 3761   0.316   0.504   6.666  0.9069  3.1501  1.3152
   30DOPE   O21 3762   0.211   0.630   6.516 -0.0427 -0.6377  0.1061
   30DOPE   C21 3763   0.283   0.583   6.417 -0.1873 -0.1497  0.1258
   30DOPE   O22 3764   0.370   0.495   6.423  0.2228  0.0650  0.2976
   30DOPE   C22 3765   0.244   0.660   6.290  0.0147  0.0161 -0.0216
   30DOPE   H2R 3766   0.191   0.756   6.308  0.8348  0.6917 -1.0730
   30DOPE   H2S 3767   0.176   0.590   6.236  0.6147  0.1297 -0.9587
   30DOPE    C3 3768   0.113   0.419   6.602 -0.6098  0.1472  0.6103
   30DOPE    HX 3769   0.024   0.484   6.588 -1.5699 -1.1802  0.4021
   30DOPE    HY 3770   0.096   0.358   6.694  1.0712 -1.4611 -0.0704
   30DOPE   O31 3771   0.128   0.339   6.484 -0.2185  0.1125 -0.0208
   30DOPE   C31 3772   0.184   0.217   6.508 -0.5766  0.4386  0.5758
   30DOPE   O32 3773   0.221   0.173   6.615 -0.5495 -0.3470  0.0638
   30DOPE   C32 3774   0.188   0.132   6.385 -0.3521  0.1275  0.3561
   30DOPE   H2X 3775   0.149   0.031   6.410 -0.7811 -0.6862 -3.0150
   30DOPE   H2Y 3776   0.123   0.178   6.307  0.4969 -0.4930 -0.7399
   30DOPE   C23 3777   0.365   0.696   6.203 -0.5914  0.4977  0.0633
   30DOPE   H3R 3778   0.442   0.616   6.200 -0.2002  0.9008 -0.7830
   30DOPE   H3S 3779   0.424   0.781   6.243  0.8300 -0.5948  0.3930
   30DOPE   C24 3780   0.316   0.726   6.057  0.9472  0.3143  0.6242
   30DOPE   H4R 3781   0.389   0.799   6.016  0.5540 -0.1373 -0.9815
   30DOPE   H4S 3782   0.222   0.783   6.066  0.9551  0.9249 -2.2210
   30DOPE   C25 3783   0.301   0.602   5.975  0.9328 -0.7360 -0.2027
   30DOPE   H5R 3784   0.230   0.616   5.890 -2.1873 -2.2919  1.9212
   30DOPE   H5S 3785   0.241   0.529   6.034  0.5914  1.1247  1.8770
   30DOPE   C26 3786   0.432   0.547   5.913 -0.2893  0.5100  0.7372
   30DOPE   H6R 3787   0.496   0.513   5.997  0.2038 -0.5777 -0.0554
   30DOPE   H6S 3788   0.487   0.627   5.859 -1.6152  0.2574 -1.0825
   30DOPE   C27 3789   0.415   0.434   5.809  0.0939 -0.5508  0.4006
   30DOPE   H7R 3790   0.340   0.464   5.734 -0.1228 -2.0302 -0.0019
   30DOPE   H7S 3791   0.376   0.340   5.854  0.4112 -0.1334  1.5959
   30DOPE   C28 3792   0.548   0.409   5.735 -0.1074 -0.1406 -0.1297
   30DOPE   H8R 3793   0.622   0.358   5.800 -0.3125 -1.2951 -0.7725
   30DOPE   H8S 3794   0.590   0.510   5.716 -1.1143  0.6187  1.4570
   30DOPE   C29 3795   0.512   0.331   5.611 -0.2621 -0.3599  0.4528
   30DOPE   H9R 3796   0.520   0.222   5.624 -0.5491 -0.1687  2.6180
   30DOPE  C210 3797   0.464   0.382   5.491 -0.5582 -0.4629 -0.1570
   30DOPE  H10R 3798   0.443   0.301   5.419 -0.9398 -2.3154  1.9337
   30DOPE  C211 3799   0.432   0.521   5.449 -0.0244 -0.3846  0.6154
   30DOPE  H11R 3800   0.516   0.593   5.441  0.1776 -0.7263 -0.5429
   30DOPE  H11S 3801   0.358   0.567   5.517 -0.4270 -0.9908  0.6008
   30DOPE  C212 3802   0.367   0.537   5.301 -0.9204  0.4950  0.0262
   30DOPE  H12R 3803   0.359   0.647   5.284  1.7826  0.8813  0.6656
   30DOPE  H12S 3804   0.269   0.487   5.314 -0.4124 -0.0263  2.1115
   30DOPE  C213 3805   0.455   0.478   5.192 -0.5194 -0.4564 -0.0634
   30DOPE  H13R 3806   0.444   0.367   5.192 -0.1890 -0.5923  3.0564
   30DOPE  H13S 3807   0.563   0.501   5.196 -0.6594  1.0493 -2.6495
   30DOPE  C214 3808   0.416   0.542   5.063 -0.7257 -0.2184  0.3986
   30DOPE  H14R 3809   0.438   0.651   5.066  0.7833 -0.4468 -0.9669
   30DOPE  H14S 3810   0.306   0.529   5.058 -1.1073  2.3930  0.6362
   30DOPE  C215 3811   0.480   0.475   4.937 -0.6940 -0.8148  0.4146
   30DOPE  H15R 3812   0.460   0.366   4.931  1.3861 -1.2016 -0.5038
   30DOPE  H15S 3813   0.591   0.482   4.947 -0.4120 -2.1918 -1.2757
   30DOPE  C216 3814   0.439   0.548   4.807 -0.6032 -0.6780  0.2818
   30DOPE  H16R 3815   0.515   0.515   4.733  0.4372 -1.5545  1.6747
   30DOPE  H16S 3816   0.455   0.657   4.819 -1.1113 -0.6654  0.9212
   30DOPE  C217 3817   0.294   0.520   4.752 -0.0017 -0.4388 -0.1995
   30DOPE  H17R 3818   0.280   0.586   4.664  0.4747  1.2718  0.9559
   30DOPE  H17S 3819   0.212   0.548   4.822 -0.3849 -0.5034 -0.6207
   30DOPE  C218 3820   0.257   0.371   4.733 -0.3424 -0.4501 -0.3776
   30DOPE  H18R 3821   0.162   0.351   4.678 -1.0493 -0.4510  0.8021
   30DOPE  H18S 3822   0.249   0.321   4.833  0.4016  2.6527  1.3641
   30DOPE  H18T 3823   0.336   0.327   4.669  0.0977  0.7533 -0.6899
   30DOPE   C33 3824   0.327   0.111   6.327  0.3038  0.3125 -0.0702
   30DOPE   H3X 3825   0.393   0.064   6.403 -0.3746 -1.0949 -0.3164
   30DOPE   H3Y 3826   0.375   0.210   6.314  0.1082  0.3528 -0.5073
   30DOPE   C34 3827   0.327   0.035   6.201 -0.0933 -0.1842 -0.0301
   30DOPE   H4X 3828   0.429  -0.007   6.186  0.0294 -0.8985  2.3714
   30DOPE   H4Y 3829   0.262  -0.055   6.208  2.3198 -2.1287 -1.0095
   30DOPE   C35 3830   0.292   0.113   6.069 -0.5309 -0.4734 -0.1306
   30DOPE   H5X 3831   0.358   0.201   6.058 -0.6211 -0.5718 -1.5837
   30DOPE   H5Y 3832   0.188   0.150   6.087 -0.7136 -1.2245  0.4371
   30DOPE   C36 3833   0.302   0.020   5.947  0.4991  0.4983  0.0906
   30DOPE   H6X 3834   0.409   0.004   5.921  0.7520  2.2566 -0.0348
   30DOPE   H6Y 3835   0.242   0.070   5.869  0.3655  1.1108  0.5805
   30DOPE   C37 3836   0.228  -0.115   5.968  0.1030  0.1583  0.5210
   30DOPE   H7X 3837   0.282  -0.188   6.031 -0.7319 -0.5219  0.4674
   30DOPE   H7Y 3838   0.127  -0.100   6.012 -0.7354 -2.9795 -0.0542
   30DOPE   C38 3839   0.195  -0.182   5.832 -0.2501  0.4849  0.4015
   30DOPE   H8X 3840   0.284  -0.178   5.765 -0.1540 -2.3924  0.2265
   30DOPE   H8Y 3841   0.122  -0.113   5.786 -0.3599  0.6469  0.8152
   30DOPE   C39 3842   0.127  -0.322   5.834 -0.2692 -0.3927  0.2715
   30DOPE   H9X 3843   0.046  -0.332   5.908 -0.8052  0.2189 -0.2213
   30DOPE  C310 3844   0.163  -0.431   5.771 -0.2143 -0.2223 -0.0175
   30DOPE  H10X 3845   0.088  -0.511   5.764 -0.2520 -0.2441  0.5964
   30DOPE  C311 3846   0.289  -0.455   5.689  1.1121 -0.5993  0.1289
   30DOPE  H11X 3847   0.335  -0.356   5.666 -0.8467  0.5683  0.9742
   30DOPE  H11Y 3848   0.353  -0.512   5.759  0.1233 -1.0639  0.6684
   30DOPE  C312 3849   0.274  -0.530   5.557  0.2677 -0.1102  0.6063
   30DOPE  H12X 3850   0.202  -0.613   5.568 -0.7481  0.5681 -0.6827
   30DOPE  H12Y 3851   0.372  -0.574   5.528  0.4715  0.8137 -0.2034
   30DOPE  C313 3852   0.248  -0.438   5.434  0.3108 -0.3773  0.5084
   30DOPE  H13X 3853   0.148  -0.391   5.446  1.1024  1.7159 -0.6869
   30DOPE  H13Y 3854   0.332  -0.366   5.432  0.1702 -0.1869 -2.2009
   30DOPE  C314 3855   0.237  -0.509   5.291 -0.3622 -0.2480  0.4249
   30DOPE  H14X 3856   0.154  -0.583   5.300  0.8727 -1.5096  2.2558
   30DOPE  H14Y 3857   0.333  -0.566   5.283  0.2702  0.7331  0.8456
   30DOPE  C315 3858   0.222  -0.408   5.184  0.4412 -0.7141 -0.0616
   30DOPE  H15X 3859   0.303  -0.332   5.192 -0.0799 -0.3464  2.5789
   30DOPE  H15Y 3860   0.122  -0.363   5.204  0.4018 -0.4572 -0.7937
   30DOPE  C316 3861   0.212  -0.470   5.041  0.8953 -0.0321  0.0259
   30DOPE  H16X 3862   0.179  -0.395   4.966 -0.7135 -1.0835 -0.3710
   30DOPE  H16Y 3863   0.131  -0.545   5.043  0.2135  0.7069  1.5564
   30DOPE  C317 3864   0.342  -0.541   4.999 -0.4122  0.0550  0.1628
   30DOPE  H17X 3865   0.432  -0.478   4.982  0.1579 -0.6716  0.4072
   30DOPE  H17Y 3866   0.377  -0.606   5.082  0.5302  0.1563 -0.1422
   30DOPE  C318 3867   0.326  -0.625   4.878  0.3462  0.3211 -0.7035
   30DOPE  H18X 3868   0.284  -0.568   4.792 -3.7469 -2.1978 -0.6371
   30DOPE  H18Y 3869   0.426  -0.671   4.858 -0.1654 -0.5048 -1.4504
   30DOPE  H18Z 3870   0.262  -0.713   4.898  0.4572  0.2390 -0.7072
   31DOPE     N 3871   2.357   2.705   3.142  0.3400 -0.1986 -0.5213
   31DOPE   HN1 3872   2.279   2.766   3.110  1.0331  1.7817  1.3809
   31DOPE   HN2 3873   2.328   2.611   3.106 -1.5026 -0.0808  0.5283
   31DOPE   HN3 3874   2.348   2.705   3.246 -0.4255 -2.4078 -0.5203
   31DOPE   C12 3875   2.486   2.769   3.107 -0.2294  0.3648  0.2489
   31DOPE  H12A 3876   2.530   2.808   3.201  0.6417  2.0492 -0.8025
   31DOPE  H12B 3877   2.460   2.853   3.038 -2.2788 -0.0643  0.4335
   31DOPE   C11 3878   2.581   2.667   3.036 -0.4454  0.2997 -0.7410
   31DOPE  H11A 3879   2.673   2.728   3.021 -0.9289  1.6098  1.2707
   31DOPE  H11B 3880   2.533   2.638   2.940 -1.1704  1.1741 -0.6554
   31DOPE     P 3881   2.699   2.526   3.222  0.4754 -0.3448  0.2106
   31DOPE   O13 3882   2.829   2.538   3.157  0.4230  0.2753 -0.4721
   31DOPE   O14 3883   2.682   2.408   3.314 -0.4948  0.3487 -0.2182
   31DOPE   O11 3884   2.675   2.654   3.315 -0.0413 -0.1319  0.3058
   31DOPE   O12 3885   2.593   2.536   3.101  0.0081  0.4834 -0.5682
   31DOPE    C1 3886   2.776   2.755   3.316  0.2291 -0.6617 -0.0628
   31DOPE    HA 3887   2.733   2.851   3.351  2.6920 -0.7505  3.7553
   31DOPE    HB 3888   2.826   2.759   3.217 -0.9637 -2.7436 -0.8441
   31DOPE    C2 3889   2.883   2.722   3.425 -0.9630 -0.0786 -0.4297
   31DOPE    HS 3890   2.953   2.651   3.376  2.2961  1.8786  1.0217
   31DOPE   O21 3891   2.820   2.663   3.538 -0.2652  0.0011  0.0407
   31DOPE   C21 3892   2.878   2.564   3.598  0.2832 -0.1140  0.8512
   31DOPE   O22 3893   2.984   2.512   3.559  0.4979 -0.8785  0.5569
   31DOPE   C22 3894   2.796   2.520   3.718 -0.4811 -0.5656  0.2638
   31DOPE   H2R 3895   2.703   2.482   3.672 -0.8096  0.5167 -0.0117
   31DOPE   H2S 3896   2.782   2.606   3.788  0.8876 -1.0926  1.2275
   31DOPE    C3 3897   2.958   2.858   3.455  0.4654  0.2849 -0.4087
   31DOPE    HX 3898   2.895   2.937   3.499  0.6746  0.3076 -0.1474
   31DOPE    HY 3899   3.002   2.905   3.364 -1.0470  0.8652 -0.8666
   31DOPE   O31 3900   3.053   2.828   3.563 -0.1453 -0.5690  0.1278
   31DOPE   C31 3901   3.155   2.911   3.573  0.4076 -0.5841 -0.6050
   31DOPE   O32 3902   3.156   3.017   3.507 -0.0210 -0.0734 -1.3475
   31DOPE   C32 3903   3.265   2.868   3.666  0.1751 -0.2957 -0.0483
   31DOPE   H2X 3904   3.238   2.777   3.724 -0.8570  0.2842  0.4079
   31DOPE   H2Y 3905   3.348   2.846   3.595 -0.1208  0.5379 -0.6647
   31DOPE   C23 3906   2.869   2.410   3.799 -0.2245 -0.7127 -0.5947
   31DOPE   H3R 3907   2.977   2.433   3.814 -0.7889  1.0129  1.2972
   31DOPE   H3S 3908   2.860   2.308   3.755  0.2263 -1.5017  1.0639
   31DOPE   C24 3909   2.815   2.407   3.946 -0.4327  0.1044 -0.2697
   31DOPE   H4R 3910   2.705   2.422   3.943 -0.5400 -0.4807 -3.9610
   31DOPE   H4S 3911   2.855   2.498   3.995 -1.6863  0.1274  0.7676
   31DOPE   C25 3912   2.843   2.277   4.033  0.1304  0.1287 -0.9512
   31DOPE   H5R 3913   2.954   2.266   4.040  0.1486  0.9984  0.5462
   31DOPE   H5S 3914   2.796   2.182   4.001  0.4854  0.2147 -1.7613
   31DOPE   C26 3915   2.801   2.286   4.178 -0.8340  0.3322  0.2357
   31DOPE   H6R 3916   2.694   2.312   4.188 -0.7848  0.9556 -0.7508
   31DOPE   H6S 3917   2.861   2.355   4.240  1.4826  0.7194 -2.2300
   31DOPE   C27 3918   2.819   2.146   4.250 -0.5780  0.2584 -0.1868
   31DOPE   H7R 3919   2.921   2.103   4.251 -0.3409  0.8322  0.4793
   31DOPE   H7S 3920   2.761   2.076   4.186 -1.4354 -0.3086  1.1670
   31DOPE   C28 3921   2.762   2.133   4.388 -0.1388 -0.0199 -0.6521
   31DOPE   H8R 3922   2.777   2.026   4.412  1.5923  0.3522  0.0394
   31DOPE   H8S 3923   2.653   2.154   4.386  0.3171  2.6725 -1.0421
   31DOPE   C29 3924   2.820   2.230   4.495  0.4586 -0.1872  0.8375
   31DOPE   H9R 3925   2.814   2.336   4.467  0.6420 -0.5749 -0.7695
   31DOPE  C210 3926   2.869   2.202   4.615  0.0296  0.4953 -0.6255
   31DOPE  H10R 3927   2.899   2.289   4.676 -0.0598  1.4320 -1.8852
   31DOPE  C211 3928   2.890   2.066   4.687  0.7845  0.6354  0.2993
   31DOPE  H11R 3929   2.993   2.056   4.726  1.0045  0.5693 -0.2925
   31DOPE  H11S 3930   2.884   1.983   4.613 -0.1114  0.7066  0.2733
   31DOPE  C212 3931   2.785   2.036   4.797  0.0760 -0.3843 -0.4117
   31DOPE  H12R 3932   2.795   1.934   4.840  0.6427  0.4200  1.4598
   31DOPE  H12S 3933   2.686   2.043   4.747 -0.1415  1.4091  0.1678
   31DOPE  C213 3934   2.788   2.155   4.904 -0.8584  0.7472  0.7672
   31DOPE  H13R 3935   2.767   2.248   4.847 -2.0315 -0.5803 -1.1183
   31DOPE  H13S 3936   2.885   2.153   4.957  0.8789  0.2771 -2.1842
   31DOPE  C214 3937   2.679   2.144   5.015  0.2588 -0.2219 -0.2711
   31DOPE  H14R 3938   2.582   2.144   4.961  0.0961 -1.6224 -0.0103
   31DOPE  H14S 3939   2.689   2.233   5.081  2.8583 -0.9054  0.3777
   31DOPE  C215 3940   2.688   2.021   5.107 -0.0023 -0.7969 -0.1555
   31DOPE  H15R 3941   2.685   1.933   5.039 -1.8490  0.4313 -1.7753
   31DOPE  H15S 3942   2.604   2.018   5.179 -0.3866 -1.2039 -0.6176
   31DOPE  C216 3943   2.821   2.026   5.185 -0.0719  0.4974 -0.8441
   31DOPE  H16R 3944   2.841   2.126   5.227  0.7192  0.2282 -0.5615
   31DOPE  H16S 3945   2.907   2.004   5.118  0.5943  0.1537  0.1004
   31DOPE  C217 3946   2.836   1.910   5.285 -0.1640 -0.2656 -0.1840
   31DOPE  H17R 3947   2.833   1.807   5.244 -0.4463 -0.9102  1.3663
   31DOPE  H17S 3948   2.744   1.919   5.347 -1.1116  0.3844 -1.6258
   31DOPE  C218 3949   2.948   1.926   5.385 -0.6874  0.4677  0.4439
   31DOPE  H18R 3950   3.044   1.930   5.329 -1.4557  1.1372 -0.8695
   31DOPE  H18S 3951   2.951   1.844   5.460 -1.3416 -1.2376 -1.3115
   31DOPE  H18T 3952   2.937   2.022   5.440 -1.2191  0.0820  1.0323
   31DOPE   C33 3953   3.292   2.980   3.766 -0.2859 -0.5535 -0.1713
   31DOPE   H3X 3954   3.196   3.023   3.803 -0.1039 -1.0645  0.9389
   31DOPE   H3Y 3955   3.347   3.058   3.709 -0.1744 -2.3493 -2.6396
   31DOPE   C34 3956   3.383   2.946   3.884 -0.0657  0.3945 -0.3872
   31DOPE   H4X 3957   3.333   2.867   3.943  0.6161  0.4467  0.2791
   31DOPE   H4Y 3958   3.474   2.894   3.845  0.5384  0.5511  0.7671
   31DOPE   C35 3959   3.422   3.061   3.978  0.3187 -0.6657 -0.2863
   31DOPE   H5X 3960   3.460   3.148   3.920 -0.1394  2.3497  3.5223
   31DOPE   H5Y 3961   3.499   3.030   4.052  2.2144  3.0086 -0.4403
   31DOPE   C36 3962   3.297   3.118   4.042 -0.1378 -0.2064  0.4280
   31DOPE   H6X 3963   3.231   3.038   4.082  0.8484 -0.1715  2.2220
   31DOPE   H6Y 3964   3.243   3.173   3.962 -0.3463  0.0993  0.7773
   31DOPE   C37 3965   3.333   3.220   4.150 -0.4380  0.1994  0.4522
   31DOPE   H7X 3966   3.407   3.167   4.213 -0.8958 -0.3074  0.5723
   31DOPE   H7Y 3967   3.382   3.310   4.106  1.1723 -0.8770 -0.0590
   31DOPE   C38 3968   3.216   3.250   4.243 -0.0564 -1.1314  0.1417
   31DOPE   H8X 3969   3.210   3.160   4.308 -2.0375  0.3943  2.2012
   31DOPE   H8Y 3970   3.121   3.265   4.187 -0.9017 -2.5780  1.1228
   31DOPE   C39 3971   3.251   3.368   4.339  0.6215  0.3307  0.1004
   31DOPE   H9X 3972   3.239   3.467   4.294 -2.1678  0.0326  0.0242
   31DOPE  C310 3973   3.290   3.362   4.469 -0.4717 -0.2033 -0.3429
   31DOPE  H10X 3974   3.323   3.453   4.522  0.2165 -0.5282 -0.2103
   31DOPE  C311 3975   3.319   3.228   4.543 -0.0212  0.2800 -0.1267
   31DOPE  H11X 3976   3.268   3.139   4.499 -1.8379  1.6260 -0.8635
   31DOPE  H11Y 3977   3.427   3.200   4.540  0.0948  0.4855  1.4223
   31DOPE  C312 3978   3.284   3.237   4.695  0.7085 -0.4578 -0.7372
   31DOPE  H12X 3979   3.175   3.251   4.704  0.8095  0.7433 -1.1452
   31DOPE  H12Y 3980   3.330   3.326   4.744 -1.7813  0.3414  0.2595
   31DOPE  C313 3981   3.311   3.115   4.779 -0.3843 -0.2307  0.6499
   31DOPE  H13X 3982   3.245   3.034   4.741  0.8283 -0.6229 -0.7211
   31DOPE  H13Y 3983   3.417   3.087   4.765 -0.7234 -0.7195 -1.2701
   31DOPE  C314 3984   3.282   3.154   4.930  0.2976  0.5331 -0.1736
   31DOPE  H14X 3985   3.341   3.246   4.948  1.7532 -0.4442  0.2196
   31DOPE  H14Y 3986   3.317   3.071   4.995  0.4536  0.7039 -0.0406
   31DOPE  C315 3987   3.134   3.173   4.958 -0.2156  0.4079  0.3178
   31DOPE  H15X 3988   3.078   3.105   4.890 -2.4449  1.8566  0.5992
   31DOPE  H15Y 3989   3.101   3.275   4.927 -1.4418 -0.1548 -0.3016
   31DOPE  C316 3990   3.087   3.144   5.100  0.2771  0.5132 -0.2312
   31DOPE  H16X 3991   3.139   3.052   5.133 -2.8025 -0.7756  1.4081
   31DOPE  H16Y 3992   2.978   3.128   5.104  0.4490 -0.6543  3.3521
   31DOPE  C317 3993   3.140   3.259   5.191  0.2161  0.5218 -0.2631
   31DOPE  H17X 3994   3.248   3.281   5.174 -0.2074  1.9624 -1.3297
   31DOPE  H17Y 3995   3.083   3.349   5.160 -0.8738 -0.2296 -0.4807
   31DOPE  C318 3996   3.107   3.231   5.335  0.1272  0.2680  0.1714
   31DOPE  H18X 3997   3.164   3.141   5.368  0.8164  1.6125  2.9709
   31DOPE  H18Y 3998   3.138   3.309   5.408  1.7495 -1.3017  1.2614
   31DOPE  H18Z 3999   2.998   3.211   5.344 -0.3632  0.7284 -3.3656
   32DOPE     N 4000   5.100   2.433   2.736 -0.0357 -0.1233 -0.1243
   32DOPE   HN1 4001   5.000   2.461   2.725 -1.0561 -2.9078  1.0880
   32DOPE   HN2 4002   5.099   2.333   2.709 -0.0401 -0.6999  1.8711
   32DOPE   HN3 4003   5.117   2.437   2.839 -2.6394 -5.2937  0.8360
   32DOPE   C12 4004   5.198   2.486   2.633 -0.6574  0.6807  0.0033
   32DOPE  H12A 4005   5.225   2.590   2.662  2.2364 -0.5891  2.4027
   32DOPE  H12B 4006   5.148   2.483   2.534 -0.3765  1.0664 -0.1549
   32DOPE   C11 4007   5.329   2.404   2.626 -0.5576  0.7373 -0.2710
   32DOPE  H11A 4008   5.384   2.413   2.722 -1.1431 -0.2543  0.1703
   32DOPE  H11B 4009   5.401   2.439   2.548 -0.4951  1.9212  0.2969
   32DOPE     P 4010   5.404   2.164   2.543  0.0543 -0.0791 -0.0141
   32DOPE   O13 4011   5.543   2.211   2.543 -0.1424  0.5726  0.2559
   32DOPE   O14 4012   5.338   2.119   2.419  0.1956 -0.0606 -0.0771
   32DOPE   O11 4013   5.400   2.033   2.636 -0.0803 -0.3598  0.0316
   32DOPE   O12 4014   5.304   2.265   2.609  0.0149  0.4478 -0.1587
   32DOPE    C1 4015   5.279   1.974   2.681  0.2161  0.4284 -0.2748
   32DOPE    HA 4016   5.298   1.865   2.692  0.2705  0.4296 -0.3585
   32DOPE    HB 4017   5.197   1.976   2.606 -1.1976 -0.6364  1.1401
   32DOPE    C2 4018   5.223   2.031   2.813 -0.3577 -0.3190 -0.0639
   32DOPE    HS 4019   5.193   2.132   2.779 -0.2955 -1.4310 -3.8876
   32DOPE   O21 4020   5.324   2.037   2.916  0.6911 -0.6491 -0.1510
   32DOPE   C21 4021   5.313   2.137   3.003  1.1942 -0.4246 -0.2010
   32DOPE   O22 4022   5.241   2.235   2.994 -0.6073 -0.5385  0.2678
   32DOPE   C22 4023   5.398   2.096   3.122  0.3724 -0.3217  0.0233
   32DOPE   H2R 4024   5.506   2.111   3.102  0.1302 -0.7267 -1.7224
   32DOPE   H2S 4025   5.367   1.991   3.140  1.1137 -0.9255 -1.9711
   32DOPE    C3 4026   5.102   1.946   2.854 -1.0204 -0.6116 -0.0817
   32DOPE    HX 4027   5.150   1.854   2.894 -0.0122 -0.4311 -0.8400
   32DOPE    HY 4028   5.028   1.932   2.773 -0.7104  1.4513 -0.7636
   32DOPE   O31 4029   5.030   2.018   2.958 -0.3136  0.1059 -0.3065
   32DOPE   C31 4030   4.941   1.941   3.025 -0.7010 -0.2071  0.3578
   32DOPE   O32 4031   4.910   1.829   2.995 -0.1545 -0.6434 -0.1129
   32DOPE   C32 4032   4.894   2.009   3.150  0.4889  0.2113  0.1297
   32DOPE   H2X 4033   4.876   2.117   3.135 -0.7068 -0.1447 -1.1938
   32DOPE   H2Y 4034   4.800   1.955   3.173  0.5892  0.3188  0.8226
   32DOPE   C23 4035   5.362   2.177   3.246 -0.7009  0.5197  0.2010
   32DOPE   H3R 4036   5.251   2.181   3.253 -1.1897  2.8318 -4.5985
   32DOPE   H3S 4037   5.395   2.281   3.223 -1.9999  0.9439  0.1501
   32DOPE   C24 4038   5.435   2.128   3.374 -0.5222  0.3485 -0.2364
   32DOPE   H4R 4039   5.460   2.214   3.439 -0.6948  0.4400 -0.2898
   32DOPE   H4S 4040   5.527   2.074   3.344  0.3011  0.6358  1.6493
   32DOPE   C25 4041   5.351   2.027   3.456  0.1596 -0.2135 -0.0294
   32DOPE   H5R 4042   5.306   1.959   3.381  3.2759 -3.2310  0.5782
   32DOPE   H5S 4043   5.272   2.092   3.499 -0.3480 -1.2522  0.6622
   32DOPE   C26 4044   5.418   1.945   3.570 -0.0319  0.1866 -0.2083
   32DOPE   H6R 4045   5.487   2.013   3.625  1.6003 -1.2757 -0.4038
   32DOPE   H6S 4046   5.476   1.861   3.527 -0.3367 -0.0200 -0.2174
   32DOPE   C27 4047   5.316   1.883   3.659 -0.0772  0.5176  0.1632
   32DOPE   H7R 4048   5.239   1.838   3.592  1.3181  0.3601 -1.3979
   32DOPE   H7S 4049   5.268   1.961   3.721  1.0345 -0.0917  1.8416
   32DOPE   C28 4050   5.367   1.765   3.744  0.3577  0.0371 -0.0241
   32DOPE   H8R 4051   5.425   1.700   3.674  1.4538  0.1276  0.7664
   32DOPE   H8S 4052   5.285   1.699   3.780 -0.8419  0.3889 -1.9588
   32DOPE   C29 4053   5.469   1.812   3.840 -1.0151  0.8230  0.0387
   32DOPE   H9R 4054   5.529   1.896   3.804  1.6311 -0.4966  1.0669
   32DOPE  C210 4055   5.496   1.745   3.957  0.4361 -0.2360  0.6581
   32DOPE  H10R 4056   5.569   1.782   4.031  2.5236 -0.8735 -0.9714
   32DOPE  C211 4057   5.430   1.610   3.990  0.3632 -0.7574 -0.3229
   32DOPE  H11R 4058   5.511   1.554   4.042  1.4972  1.3616  0.3390
   32DOPE  H11S 4059   5.398   1.559   3.897 -0.6240  2.3896 -1.8724
   32DOPE  C212 4060   5.305   1.622   4.087  0.0177 -0.4843 -0.3125
   32DOPE  H12R 4061   5.269   1.519   4.108  0.5743 -0.3991  1.0875
   32DOPE  H12S 4062   5.221   1.668   4.029 -0.1806 -0.6817 -0.1809
   32DOPE  C213 4063   5.331   1.684   4.225  0.2869 -0.1452 -0.6999
   32DOPE  H13R 4064   5.242   1.682   4.291  1.7849  1.3285  1.5153
   32DOPE  H13S 4065   5.340   1.794   4.217 -2.6380  0.1368 -0.9482
   32DOPE  C214 4066   5.448   1.627   4.309  0.4431  0.2291  0.2262
   32DOPE  H14R 4067   5.547   1.643   4.262  0.4958  1.1443  0.6209
   32DOPE  H14S 4068   5.427   1.518   4.309  0.8973  0.0857 -2.3674
   32DOPE  C215 4069   5.452   1.688   4.450  0.2557  0.4037 -0.4106
   32DOPE  H15R 4070   5.519   1.631   4.518 -0.8499  0.2383  0.5522
   32DOPE  H15S 4071   5.350   1.680   4.491  0.1405 -0.1059 -0.7946
   32DOPE  C216 4072   5.490   1.832   4.462 -0.1164 -0.0777 -0.0948
   32DOPE  H16R 4073   5.421   1.905   4.415 -1.2339 -0.0492  1.5193
   32DOPE  H16S 4074   5.586   1.840   4.407 -0.0000 -3.0679 -0.4941
   32DOPE  C217 4075   5.514   1.886   4.603  0.5352 -0.6342  0.3090
   32DOPE  H17R 4076   5.424   1.893   4.668  0.8699  0.6576  0.6563
   32DOPE  H17S 4077   5.545   1.992   4.596  3.2921 -1.2044  2.1771
   32DOPE  C218 4078   5.628   1.815   4.673  0.4283 -0.2806 -0.2524
   32DOPE  H18R 4079   5.662   1.877   4.758 -1.5233  1.8581 -0.8977
   32DOPE  H18S 4080   5.716   1.796   4.609 -0.4821 -1.3045 -1.2607
   32DOPE  H18T 4081   5.597   1.714   4.708  2.3610 -0.0774  2.2962
   32DOPE   C33 4082   4.976   1.982   3.282  0.0715 -0.2334  0.6034
   32DOPE   H3X 4083   5.065   2.048   3.272  0.5122 -0.9873 -0.8124
   32DOPE   H3Y 4084   5.001   1.874   3.291  0.4841 -0.2839 -0.8342
   32DOPE   C34 4085   4.912   2.027   3.415  0.2562  0.5011 -0.2782
   32DOPE   H4X 4086   4.980   2.008   3.501 -1.0678 -1.4062  0.4225
   32DOPE   H4Y 4087   4.910   2.138   3.414 -1.5471  0.5262  1.0244
   32DOPE   C35 4088   4.781   1.954   3.458  0.3761  0.3599  0.4220
   32DOPE   H5X 4089   4.797   1.845   3.448  1.3552  0.3390  1.9211
   32DOPE   H5Y 4090   4.696   1.981   3.392 -1.0882  1.5202  2.6441
   32DOPE   C36 4091   4.744   1.976   3.608  0.0730  0.2488  0.7943
   32DOPE   H6X 4092   4.634   1.965   3.619  0.1651  1.0568  2.9370
   32DOPE   H6Y 4093   4.763   2.082   3.636  2.5234 -0.0746  0.5329
   32DOPE   C37 4094   4.827   1.883   3.695 -0.5210  0.3723  0.1626
   32DOPE   H7X 4095   4.754   1.822   3.751 -0.0901 -0.3584 -0.0583
   32DOPE   H7Y 4096   4.885   1.818   3.626 -0.8299  1.6187 -1.3278
   32DOPE   C38 4097   4.919   1.958   3.791  0.3844  0.1116  0.2177
   32DOPE   H8X 4098   4.861   2.033   3.848  0.3699 -0.6903  1.2904
   32DOPE   H8Y 4099   5.002   2.013   3.743 -1.5404  1.5082 -1.7406
   32DOPE   C39 4100   4.989   1.865   3.889  0.5853 -0.4338 -0.1190
   32DOPE   H9X 4101   5.092   1.842   3.857 -0.7314 -1.1370 -4.4682
   32DOPE  C310 4102   4.940   1.818   4.006 -0.0656 -0.2461 -0.0878
   32DOPE  H10X 4103   5.002   1.746   4.061  1.3579  1.0062  0.0273
   32DOPE  C311 4104   4.804   1.840   4.061  0.2589 -0.3339  0.4703
   32DOPE  H11X 4105   4.767   1.927   4.002  1.0669  0.6303  1.3363
   32DOPE  H11Y 4106   4.732   1.756   4.056 -0.2740  0.0290  1.5803
   32DOPE  C312 4107   4.810   1.884   4.206  0.0318 -0.2163  0.2577
   32DOPE  H12X 4108   4.706   1.905   4.237 -0.2978  0.3906 -1.1751
   32DOPE  H12Y 4109   4.861   1.982   4.218  0.1963 -0.5178  2.3538
   32DOPE  C313 4110   4.861   1.774   4.301  0.2273 -0.0345  0.0958
   32DOPE  H13X 4111   4.790   1.689   4.301 -0.6143  0.6300 -1.3571
   32DOPE  H13Y 4112   4.961   1.740   4.266 -0.0968 -3.4492  2.1250
   32DOPE  C314 4113   4.898   1.825   4.444  0.2681  0.8155  0.1515
   32DOPE  H14X 4114   4.801   1.869   4.477  1.0650  1.9454  1.0590
   32DOPE  H14Y 4115   4.973   1.906   4.448 -1.1717  2.2657 -0.8219
   32DOPE  C315 4116   4.926   1.701   4.529 -1.1262  0.3254 -0.2942
   32DOPE  H15X 4117   4.839   1.632   4.521  0.3960 -1.7971  0.5510
   32DOPE  H15Y 4118   4.919   1.729   4.636 -1.2780 -1.1730  0.1130
   32DOPE  C316 4119   5.048   1.617   4.498 -0.2278  0.4342  0.4102
   32DOPE  H16X 4120   5.134   1.686   4.508  1.1609 -1.2259  0.5384
   32DOPE  H16Y 4121   5.039   1.583   4.393 -0.0136 -0.2970  0.6210
   32DOPE  C317 4122   5.054   1.491   4.586 -0.0444  0.4908  0.6038
   32DOPE  H17X 4123   5.048   1.533   4.689 -2.3385  1.2644  0.2109
   32DOPE  H17Y 4124   4.967   1.425   4.568  0.3580  0.6247 -2.2526
   32DOPE  C318 4125   5.186   1.419   4.557 -0.4685 -0.1397 -0.5183
   32DOPE  H18X 4126   5.270   1.484   4.590 -0.0945 -0.2748 -1.1819
   32DOPE  H18Y 4127   5.195   1.325   4.617  0.4897  0.0157 -0.3928
   32DOPE  H18Z 4128   5.179   1.394   4.449 -0.6899  2.4204 -1.1651
   33DOPE     N 4129   3.689   2.427   2.522  0.5104 -0.1381  0.0826
   33DOPE   HN1 4130   3.676   2.529   2.538 -1.2528  0.1893 -2.7429
   33DOPE   HN2 4131   3.662   2.394   2.428  0.3283  1.7168 -0.5624
   33DOPE   HN3 4132   3.637   2.370   2.592  0.6565 -0.4437 -0.0576
   33DOPE   C12 4133   3.832   2.398   2.553 -0.0969 -0.3998  0.4474
   33DOPE  H12A 4134   3.891   2.453   2.477 -0.5480  0.6976  0.8742
   33DOPE  H12B 4135   3.852   2.293   2.522  0.1987  0.3213 -2.0266
   33DOPE   C11 4136   3.870   2.450   2.694  0.0694  0.1033  0.0005
   33DOPE  H11A 4137   3.854   2.559   2.709 -0.1874 -0.0230  0.6934
   33DOPE  H11B 4138   3.978   2.427   2.705 -0.0967 -0.7587 -0.1666
   33DOPE     P 4139   3.843   2.260   2.873  0.2974 -0.1067 -0.1648
   33DOPE   O13 4140   3.929   2.183   2.780 -0.1517 -1.0080  0.1315
   33DOPE   O14 4141   3.732   2.179   2.921 -0.1163 -0.0324 -0.2641
   33DOPE   O11 4142   3.929   2.323   2.990 -0.0183 -0.0006 -0.0365
   33DOPE   O12 4143   3.787   2.390   2.795  0.7577  0.2341  0.0237
   33DOPE    C1 4144   3.888   2.414   3.096  1.1683 -0.0139  0.8688
   33DOPE    HA 4145   3.777   2.418   3.092  1.0905 -1.2896  1.1972
   33DOPE    HB 4146   3.928   2.517   3.090 -1.0815  1.1524  3.4851
   33DOPE    C2 4147   3.930   2.362   3.237 -0.4171  1.0400  0.8111
   33DOPE    HS 4148   3.879   2.264   3.242  0.4815  0.6154  1.8385
   33DOPE   O21 4149   3.894   2.462   3.335 -0.3114  0.6971 -0.1553
   33DOPE   C21 4150   3.830   2.396   3.439  0.1949 -0.2340  0.7059
   33DOPE   O22 4151   3.804   2.277   3.445 -1.0775 -0.1610 -0.0615
   33DOPE   C22 4152   3.799   2.495   3.548 -0.6159  0.2223  0.7671
   33DOPE   H2R 4153   3.692   2.479   3.576 -0.6930  0.8512  0.8449
   33DOPE   H2S 4154   3.809   2.603   3.525 -0.0227 -0.2642 -1.4471
   33DOPE    C3 4155   4.088   2.345   3.234 -0.5805 -0.1303 -0.0243
   33DOPE    HX 4156   4.137   2.442   3.212 -1.6514  0.9293  2.0293
   33DOPE    HY 4157   4.116   2.268   3.158  1.6836 -1.5126  2.0386
   33DOPE   O31 4158   4.145   2.304   3.361  0.3391 -0.4463  0.2757
   33DOPE   C31 4159   4.137   2.176   3.389  0.5247 -0.0689  0.7624
   33DOPE   O32 4160   4.075   2.088   3.330  0.3233 -0.0496  0.3348
   33DOPE   C32 4161   4.225   2.144   3.511  0.4721 -0.3753  0.1168
   33DOPE   H2X 4162   4.158   2.166   3.597 -0.8044  1.7057 -1.3092
   33DOPE   H2Y 4163   4.243   2.035   3.505  2.6586 -0.0105 -0.8643
   33DOPE   C23 4164   3.892   2.462   3.671 -0.0914 -0.1636 -0.3234
   33DOPE   H3R 4165   3.872   2.361   3.713  0.0998  0.8622  2.4476
   33DOPE   H3S 4166   3.847   2.527   3.749 -0.2373 -1.6478  0.8803
   33DOPE   C24 4167   4.042   2.477   3.653  0.1759  0.2088  0.5336
   33DOPE   H4R 4168   4.072   2.574   3.608  1.5128 -1.2929 -2.0824
   33DOPE   H4S 4169   4.070   2.398   3.580 -0.0733  1.8058 -1.3740
   33DOPE   C25 4170   4.120   2.467   3.786  0.8870  0.0969  0.4640
   33DOPE   H5R 4171   4.064   2.411   3.864  0.6632 -0.9705 -0.4322
   33DOPE   H5S 4172   4.115   2.574   3.814  1.7078  0.2327  0.1130
   33DOPE   C26 4173   4.271   2.422   3.792  0.7331  0.7948  0.4839
   33DOPE   H6R 4174   4.281   2.313   3.773  3.1150  1.0932 -0.2893
   33DOPE   H6S 4175   4.297   2.435   3.899 -3.4080 -0.4424  1.8437
   33DOPE   C27 4176   4.357   2.509   3.697  0.1610 -0.0515 -0.0603
   33DOPE   H7R 4177   4.337   2.615   3.723  0.8611  0.1232 -0.2298
   33DOPE   H7S 4178   4.316   2.499   3.595 -0.3742  1.4364 -0.0115
   33DOPE   C28 4179   4.510   2.479   3.697  0.5612 -0.0819 -0.0855
   33DOPE   H8R 4180   4.532   2.370   3.694  0.5444 -0.2468  2.9051
   33DOPE   H8S 4181   4.539   2.522   3.795 -0.4269 -0.6091  0.4592
   33DOPE   C29 4182   4.581   2.541   3.575  0.6638 -0.4648 -0.3866
   33DOPE   H9R 4183   4.510   2.546   3.491  1.1934  1.4364 -0.7762
   33DOPE  C210 4184   4.700   2.597   3.562  0.2713  0.0251 -0.2714
   33DOPE  H10R 4185   4.730   2.639   3.464  1.2692 -1.1416 -0.4885
   33DOPE  C211 4186   4.805   2.622   3.674 -0.4184  0.1907  0.6164
   33DOPE  H11R 4187   4.912   2.612   3.646 -0.6194 -1.4801  0.3472
   33DOPE  H11S 4188   4.790   2.543   3.751  1.3869 -0.2940  0.5314
   33DOPE  C212 4189   4.791   2.756   3.747  0.4149 -0.4541  0.0359
   33DOPE  H12R 4190   4.684   2.781   3.768  0.6625 -1.1982  2.5435
   33DOPE  H12S 4191   4.834   2.834   3.681  0.0424  0.7697  1.1887
   33DOPE  C213 4192   4.858   2.742   3.885 -0.6223  0.1119  0.0110
   33DOPE  H13R 4193   4.967   2.725   3.870 -0.0124  3.6382 -0.3520
   33DOPE  H13S 4194   4.812   2.661   3.947  0.8501  0.2828  1.3907
   33DOPE  C214 4195   4.858   2.873   3.963 -0.1265  0.2615  0.3408
   33DOPE  H14R 4196   4.754   2.905   3.982 -0.2694 -2.1950  5.0741
   33DOPE  H14S 4197   4.908   2.955   3.907 -1.7544  0.8756 -0.2593
   33DOPE  C215 4198   4.924   2.856   4.091  0.0179 -0.4684 -0.3966
   33DOPE  H15R 4199   5.033   2.871   4.080 -0.2378  0.4418 -1.8623
   33DOPE  H15S 4200   4.906   2.754   4.133 -0.2914 -1.3677 -2.5946
   33DOPE  C216 4201   4.876   2.962   4.200 -0.7410 -0.8263 -0.3360
   33DOPE  H16R 4202   4.784   2.919   4.244 -0.3340 -1.1260  0.2450
   33DOPE  H16S 4203   4.850   3.061   4.158 -0.6645 -0.9793 -0.7498
   33DOPE  C217 4204   4.978   2.978   4.314  0.2234  0.3214  0.8715
   33DOPE  H17R 4205   5.060   3.045   4.279 -0.9712  2.0011  1.1749
   33DOPE  H17S 4206   5.020   2.878   4.339 -0.3826 -0.6868 -1.7816
   33DOPE  C218 4207   4.928   3.049   4.436 -0.9571  0.0632 -0.3409
   33DOPE  H18R 4208   4.853   2.988   4.491  1.3156 -0.3357  2.5744
   33DOPE  H18S 4209   4.871   3.142   4.414  0.0488  0.8554  0.2725
   33DOPE  H18T 4210   5.003   3.070   4.515 -3.2580  1.6278  1.5825
   33DOPE   C33 4211   4.360   2.216   3.513  0.3609  0.2785  0.5148
   33DOPE   H3X 4212   4.402   2.207   3.615  2.4437 -2.2679 -0.4582
   33DOPE   H3Y 4213   4.358   2.324   3.486  1.5487  0.1764 -0.0475
   33DOPE   C34 4214   4.482   2.158   3.429 -0.2565 -0.3488 -0.3182
   33DOPE   H4X 4215   4.585   2.191   3.454  0.4696 -0.1225 -3.2406
   33DOPE   H4Y 4216   4.492   2.048   3.433 -1.1991 -0.4283  0.3377
   33DOPE   C35 4217   4.469   2.209   3.281 -0.5830 -0.0729  0.3063
   33DOPE   H5X 4218   4.363   2.206   3.245  0.6093 -0.5950 -3.6706
   33DOPE   H5Y 4219   4.529   2.133   3.226 -0.4628 -1.9763  2.8972
   33DOPE   C36 4220   4.523   2.353   3.259 -0.2219  0.0420  0.5888
   33DOPE   H6X 4221   4.476   2.432   3.321 -1.6589 -0.4232  0.1353
   33DOPE   H6Y 4222   4.513   2.377   3.151  4.9971 -3.3356 -1.0562
   33DOPE   C37 4223   4.679   2.352   3.290 -0.4394 -0.5342 -0.3376
   33DOPE   H7X 4224   4.709   2.357   3.397  0.6068  3.1732 -0.6428
   33DOPE   H7Y 4225   4.720   2.257   3.249 -0.8455 -0.3928 -1.0822
   33DOPE   C38 4226   4.756   2.463   3.215  1.0668  0.4665 -0.1573
   33DOPE   H8X 4227   4.730   2.562   3.256 -1.2939  0.2061 -0.9005
   33DOPE   H8Y 4228   4.708   2.469   3.115  1.1037  1.4359 -0.1202
   33DOPE   C39 4229   4.898   2.436   3.186 -0.5546 -0.6142 -0.0224
   33DOPE   H9X 4230   4.928   2.453   3.082  1.0057  3.0765  0.8703
   33DOPE  C310 4231   5.001   2.426   3.268 -0.3510 -0.0935  0.1386
   33DOPE  H10X 4232   5.100   2.419   3.220  0.8215  0.6121  2.3116
   33DOPE  C311 4233   5.014   2.437   3.422 -0.6334 -0.1018  0.1594
   33DOPE  H11X 4234   5.020   2.547   3.439 -2.2457  0.2827 -1.5629
   33DOPE  H11Y 4235   4.921   2.406   3.474  0.0431 -3.3780 -0.4052
   33DOPE  C312 4236   5.136   2.369   3.488 -0.7986  0.1431 -0.7790
   33DOPE  H12X 4237   5.231   2.414   3.452  0.0837 -0.6927  0.4210
   33DOPE  H12Y 4238   5.143   2.261   3.462  0.7466 -0.2568  1.0553
   33DOPE  C313 4239   5.128   2.377   3.641 -0.1176 -0.2759 -0.3165
   33DOPE  H13X 4240   5.125   2.485   3.669  1.3365 -0.6900  1.7161
   33DOPE  H13Y 4241   5.026   2.343   3.666 -0.7771  1.6201 -0.2791
   33DOPE  C314 4242   5.229   2.297   3.728 -0.0318  0.3183 -0.2934
   33DOPE  H14X 4243   5.332   2.326   3.699  0.6973  0.6536  2.3919
   33DOPE  H14Y 4244   5.223   2.188   3.708  0.0233  0.1598  0.5080
   33DOPE  C315 4245   5.208   2.328   3.872  0.2258 -0.4923 -0.4230
   33DOPE  H15X 4246   5.104   2.312   3.908  0.8864 -1.1772  1.2965
   33DOPE  H15Y 4247   5.221   2.436   3.894  0.4526 -0.2144 -1.8109
   33DOPE  C316 4248   5.296   2.234   3.959 -0.1413 -0.2866 -0.3450
   33DOPE  H16X 4249   5.361   2.300   4.020  2.2191 -1.9020 -0.9614
   33DOPE  H16Y 4250   5.360   2.166   3.898  1.1964  2.0085 -1.6748
   33DOPE  C317 4251   5.214   2.153   4.062 -0.1151 -0.0092  0.0882
   33DOPE  H17X 4252   5.199   2.221   4.148  2.1133 -0.3046  0.7666
   33DOPE  H17Y 4253   5.116   2.128   4.015  0.3876  0.1674 -1.0901
   33DOPE  C318 4254   5.289   2.029   4.101 -0.0399  0.4645  0.4642
   33DOPE  H18X 4255   5.304   1.957   4.018  1.2042  1.3604 -0.1316
   33DOPE  H18Y 4256   5.397   2.050   4.118 -0.1302 -0.3175  2.1293
   33DOPE  H18Z 4257   5.231   1.974   4.178 -1.2509  1.3472  0.2134
   34DOPE     N 4258   2.548   4.691   2.957  0.0637 -0.3987 -0.3319
   34DOPE   HN1 4259   2.579   4.729   3.049 -0.1537  2.1482 -1.2318
   34DOPE   HN2 4260   2.459   4.640   2.972  0.5984 -0.9490  1.2494
   34DOPE   HN3 4261   2.624   4.631   2.917 -0.3804  0.3536 -2.4311
   34DOPE   C12 4262   2.534   4.799   2.850  0.1741 -0.5404 -0.5748
   34DOPE  H12A 4263   2.630   4.848   2.824 -0.8534  0.9358 -1.7481
   34DOPE  H12B 4264   2.464   4.875   2.889  1.2467 -0.4949  1.3629
   34DOPE   C11 4265   2.466   4.738   2.730 -0.2482  0.3595  0.6869
   34DOPE  H11A 4266   2.535   4.665   2.682  1.4351  2.7388 -0.7838
   34DOPE  H11B 4267   2.454   4.826   2.663 -0.3721  0.0847  0.3459
   34DOPE     P 4268   2.214   4.679   2.704  0.1913  0.3876 -0.0377
   34DOPE   O13 4269   2.130   4.572   2.757  0.1934  0.2393  0.0307
   34DOPE   O14 4270   2.230   4.691   2.560  0.1123  0.8400 -0.4767
   34DOPE   O11 4271   2.173   4.819   2.759 -0.2818  0.0024 -0.3658
   34DOPE   O12 4272   2.349   4.666   2.770  0.2887 -0.5158 -0.5354
   34DOPE    C1 4273   2.056   4.831   2.839 -0.5714  0.6467  0.0384
   34DOPE    HA 4274   1.980   4.752   2.819 -1.3194  0.3720  3.3189
   34DOPE    HB 4275   2.007   4.929   2.821 -2.3197  0.0384  1.1615
   34DOPE    C2 4276   2.076   4.823   2.990 -0.4115  0.1838  0.3086
   34DOPE    HS 4277   2.169   4.872   3.025 -0.8572  1.2573  0.0462
   34DOPE   O21 4278   2.065   4.689   3.029  0.0232  0.0911 -0.3102
   34DOPE   C21 4279   2.176   4.619   3.054  0.7933 -0.4558 -0.8227
   34DOPE   O22 4280   2.291   4.663   3.059  0.7446 -0.4513 -0.2690
   34DOPE   C22 4281   2.133   4.477   3.058 -0.1487 -0.2321  0.8638
   34DOPE   H2R 4282   2.155   4.432   2.959 -2.6150 -1.1585  0.6610
   34DOPE   H2S 4283   2.022   4.470   3.065 -0.2699 -0.7984 -1.0561
   34DOPE    C3 4284   1.958   4.909   3.048 -0.7928  0.0987 -0.2024
   34DOPE    HX 4285   1.858   4.881   3.008 -1.3895  1.2458  0.4496
   34DOPE    HY 4286   1.973   5.013   3.012 -0.1113  0.0645 -0.0302
   34DOPE   O31 4287   1.959   4.907   3.190  0.4391  0.0390  0.1056
   34DOPE   C31 4288   1.917   4.796   3.257 -0.9127 -0.0070 -0.1764
   34DOPE   O32 4289   1.865   4.699   3.211 -0.5466  0.5465 -0.0310
   34DOPE   C32 4290   1.958   4.817   3.410 -0.6707 -0.6530  0.4474
   34DOPE   H2X 4291   2.054   4.761   3.410  1.5762  2.7621 -2.4743
   34DOPE   H2Y 4292   1.977   4.925   3.423  1.3359 -0.5874 -2.1862
   34DOPE   C23 4293   2.219   4.399   3.155 -0.2888  0.5948 -0.5760
   34DOPE   H3R 4294   2.324   4.392   3.120 -1.3087 -2.7319 -3.6389
   34DOPE   H3S 4295   2.187   4.293   3.145  1.9143 -0.1796 -0.0380
   34DOPE   C24 4296   2.209   4.453   3.303 -0.4475  0.4423  0.0723
   34DOPE   H4R 4297   2.247   4.556   3.322  0.5769 -0.1748  1.5435
   34DOPE   H4S 4298   2.276   4.386   3.360 -1.3135 -0.7254 -0.2363
   34DOPE   C25 4299   2.074   4.435   3.369  0.0132 -0.4422 -0.2999
   34DOPE   H5R 4300   2.018   4.344   3.339 -0.8246 -0.1318  0.2739
   34DOPE   H5S 4301   2.010   4.526   3.362  0.4593  0.1481  2.2709
   34DOPE   C26 4302   2.086   4.412   3.520 -0.4551 -0.3590 -0.7905
   34DOPE   H6R 4303   2.129   4.499   3.574  1.0878 -1.8996  0.5716
   34DOPE   H6S 4304   2.155   4.327   3.539 -1.6570 -0.8204  2.1448
   34DOPE   C27 4305   1.959   4.380   3.602  0.2537 -0.0078  0.2843
   34DOPE   H7R 4306   1.913   4.283   3.574  1.1115 -0.2404 -0.3350
   34DOPE   H7S 4307   1.893   4.460   3.561  1.3360  0.5544 -0.3836
   34DOPE   C28 4308   1.967   4.384   3.753 -0.6561 -0.3494 -0.0182
   34DOPE   H8R 4309   1.870   4.347   3.792 -1.9091  1.9168 -0.7695
   34DOPE   H8S 4310   1.977   4.493   3.773 -1.7285 -0.3136  0.3850
   34DOPE   C29 4311   2.085   4.303   3.807 -0.4280  0.7697 -0.3050
   34DOPE   H9R 4312   2.110   4.217   3.743 -0.9000 -0.1330  0.6825
   34DOPE  C210 4313   2.160   4.330   3.914 -0.0744 -0.3493 -0.0407
   34DOPE  H10R 4314   2.245   4.273   3.953  1.5429  3.4335  2.6394
   34DOPE  C211 4315   2.161   4.463   3.994  0.1640  0.4967 -0.1842
   34DOPE  H11R 4316   2.152   4.427   4.099  1.7019  0.1380 -0.1521
   34DOPE  H11S 4317   2.067   4.517   3.971 -0.5342 -0.5818  0.0520
   34DOPE  C212 4318   2.281   4.558   3.975  0.0711  0.5846  0.0744
   34DOPE  H12R 4319   2.257   4.620   3.886 -1.3225 -1.8650 -1.3453
   34DOPE  H12S 4320   2.371   4.497   3.950 -1.5060 -2.1624  0.6553
   34DOPE  C213 4321   2.302   4.645   4.099  0.7951  0.0061 -0.0542
   34DOPE  H13R 4322   2.207   4.653   4.155  0.7765  1.1989 -0.2147
   34DOPE  H13S 4323   2.341   4.743   4.062  1.2485  0.4473  1.5165
   34DOPE  C214 4324   2.415   4.596   4.192  0.0741 -0.0762 -0.2255
   34DOPE  H14R 4325   2.515   4.589   4.144  0.2670 -0.2334  0.1928
   34DOPE  H14S 4326   2.399   4.492   4.227  2.5097 -0.0751  1.0509
   34DOPE  C215 4327   2.449   4.694   4.306 -0.0228  0.1090 -0.9691
   34DOPE  H15R 4328   2.352   4.720   4.352  0.9137 -0.0859  1.2225
   34DOPE  H15S 4329   2.487   4.791   4.267 -0.7028 -0.4819 -3.2701
   34DOPE  C216 4330   2.542   4.636   4.414  0.1701  0.3751 -0.2834
   34DOPE  H16R 4331   2.649   4.644   4.385  0.9403  0.1215  2.2632
   34DOPE  H16S 4332   2.516   4.528   4.425  2.0686 -0.2443 -1.2587
   34DOPE  C217 4333   2.513   4.705   4.546 -0.9947 -0.2720 -0.3580
   34DOPE  H17R 4334   2.407   4.697   4.578 -0.6044 -1.0444  0.8289
   34DOPE  H17S 4335   2.523   4.815   4.532 -1.3483 -0.0917  0.7120
   34DOPE  C218 4336   2.609   4.675   4.662 -0.0989  0.1601  0.1162
   34DOPE  H18R 4337   2.706   4.718   4.629 -0.0763 -0.6188 -0.8937
   34DOPE  H18S 4338   2.628   4.567   4.679 -1.7792 -0.0872  0.5791
   34DOPE  H18T 4339   2.570   4.731   4.750  1.5693 -0.3284  1.2137
   34DOPE   C33 4340   1.855   4.775   3.513  0.1792  0.2076 -0.3750
   34DOPE   H3X 4341   1.832   4.667   3.501  0.7057  0.1711 -1.1170
   34DOPE   H3Y 4342   1.764   4.832   3.484 -0.0346 -1.0184 -2.3058
   34DOPE   C34 4343   1.898   4.777   3.657  0.2344 -0.5557 -0.0086
   34DOPE   H4X 4344   1.983   4.708   3.676  0.1741 -0.6128  0.0524
   34DOPE   H4Y 4345   1.928   4.881   3.685 -0.6328 -0.7202  1.6845
   34DOPE   C35 4346   1.787   4.725   3.751  0.3501 -0.2458 -0.5805
   34DOPE   H5X 4347   1.764   4.620   3.719 -1.7720  0.0562 -0.2462
   34DOPE   H5Y 4348   1.689   4.772   3.727 -0.3233 -2.1143 -1.7406
   34DOPE   C36 4349   1.820   4.725   3.900  0.0957  0.2868  0.7534
   34DOPE   H6X 4350   1.805   4.825   3.944  1.3588  0.1468  1.5731
   34DOPE   H6Y 4351   1.927   4.692   3.902  0.3022  0.8424 -0.4490
   34DOPE   C37 4352   1.738   4.617   3.981  0.4447  0.0267 -0.5007
   34DOPE   H7X 4353   1.634   4.646   3.954  1.0352  1.5427 -1.2992
   34DOPE   H7Y 4354   1.750   4.513   3.945  1.4000 -1.0006  2.4956
   34DOPE   C38 4355   1.758   4.615   4.138 -0.2387 -0.6613  0.2063
   34DOPE   H8X 4356   1.666   4.642   4.195 -1.2688 -3.9369  0.2969
   34DOPE   H8Y 4357   1.845   4.681   4.160 -0.4124 -0.0043 -1.0062
   34DOPE   C39 4358   1.812   4.487   4.186  0.2333  0.4742 -0.1222
   34DOPE   H9X 4359   1.835   4.409   4.113  2.0032  0.6403  0.2247
   34DOPE  C310 4360   1.820   4.457   4.316  0.2679  0.1139  0.0115
   34DOPE  H10X 4361   1.871   4.363   4.343 -1.2309 -0.8829 -0.4608
   34DOPE  C311 4362   1.798   4.553   4.438  0.1948 -0.1780 -0.0071
   34DOPE  H11X 4363   1.787   4.661   4.414 -0.8647 -0.0220  1.1165
   34DOPE  H11Y 4364   1.696   4.531   4.474 -0.7814  3.2820 -0.3034
   34DOPE  C312 4365   1.908   4.530   4.538  0.0909 -0.2466  0.3052
   34DOPE  H12X 4366   1.892   4.435   4.593  3.0561 -0.0552  1.6783
   34DOPE  H12Y 4367   1.890   4.605   4.618  1.3491  0.2366  0.1529
   34DOPE  C313 4368   2.059   4.542   4.487  0.2430  0.7057  0.1660
   34DOPE  H13X 4369   2.075   4.478   4.398 -2.3948  0.2009 -0.0291
   34DOPE  H13Y 4370   2.083   4.647   4.458  1.7624  0.5604  0.8129
   34DOPE  C314 4371   2.167   4.501   4.592 -0.9989 -0.1571 -0.1047
   34DOPE  H14X 4372   2.269   4.495   4.550 -1.4033 -3.3408 -0.9053
   34DOPE  H14Y 4373   2.142   4.398   4.625 -0.6398  0.1701  1.2567
   34DOPE  C315 4374   2.160   4.582   4.720 -0.3691 -0.2176 -0.0198
   34DOPE  H15X 4375   2.063   4.576   4.774 -1.8728  2.7546 -2.0483
   34DOPE  H15Y 4376   2.163   4.690   4.690  0.1283  0.0085  0.8370
   34DOPE  C316 4377   2.278   4.545   4.819  0.5613 -0.2773  0.5942
   34DOPE  H16X 4378   2.355   4.528   4.742 -0.1506  0.0818 -0.2134
   34DOPE  H16Y 4379   2.247   4.452   4.871  1.3625 -1.8284 -1.6084
   34DOPE  C317 4380   2.301   4.661   4.917 -0.5123  1.1447 -0.1392
   34DOPE  H17X 4381   2.383   4.624   4.982 -1.4555 -0.6417  0.0857
   34DOPE  H17Y 4382   2.342   4.749   4.863  0.8850  0.3288 -0.4535
   34DOPE  C318 4383   2.188   4.714   5.002  0.9792  1.6738 -0.3182
   34DOPE  H18X 4384   2.133   4.622   5.032 -1.0564  2.6483 -0.9373
   34DOPE  H18Y 4385   2.218   4.768   5.095 -0.4225  0.0967  1.1185
   34DOPE  H18Z 4386   2.117   4.778   4.946 -0.0209  1.1885  0.3720
   35DOPE     N 4387   6.531   2.619   2.809 -0.4782 -0.2213  0.4106
   35DOPE   HN1 4388   6.546   2.722   2.810  0.7146 -0.3655  2.1951
   35DOPE   HN2 4389   6.609   2.568   2.856 -1.9484 -1.4668  1.6281
   35DOPE   HN3 4390   6.526   2.591   2.709  2.1378 -1.7081  0.5860
   35DOPE   C12 4391   6.397   2.607   2.875  0.0878  0.0201  0.3119
   35DOPE  H12A 4392   6.407   2.647   2.978 -0.2684  0.6287  0.1111
   35DOPE  H12B 4393   6.373   2.499   2.893 -0.5503  0.0144 -0.4874
   35DOPE   C11 4394   6.287   2.677   2.800 -0.1515  0.2970 -0.5054
   35DOPE  H11A 4395   6.306   2.785   2.785 -0.3274  0.0554 -2.7550
   35DOPE  H11B 4396   6.188   2.675   2.850 -0.4985 -0.9301 -1.1866
   35DOPE     P 4397   6.222   2.475   2.642  0.0544 -0.2387  0.3952
   35DOPE   O13 4398   6.334   2.384   2.674 -0.0021 -0.6486  0.1040
   35DOPE   O14 4399   6.171   2.479   2.505 -0.4152  0.0459 -0.0086
   35DOPE   O11 4400   6.108   2.451   2.751  0.5024 -0.2237  0.1822
   35DOPE   O12 4401   6.270   2.619   2.668 -0.4255 -0.2905  0.0740
   35DOPE    C1 4402   6.049   2.327   2.788  0.2383  0.0461  0.3946
   35DOPE    HA 4403   6.068   2.241   2.721 -2.1332 -0.9026  0.8557
   35DOPE    HB 4404   5.940   2.348   2.789  0.2753  0.4188 -1.3052
   35DOPE    C2 4405   6.086   2.283   2.932 -0.7964 -0.5882 -0.2238
   35DOPE    HS 4406   5.999   2.232   2.977 -1.8418  2.0177  0.9310
   35DOPE   O21 4407   6.112   2.406   2.999 -0.0903 -0.2995  0.0753
   35DOPE   C21 4408   6.009   2.470   3.055 -0.0559  1.0589  0.2168
   35DOPE   O22 4409   5.890   2.429   3.047 -0.8590  1.1319 -0.3288
   35DOPE   C22 4410   6.039   2.597   3.126 -0.2653  0.7405 -0.3767
   35DOPE   H2R 4411   5.945   2.636   3.171  0.4171 -0.9491  2.8034
   35DOPE   H2S 4412   6.066   2.670   3.047  0.0123  0.2782 -0.7140
   35DOPE    C3 4413   6.206   2.190   2.935  0.7362 -0.6955  0.8497
   35DOPE    HX 4414   6.294   2.239   2.887 -0.4634 -0.7585 -1.5772
   35DOPE    HY 4415   6.191   2.100   2.871  1.2723 -0.6074  0.5946
   35DOPE   O31 4416   6.224   2.147   3.068 -0.1641 -0.7401  0.2152
   35DOPE   C31 4417   6.317   2.211   3.140 -0.8293  0.2363 -0.4118
   35DOPE   O32 4418   6.385   2.301   3.100  0.2220  0.0321 -0.5476
   35DOPE   C32 4419   6.324   2.150   3.280  0.0078  0.3602  0.0740
   35DOPE   H2X 4420   6.235   2.170   3.345  0.4092  4.2321 -0.3528
   35DOPE   H2Y 4421   6.323   2.040   3.264 -1.5102  0.1574  1.2227
   35DOPE   C23 4422   6.147   2.585   3.232  0.0725  0.2400 -0.0478
   35DOPE   H3R 4423   6.169   2.681   3.282  0.6026 -1.4091  3.1510
   35DOPE   H3S 4424   6.237   2.535   3.190 -0.0325  1.5588 -1.9368
   35DOPE   C24 4425   6.092   2.508   3.357  0.1424  0.4717 -0.2841
   35DOPE   H4R 4426   6.063   2.403   3.337  1.2181  0.2140 -0.5352
   35DOPE   H4S 4427   6.000   2.556   3.397  0.6783  0.8233  0.5350
   35DOPE   C25 4428   6.194   2.501   3.471 -0.9194 -0.1161  0.3470
   35DOPE   H5R 4429   6.217   2.601   3.513  0.4077 -0.9360  1.6408
   35DOPE   H5S 4430   6.280   2.452   3.422 -0.1198  0.2944  1.3240
   35DOPE   C26 4431   6.167   2.413   3.598 -0.0237 -0.2718  0.2459
   35DOPE   H6R 4432   6.255   2.397   3.664  0.3712  0.8491  0.0204
   35DOPE   H6S 4433   6.132   2.313   3.563 -0.0642 -0.2902  0.3380
   35DOPE   C27 4434   6.056   2.475   3.684  0.1971  0.3832  0.3902
   35DOPE   H7R 4435   6.011   2.395   3.747 -0.0863 -2.2054 -2.8523
   35DOPE   H7S 4436   5.986   2.516   3.609  1.4677  0.4828 -0.7647
   35DOPE   C28 4437   6.104   2.595   3.774  0.2408 -0.4472 -0.3594
   35DOPE   H8R 4438   6.021   2.668   3.777 -0.4955 -1.2927  0.0182
   35DOPE   H8S 4439   6.174   2.653   3.710  1.2318 -0.7277  0.4401
   35DOPE   C29 4440   6.176   2.566   3.901 -0.2215  0.2917 -0.0762
   35DOPE   H9R 4441   6.271   2.516   3.879 -0.2885  0.3476 -0.5094
   35DOPE  C210 4442   6.144   2.598   4.027 -0.1478 -0.3345 -0.3709
   35DOPE  H10R 4443   6.214   2.556   4.101 -1.6266 -1.5629  0.4090
   35DOPE  C211 4444   6.019   2.653   4.083  0.5360 -0.4075 -0.2603
   35DOPE  H11R 4445   5.998   2.743   4.021  2.0866  0.1338 -0.0406
   35DOPE  H11S 4446   6.030   2.703   4.182 -1.5715 -0.3221 -0.0261
   35DOPE  C212 4447   5.904   2.551   4.097 -0.8058 -1.0578  0.9461
   35DOPE  H12R 4448   5.942   2.456   4.141  2.0257 -1.2204 -1.4946
   35DOPE  H12S 4449   5.865   2.536   3.994  0.3422  2.4231 -0.1275
   35DOPE  C213 4450   5.791   2.605   4.186 -0.6388  0.4455 -0.0786
   35DOPE  H13R 4451   5.748   2.704   4.160 -0.1970  1.0407  1.3489
   35DOPE  H13S 4452   5.831   2.627   4.287 -1.6162  1.2336  0.1548
   35DOPE  C214 4453   5.688   2.499   4.208  0.9357 -0.2994 -0.1511
   35DOPE  H14R 4454   5.739   2.405   4.239  0.6579  0.2315  2.0190
   35DOPE  H14S 4455   5.642   2.477   4.109 -0.4056  1.7928 -0.0511
   35DOPE  C215 4456   5.572   2.526   4.302  0.1001  0.8468  0.4250
   35DOPE  H15R 4457   5.494   2.448   4.286  0.2458  1.2126 -2.4340
   35DOPE  H15S 4458   5.525   2.626   4.290 -1.5715 -0.1066 -1.4551
   35DOPE  C216 4459   5.618   2.508   4.451  0.4711 -0.4324  0.2230
   35DOPE  H16R 4460   5.699   2.581   4.470 -0.1681  0.2430  0.4305
   35DOPE  H16S 4461   5.657   2.406   4.469  1.3378  0.1531  1.9433
   35DOPE  C217 4462   5.506   2.539   4.555 -0.0526  0.1511  0.5980
   35DOPE  H17R 4463   5.406   2.496   4.530  0.0061  0.1040  0.4368
   35DOPE  H17S 4464   5.503   2.649   4.538  1.7221  0.1542  0.0565
   35DOPE  C218 4465   5.535   2.521   4.702 -0.2947 -0.0444  0.0034
   35DOPE  H18R 4466   5.608   2.437   4.712 -1.0982 -0.6383  1.0613
   35DOPE  H18S 4467   5.453   2.493   4.771 -0.9979 -2.8728 -1.8110
   35DOPE  H18T 4468   5.595   2.606   4.741 -1.6030  0.7408  0.3466
   35DOPE   C33 4469   6.450   2.192   3.355  1.1597 -0.3571 -0.1603
   35DOPE   H3X 4470   6.469   2.301   3.345 -1.8541  0.2688  0.0481
   35DOPE   H3Y 4471   6.533   2.130   3.314 -0.4497 -0.7723 -3.1122
   35DOPE   C34 4472   6.444   2.170   3.509  0.1327 -1.2318  0.4375
   35DOPE   H4X 4473   6.370   2.240   3.553  2.0039  0.7125  0.6765
   35DOPE   H4Y 4474   6.423   2.065   3.540 -1.0496 -0.8413  1.0289
   35DOPE   C35 4475   6.579   2.211   3.565 -0.3393 -0.1163  0.4131
   35DOPE   H5X 4476   6.606   2.318   3.555  0.7781 -0.1733  2.2904
   35DOPE   H5Y 4477   6.659   2.157   3.510 -1.9167 -2.1596 -0.0381
   35DOPE   C36 4478   6.600   2.179   3.719 -0.6736 -0.2002 -0.4730
   35DOPE   H6X 4479   6.694   2.229   3.749  0.1961 -1.4609 -1.0130
   35DOPE   H6Y 4480   6.610   2.069   3.731  2.5912  0.0781  0.0892
   35DOPE   C37 4481   6.481   2.226   3.805 -0.3675 -0.4615 -0.0491
   35DOPE   H7X 4482   6.496   2.335   3.822 -0.8764 -0.5173  0.8265
   35DOPE   H7Y 4483   6.386   2.204   3.752 -1.1882  0.7780  0.8434
   35DOPE   C38 4484   6.477   2.176   3.949  0.1084  0.7393 -0.7442
   35DOPE   H8X 4485   6.576   2.175   3.998 -0.2559 -0.2891  0.0204
   35DOPE   H8Y 4486   6.458   2.066   3.944  1.0124  0.2170  3.4753
   35DOPE   C39 4487   6.358   2.236   4.023  0.5690  0.4517 -0.8189
   35DOPE   H9X 4488   6.270   2.243   3.957 -2.3440 -1.5000  2.4629
   35DOPE  C310 4489   6.346   2.265   4.158  0.3268 -0.3347  0.7066
   35DOPE  H10X 4490   6.251   2.307   4.194  0.6421 -0.9218  2.2625
   35DOPE  C311 4491   6.454   2.267   4.268 -0.1733 -0.0316  0.2697
   35DOPE  H11X 4492   6.555   2.281   4.224  0.8928 -1.9480  1.9261
   35DOPE  H11Y 4493   6.439   2.360   4.327 -0.7152  1.3256 -1.8724
   35DOPE  C312 4494   6.471   2.143   4.345  0.0014 -0.0171 -0.3533
   35DOPE  H12X 4495   6.553   2.161   4.418  1.2390 -0.4689 -1.5726
   35DOPE  H12Y 4496   6.510   2.065   4.276  1.4014  0.4618 -0.1353
   35DOPE  C313 4497   6.345   2.093   4.419  0.3325  0.7388 -0.1293
   35DOPE  H13X 4498   6.290   2.175   4.470 -1.3237 -0.0091 -0.6356
   35DOPE  H13Y 4499   6.285   2.039   4.343 -0.5351 -1.0803  1.7722
   35DOPE  C314 4500   6.377   1.997   4.537 -0.0045 -0.5413 -0.2362
   35DOPE  H14X 4501   6.435   2.052   4.615 -2.7123  0.1364  1.4445
   35DOPE  H14Y 4502   6.436   1.912   4.496 -0.0074  0.5162 -2.6129
   35DOPE  C315 4503   6.255   1.931   4.605  0.0096 -0.1227 -0.0255
   35DOPE  H15X 4504   6.203   2.013   4.659 -0.6327 -0.3300 -0.3158
   35DOPE  H15Y 4505   6.290   1.853   4.676 -0.8963 -0.5673 -0.0564
   35DOPE  C316 4506   6.156   1.861   4.506 -0.1309  0.2077  0.3282
   35DOPE  H16X 4507   6.217   1.794   4.442 -0.3228  0.0334  0.3278
   35DOPE  H16Y 4508   6.110   1.939   4.441 -1.5049  0.6181  1.7366
   35DOPE  C317 4509   6.045   1.783   4.571 -0.3344  0.0088  0.2477
   35DOPE  H17X 4510   6.085   1.701   4.635 -0.6609 -2.4779 -2.5066
   35DOPE  H17Y 4511   5.990   1.851   4.639 -3.4304 -0.3649 -1.6939
   35DOPE  C318 4512   5.949   1.714   4.475  0.5636 -0.3107  0.5873
   35DOPE  H18X 4513   5.856   1.673   4.520 -0.9623  0.8656 -1.3804
   35DOPE  H18Y 4514   5.907   1.786   4.403  0.8714  0.0742  0.7883
   35DOPE  H18Z 4515   5.997   1.632   4.418  0.9249 -0.8726  1.6616
   36DOPE     N 4516   4.880   4.053   2.994 -0.0817 -0.4637  0.1048
   36DOPE   HN1 4517   4.924   4.058   2.900  2.4724  2.2327  1.2766
   36DOPE   HN2 4518   4.806   3.981   2.988 -1.1112  0.6845 -2.2601
   36DOPE   HN3 4519   4.828   4.143   3.000 -0.0617 -0.0189 -3.8616
   36DOPE   C12 4520   4.977   4.026   3.108 -0.1108  0.3114 -0.0958
   36DOPE  H12A 4521   4.995   4.125   3.156 -0.5404 -0.2191  1.2004
   36DOPE  H12B 4522   5.071   3.990   3.062 -0.1033 -0.6227  0.6128
   36DOPE   C11 4523   4.930   3.927   3.218  0.4800 -0.1295  0.5959
   36DOPE  H11A 4524   4.839   3.958   3.272 -1.6706  0.0906 -2.8354
   36DOPE  H11B 4525   5.007   3.943   3.296  1.3644  0.1185 -0.2942
   36DOPE     P 4526   4.802   3.726   3.127 -0.2395 -0.4361  0.2082
   36DOPE   O13 4527   4.832   3.589   3.084  0.1818 -0.3932  0.5668
   36DOPE   O14 4528   4.743   3.821   3.026  0.5090  0.5310  0.4207
   36DOPE   O11 4529   4.718   3.722   3.254 -0.2086  0.2648  0.5947
   36DOPE   O12 4530   4.938   3.792   3.184  0.0897  0.7831  0.4872
   36DOPE    C1 4531   4.757   3.649   3.369  0.0088  0.4921 -0.8863
   36DOPE    HA 4532   4.814   3.712   3.440 -0.1656 -1.7647  1.4049
   36DOPE    HB 4533   4.827   3.566   3.347 -1.0761 -1.6102  2.7326
   36DOPE    C2 4534   4.632   3.582   3.438 -0.7200 -0.4124 -0.3362
   36DOPE    HS 4535   4.592   3.663   3.503  0.1700 -0.6598  0.5419
   36DOPE   O21 4536   4.674   3.469   3.512 -0.5637  0.1408 -0.1329
   36DOPE   C21 4537   4.739   3.506   3.620  1.1103  0.5341  0.6400
   36DOPE   O22 4538   4.750   3.623   3.657 -0.2757 -0.2275 -0.1172
   36DOPE   C22 4539   4.777   3.386   3.709  0.2658  0.3325  0.3425
   36DOPE   H2R 4540   4.804   3.299   3.645 -1.6921  1.0691 -1.6126
   36DOPE   H2S 4541   4.679   3.360   3.756  1.1626 -0.3621  1.9314
   36DOPE    C3 4542   4.523   3.554   3.334  0.7614  0.1277 -0.0335
   36DOPE    HX 4543   4.566   3.496   3.250  2.4913  0.6314  0.4544
   36DOPE    HY 4544   4.480   3.646   3.288 -0.1663 -0.0323  0.5012
   36DOPE   O31 4545   4.425   3.469   3.391 -0.4169 -0.1322  0.6782
   36DOPE   C31 4546   4.296   3.506   3.384  0.7583 -0.7350  0.4795
   36DOPE   O32 4547   4.245   3.610   3.348 -0.2740  0.1032 -0.1474
   36DOPE   C32 4548   4.206   3.395   3.454  0.1210 -0.6856  0.1222
   36DOPE   H2X 4549   4.136   3.364   3.374 -0.6038  1.6670 -0.2547
   36DOPE   H2Y 4550   4.272   3.311   3.484 -0.1869 -0.4955  1.3798
   36DOPE   C23 4551   4.876   3.421   3.818  0.2513 -0.1509 -0.3296
   36DOPE   H3R 4552   4.819   3.482   3.892 -0.1717  1.5168 -1.9592
   36DOPE   H3S 4553   4.963   3.483   3.785 -0.5427  1.8093  1.0495
   36DOPE   C24 4554   4.930   3.301   3.888  0.1606  0.5648 -0.2343
   36DOPE   H4R 4555   4.990   3.250   3.810 -1.0397  0.7875 -1.3469
   36DOPE   H4S 4556   4.847   3.232   3.914 -0.8680  2.0244  0.4976
   36DOPE   C25 4557   5.020   3.338   4.009  0.6193  0.3300 -0.2316
   36DOPE   H5R 4558   5.030   3.245   4.070  0.1186 -1.0336 -2.1456
   36DOPE   H5S 4559   4.982   3.419   4.075  1.3816 -0.8616  1.7889
   36DOPE   C26 4560   5.163   3.381   3.971 -0.5866  0.4009 -0.1722
   36DOPE   H6R 4561   5.159   3.477   3.916 -2.3702  0.2165 -0.4360
   36DOPE   H6S 4562   5.209   3.302   3.908  1.0821  0.3554  1.0489
   36DOPE   C27 4563   5.260   3.388   4.095 -0.1847 -0.3546 -0.5280
   36DOPE   H7R 4564   5.359   3.411   4.052  0.7518 -2.1945  0.5298
   36DOPE   H7S 4565   5.251   3.286   4.139 -2.6122 -0.3751 -0.9280
   36DOPE   C28 4566   5.230   3.513   4.195 -0.1347  0.0585  0.1959
   36DOPE   H8R 4567   5.128   3.495   4.236 -0.5965  0.0573 -0.9080
   36DOPE   H8S 4568   5.225   3.609   4.139  0.5903 -0.3200 -0.5350
   36DOPE   C29 4569   5.338   3.525   4.302 -0.0484 -0.4375 -0.0305
   36DOPE   H9R 4570   5.438   3.557   4.270 -0.0065  1.3294  1.6938
   36DOPE  C210 4571   5.326   3.523   4.436  0.2049 -0.1334  0.6649
   36DOPE  H10R 4572   5.410   3.560   4.496  0.5162 -0.7557  0.6213
   36DOPE  C211 4573   5.195   3.492   4.509 -0.0335 -0.0598  0.1994
   36DOPE  H11R 4574   5.217   3.469   4.615 -1.2857 -1.4182  0.1848
   36DOPE  H11S 4575   5.149   3.401   4.466  0.8353  0.7519 -2.7316
   36DOPE  C212 4576   5.086   3.601   4.494 -0.5158 -0.1874 -0.3699
   36DOPE  H12R 4577   5.057   3.617   4.388 -1.3434  1.5829  0.0672
   36DOPE  H12S 4578   5.112   3.704   4.527 -0.3593 -0.7192  1.2368
   36DOPE  C213 4579   4.947   3.554   4.545 -0.6624  0.6264 -0.7974
   36DOPE  H13R 4580   4.882   3.643   4.529  1.8595  2.7778  0.2217
   36DOPE  H13S 4581   4.946   3.549   4.656  1.9930  0.1200 -0.7311
   36DOPE  C214 4582   4.889   3.440   4.470  0.5869 -0.5586 -0.0704
   36DOPE  H14R 4583   4.945   3.344   4.470 -0.5323 -1.3795 -3.9506
   36DOPE  H14S 4584   4.885   3.450   4.360 -1.2112 -2.1598 -0.1966
   36DOPE  C215 4585   4.744   3.417   4.516  0.1891  0.7497  0.2209
   36DOPE  H15R 4586   4.688   3.509   4.544 -2.0986 -0.7663  0.9145
   36DOPE  H15S 4587   4.742   3.353   4.607 -0.5900 -0.7234 -0.7927
   36DOPE  C216 4588   4.664   3.331   4.406  0.0218 -0.8444  0.7445
   36DOPE  H16R 4589   4.738   3.275   4.345  0.3432 -1.0969  1.3658
   36DOPE  H16S 4590   4.608   3.399   4.338  0.7168 -1.3711 -0.3913
   36DOPE  C217 4591   4.570   3.243   4.479  0.2116 -0.2191  0.7581
   36DOPE  H17R 4592   4.492   3.304   4.529 -0.6397  1.1211 -2.0132
   36DOPE  H17S 4593   4.631   3.197   4.559  0.3261 -1.6034 -0.0972
   36DOPE  C218 4594   4.499   3.139   4.388 -0.6762 -0.1949 -0.8785
   36DOPE  H18R 4595   4.423   3.085   4.448 -0.0009 -1.4581 -1.1212
   36DOPE  H18S 4596   4.568   3.064   4.345 -1.6227 -2.6845  1.6203
   36DOPE  H18T 4597   4.461   3.194   4.299 -1.6526 -1.1014 -1.0449
   36DOPE   C33 4598   4.128   3.439   3.574  0.1823 -1.0832  0.4303
   36DOPE   H3X 4599   4.064   3.524   3.542  1.0570 -0.9508 -1.0899
   36DOPE   H3Y 4600   4.186   3.477   3.661 -0.7640  2.0299 -0.1659
   36DOPE   C34 4601   4.033   3.333   3.634 -0.2482  0.1913  0.2922
   36DOPE   H4X 4602   3.962   3.297   3.556  1.3029  0.4459 -1.2977
   36DOPE   H4Y 4603   4.094   3.246   3.666  1.7012  2.2099  2.4056
   36DOPE   C35 4604   3.966   3.386   3.758 -0.4153  0.4466  0.0901
   36DOPE   H5X 4605   3.898   3.470   3.735  0.7304  1.1977 -0.6824
   36DOPE   H5Y 4606   4.050   3.431   3.816 -2.2856  1.1702  2.4208
   36DOPE   C36 4607   3.897   3.273   3.844  0.7474 -0.3778 -1.1477
   36DOPE   H6X 4608   3.970   3.189   3.840  0.9753 -0.1577 -1.6872
   36DOPE   H6Y 4609   3.804   3.245   3.789 -0.1197 -0.7206  0.4503
   36DOPE   C37 4610   3.860   3.304   3.985 -0.4706 -0.3510 -0.3564
   36DOPE   H7X 4611   3.948   3.336   4.046 -0.6247 -1.0682  0.2539
   36DOPE   H7Y 4612   3.783   3.383   3.994  0.3088  0.3301  0.7056
   36DOPE   C38 4613   3.818   3.175   4.052  0.3648 -0.8837 -0.2401
   36DOPE   H8X 4614   3.890   3.091   4.044  0.9118 -0.4063 -0.3713
   36DOPE   H8Y 4615   3.734   3.140   3.988 -0.7828 -0.3207  0.9035
   36DOPE   C39 4616   3.749   3.200   4.190 -0.4422 -0.0021  0.3949
   36DOPE   H9X 4617   3.649   3.244   4.187 -0.3617  0.1832  0.4521
   36DOPE  C310 4618   3.813   3.174   4.311  0.1660 -0.9717  0.2396
   36DOPE  H10X 4619   3.756   3.187   4.404  1.5066  0.8360  0.8789
   36DOPE  C311 4620   3.951   3.123   4.332 -0.2012  0.7833 -0.1033
   36DOPE  H11X 4621   3.931   3.014   4.336 -1.3040  0.9794 -0.0190
   36DOPE  H11Y 4622   4.010   3.140   4.239  0.4264 -0.4360  0.0509
   36DOPE  C312 4623   4.011   3.171   4.468 -0.3769  0.0896 -0.0252
   36DOPE  H12X 4624   3.935   3.152   4.547 -0.6531  1.2931  0.0124
   36DOPE  H12Y 4625   4.023   3.281   4.459 -2.7195  0.3447 -0.6780
   36DOPE  C313 4626   4.151   3.101   4.505  0.4442 -0.6202 -0.2723
   36DOPE  H13X 4627   4.220   3.103   4.419 -1.8534 -0.6344 -2.2102
   36DOPE  H13Y 4628   4.202   3.146   4.593 -0.4612 -0.7225  0.3157
   36DOPE  C314 4629   4.143   2.955   4.543  0.2521 -0.6101 -0.1642
   36DOPE  H14X 4630   4.079   2.895   4.475  1.1036  1.9181 -3.4176
   36DOPE  H14Y 4631   4.086   2.949   4.639 -0.9204  0.1305 -0.7981
   36DOPE  C315 4632   4.283   2.892   4.559 -1.2250 -0.0973 -0.5823
   36DOPE  H15X 4633   4.343   2.960   4.622  1.0760 -1.2543 -1.4067
   36DOPE  H15Y 4634   4.329   2.891   4.458 -1.2753  1.8304 -0.6560
   36DOPE  C316 4635   4.282   2.757   4.632 -0.3589  0.6988  0.5675
   36DOPE  H16X 4636   4.383   2.713   4.641 -0.9665 -0.4329  2.3250
   36DOPE  H16Y 4637   4.229   2.677   4.576 -0.5368  0.2844  1.3145
   36DOPE  C317 4638   4.245   2.767   4.777 -0.7154 -1.0738  0.0832
   36DOPE  H17X 4639   4.327   2.826   4.824 -0.4108  0.3767 -2.1475
   36DOPE  H17Y 4640   4.155   2.829   4.793  1.0847  1.6003  0.4438
   36DOPE  C318 4641   4.232   2.634   4.845  0.4595 -0.0652  0.8033
   36DOPE  H18X 4642   4.171   2.578   4.771 -1.4023  0.5596  1.8037
   36DOPE  H18Y 4643   4.332   2.585   4.847  0.3603 -0.3180 -0.0438
   36DOPE  H18Z 4644   4.180   2.645   4.943  0.7904  0.5674  0.9175
   37DOPE     N 4645   2.055   1.882   3.296 -0.4900  0.0826 -0.1847
   37DOPE   HN1 4646   1.980   1.913   3.361 -0.8009 -1.0152  0.0026
   37DOPE   HN2 4647   2.015   1.831   3.216 -0.1713 -0.7072  0.1447
   37DOPE   HN3 4648   2.125   1.821   3.345  0.1665  0.0243 -1.1764
   37DOPE   C12 4649   2.133   2.002   3.240  0.6821  0.8576  0.2220
   37DOPE  H12A 4650   2.168   2.059   3.328  0.0546  2.0432 -0.2713
   37DOPE  H12B 4651   2.066   2.074   3.189  0.8188  1.7688  1.2976
   37DOPE   C11 4652   2.248   1.959   3.150 -0.1643  0.5996  0.3314
   37DOPE  H11A 4653   2.300   2.050   3.114  2.2783 -0.6661  0.4118
   37DOPE  H11B 4654   2.221   1.908   3.056 -1.0765 -1.5442  1.6892
   37DOPE     P 4655   2.449   1.801   3.145  0.2749 -0.1871 -0.0150
   37DOPE   O13 4656   2.520   1.887   3.053 -0.7199 -0.3347  0.0484
   37DOPE   O14 4657   2.379   1.678   3.092  0.0611 -0.5975 -0.1864
   37DOPE   O11 4658   2.539   1.766   3.268  0.5338  0.6809 -0.1593
   37DOPE   O12 4659   2.338   1.881   3.225  0.2248 -0.4422 -0.5382
   37DOPE    C1 4660   2.585   1.864   3.354 -0.3961  0.5510 -0.1025
   37DOPE    HA 4661   2.595   1.967   3.314  0.2135  1.3561  1.9531
   37DOPE    HB 4662   2.683   1.831   3.394 -1.1057 -0.7768  0.6007
   37DOPE    C2 4663   2.500   1.878   3.489 -0.0738 -0.1084  0.2409
   37DOPE    HS 4664   2.402   1.911   3.449  0.8568  0.2407 -1.8960
   37DOPE   O21 4665   2.557   1.982   3.574 -0.1763  0.4369 -0.2776
   37DOPE   C21 4666   2.524   2.103   3.537 -0.7573  0.0437 -0.4062
   37DOPE   O22 4667   2.459   2.134   3.442 -0.7140 -0.4961  0.1732
   37DOPE   C22 4668   2.583   2.212   3.631 -0.3389 -0.1434 -0.8217
   37DOPE   H2R 4669   2.592   2.301   3.564 -2.2730 -0.4784 -1.6015
   37DOPE   H2S 4670   2.685   2.177   3.655  0.5994  3.4525  0.9831
   37DOPE    C3 4671   2.458   1.753   3.567  0.4135 -0.2468 -0.1389
   37DOPE    HX 4672   2.546   1.721   3.627  1.9986 -0.1336 -2.2733
   37DOPE    HY 4673   2.440   1.675   3.489 -0.1862  1.7539 -2.0912
   37DOPE   O31 4674   2.353   1.763   3.662  0.5439  0.0358  0.5285
   37DOPE   C31 4675   2.230   1.761   3.621  0.0398 -0.4899 -0.1410
   37DOPE   O32 4676   2.191   1.781   3.510  0.1012 -0.3115  0.3134
   37DOPE   C32 4677   2.142   1.743   3.745  0.0866  0.0409  0.4130
   37DOPE   H2X 4678   2.197   1.673   3.812  1.0300  0.6453  0.2856
   37DOPE   H2Y 4679   2.129   1.842   3.794  1.0827  1.7537 -2.5495
   37DOPE   C23 4680   2.492   2.260   3.747 -0.5174  0.3123 -0.8975
   37DOPE   H3R 4681   2.384   2.271   3.724 -0.5695 -0.3961 -1.0213
   37DOPE   H3S 4682   2.525   2.357   3.789  1.5196 -0.8129  0.2319
   37DOPE   C24 4683   2.499   2.163   3.868  0.0057  0.1842 -0.3243
   37DOPE   H4R 4684   2.603   2.127   3.883 -0.3121 -0.7323 -0.2364
   37DOPE   H4S 4685   2.452   2.064   3.848  0.4092 -0.0360 -0.2107
   37DOPE   C25 4686   2.446   2.216   4.005  0.1836 -0.3944 -0.4530
   37DOPE   H5R 4687   2.337   2.238   3.995  0.7557  3.3883 -0.1032
   37DOPE   H5S 4688   2.490   2.316   4.028  0.1256 -0.5883  0.5444
   37DOPE   C26 4689   2.479   2.116   4.117  0.4615 -0.2741 -0.1103
   37DOPE   H6R 4690   2.483   2.169   4.214 -1.0604 -1.7950  0.8295
   37DOPE   H6S 4691   2.570   2.059   4.088 -0.6995 -1.6331 -1.2150
   37DOPE   C27 4692   2.379   2.006   4.130  0.1152  0.6746  0.5883
   37DOPE   H7R 4693   2.312   2.004   4.041 -0.9033 -0.4965  1.3446
   37DOPE   H7S 4694   2.315   2.035   4.215 -1.4720 -0.6541 -0.0889
   37DOPE   C28 4695   2.453   1.872   4.158 -0.3064  0.4665 -0.0297
   37DOPE   H8R 4696   2.516   1.896   4.246  0.9363  2.8299 -1.4680
   37DOPE   H8S 4697   2.522   1.847   4.075  1.6068  0.6696  1.4416
   37DOPE   C29 4698   2.353   1.761   4.188  0.0007  0.0635 -0.1168
   37DOPE   H9R 4699   2.279   1.740   4.108  1.2250 -1.2128 -0.9664
   37DOPE  C210 4700   2.341   1.687   4.299  0.7986 -0.0156  0.2538
   37DOPE  H10R 4701   2.268   1.605   4.293  1.8855 -0.9599 -0.5435
   37DOPE  C211 4702   2.414   1.708   4.430 -0.1649  0.4612 -0.3398
   37DOPE  H11R 4703   2.349   1.716   4.520  1.6727 -2.1689  1.3802
   37DOPE  H11S 4704   2.466   1.806   4.434 -1.9623  1.4147  1.3596
   37DOPE  C212 4705   2.505   1.587   4.466  0.1518  0.8721 -0.0831
   37DOPE  H12R 4706   2.587   1.588   4.391  0.7279  1.9880  0.5325
   37DOPE  H12S 4707   2.452   1.490   4.478 -0.1221  1.2051  1.6966
   37DOPE  C213 4708   2.575   1.616   4.598 -0.1904  0.2301 -0.7125
   37DOPE  H13R 4709   2.498   1.626   4.677  1.3421 -0.1672  0.9024
   37DOPE  H13S 4710   2.629   1.713   4.592  1.6192 -0.7102 -0.2018
   37DOPE  C214 4711   2.660   1.496   4.646  0.1714  1.0212  0.1053
   37DOPE  H14R 4712   2.732   1.467   4.566 -0.5678 -3.3692  0.7625
   37DOPE  H14S 4713   2.590   1.410   4.652 -0.9383  1.7376 -1.6143
   37DOPE  C215 4714   2.742   1.516   4.774  0.3205  0.0220 -0.1714
   37DOPE  H15R 4715   2.675   1.559   4.851 -0.0130  2.3222 -1.6579
   37DOPE  H15S 4716   2.832   1.580   4.762  1.2693 -0.7346  2.4518
   37DOPE  C216 4717   2.784   1.376   4.821  0.2238  0.1983 -0.1469
   37DOPE  H16R 4718   2.869   1.339   4.759  0.2899  1.5533 -0.9144
   37DOPE  H16S 4719   2.693   1.313   4.817 -1.6664  2.7338  0.3781
   37DOPE  C217 4720   2.841   1.369   4.966 -0.1028 -0.5092  0.6873
   37DOPE  H17R 4721   2.848   1.262   4.995 -0.1793 -0.8282 -0.4261
   37DOPE  H17S 4722   2.763   1.416   5.030 -1.8353  1.0759 -2.3280
   37DOPE  C218 4723   2.980   1.425   4.995 -0.7465 -0.3814 -0.2192
   37DOPE  H18R 4724   3.061   1.382   4.932  1.8402 -0.4912  2.9323
   37DOPE  H18S 4725   3.005   1.386   5.096  0.0721 -0.7807 -0.5575
   37DOPE  H18T 4726   2.975   1.536   4.997 -0.5273 -0.2960 -2.2013
   37DOPE   C33 4727   2.013   1.668   3.708 -0.1261  0.1930 -0.4763
   37DOPE   H3X 4728   2.026   1.601   3.620 -0.0215 -0.0684 -0.2628
   37DOPE   H3Y 4729   1.938   1.745   3.680 -1.0848 -0.7728 -0.6369
   37DOPE   C34 4730   1.963   1.574   3.821 -0.7196 -0.5265  0.2676
   37DOPE   H4X 4731   2.048   1.525   3.872 -1.7089 -1.2279  1.2921
   37DOPE   H4Y 4732   1.919   1.642   3.897 -4.0831 -1.1331 -0.9650
   37DOPE   C35 4733   1.870   1.463   3.776 -0.2827  0.0343  0.4221
   37DOPE   H5X 4734   1.912   1.416   3.684  0.8177 -0.0946  0.9658
   37DOPE   H5Y 4735   1.768   1.496   3.748 -0.0960  1.0463  0.8757
   37DOPE   C36 4736   1.857   1.352   3.885 -0.0441 -0.3438  0.1958
   37DOPE   H6X 4737   1.954   1.335   3.937  0.2553 -0.4583 -0.3867
   37DOPE   H6Y 4738   1.828   1.256   3.838  0.5527  0.3870 -1.7550
   37DOPE   C37 4739   1.752   1.390   3.981  0.2325 -0.2021 -0.3184
   37DOPE   H7X 4740   1.790   1.481   4.033 -0.4655 -0.7339  1.1646
   37DOPE   H7Y 4741   1.652   1.417   3.940  0.0032 -0.1284  0.2767
   37DOPE   C38 4742   1.748   1.282   4.088 -0.0791 -0.0343 -0.5980
   37DOPE   H8X 4743   1.722   1.327   4.187  0.4802 -0.3301 -0.3116
   37DOPE   H8Y 4744   1.852   1.245   4.103 -0.0895 -0.5457 -1.7110
   37DOPE   C39 4745   1.649   1.173   4.048 -0.2008 -0.4083 -0.8323
   37DOPE   H9X 4746   1.655   1.117   3.954  0.2850  0.2508 -1.1971
   37DOPE  C310 4747   1.553   1.123   4.123  0.1101  0.2687  0.3941
   37DOPE  H10X 4748   1.478   1.057   4.077 -0.6431  1.3857 -0.0058
   37DOPE  C311 4749   1.514   1.177   4.259 -0.5218  0.2567  0.3420
   37DOPE  H11X 4750   1.525   1.287   4.260 -0.9957  0.4085 -2.6535
   37DOPE  H11Y 4751   1.403   1.170   4.259 -0.6132  0.0359 -3.3204
   37DOPE  C312 4752   1.568   1.113   4.383 -0.5684  0.3773 -0.1478
   37DOPE  H12X 4753   1.677   1.095   4.374 -0.8179 -1.1047 -0.4930
   37DOPE  H12Y 4754   1.514   1.018   4.399 -1.3680  0.5019 -1.8222
   37DOPE  C313 4755   1.559   1.207   4.509  0.1379  0.6408 -0.2676
   37DOPE  H13X 4756   1.551   1.313   4.478 -0.1029 -0.2001 -3.3779
   37DOPE  H13Y 4757   1.470   1.176   4.568  0.0725  2.4844  0.6928
   37DOPE  C314 4758   1.687   1.181   4.597  0.1351  0.0043 -0.2589
   37DOPE  H14X 4759   1.771   1.220   4.535 -1.9635  1.6951 -2.2547
   37DOPE  H14Y 4760   1.702   1.071   4.597 -0.9960 -0.1655 -0.4167
   37DOPE  C315 4761   1.685   1.254   4.730 -0.3547 -0.5280  0.6561
   37DOPE  H15X 4762   1.630   1.350   4.719 -1.1824 -0.8797  1.5171
   37DOPE  H15Y 4763   1.789   1.281   4.759  0.4401 -0.1362 -2.2640
   37DOPE  C316 4764   1.629   1.166   4.835  0.3109 -0.0160 -0.6908
   37DOPE  H16X 4765   1.570   1.081   4.796  0.4870  0.2795 -1.6222
   37DOPE  H16Y 4766   1.572   1.233   4.904  1.0750 -0.2912  0.2317
   37DOPE  C317 4767   1.744   1.105   4.918  0.0600  0.1373  0.9830
   37DOPE  H17X 4768   1.800   1.035   4.853 -0.0096 -0.8012  1.9014
   37DOPE  H17Y 4769   1.805   1.191   4.953  1.9932 -1.4892  1.8142
   37DOPE  C318 4770   1.697   1.023   5.038  0.2666 -0.5357 -0.3245
   37DOPE  H18X 4771   1.622   0.947   5.010 -0.6519  0.6359 -1.1165
   37DOPE  H18Y 4772   1.793   0.973   5.063  1.4421  2.0648  0.7088
   37DOPE  H18Z 4773   1.673   1.078   5.131  0.4432 -1.5523  0.3416
   38DOPE     N 4774   5.468   5.338   2.985  0.2746 -0.0268 -0.3507
   38DOPE   HN1 4775   5.493   5.321   2.886 -1.3942  2.2594 -1.2329
   38DOPE   HN2 4776   5.367   5.360   2.997 -0.0297 -1.8085  0.8322
   38DOPE   HN3 4777   5.522   5.404   3.045 -0.8755  1.7854 -1.2404
   38DOPE   C12 4778   5.473   5.206   3.056  0.1544 -0.5314  0.3541
   38DOPE  H12A 4779   5.580   5.176   3.062  0.1850 -0.6545 -0.6384
   38DOPE  H12B 4780   5.417   5.131   2.997  0.2991  0.2516 -0.8290
   38DOPE   C11 4781   5.426   5.222   3.198 -0.0185 -0.2992  0.5949
   38DOPE  H11A 4782   5.489   5.300   3.247  0.8556  1.1965 -2.6188
   38DOPE  H11B 4783   5.462   5.127   3.244  2.2251  0.0566 -0.2620
   38DOPE     P 4784   5.186   5.143   3.230  0.1331 -0.0291  0.6747
   38DOPE   O13 4785   5.172   5.080   3.098 -0.1337 -0.2494  0.5233
   38DOPE   O14 4786   5.064   5.209   3.279 -0.1353 -0.3026  0.6196
   38DOPE   O11 4787   5.249   5.043   3.339  0.2356 -0.4879  0.2585
   38DOPE   O12 4788   5.292   5.258   3.208 -0.0824  0.6482  0.2384
   38DOPE    C1 4789   5.296   5.092   3.464  0.0296 -0.2484  0.6526
   38DOPE    HA 4790   5.211   5.133   3.522  0.6506  1.8171  0.1660
   38DOPE    HB 4791   5.358   5.183   3.455 -2.6607  1.5194 -1.5168
   38DOPE    C2 4792   5.384   4.990   3.549 -0.0399  0.0505 -0.1015
   38DOPE    HS 4793   5.456   4.944   3.478  2.7522  4.1554 -0.2561
   38DOPE   O21 4794   5.303   4.880   3.601  0.2519 -0.9791  0.3588
   38DOPE   C21 4795   5.381   4.782   3.660  0.2552 -0.5385  0.1765
   38DOPE   O22 4796   5.499   4.787   3.675 -0.1067 -0.2886 -0.6823
   38DOPE   C22 4797   5.289   4.674   3.703  0.4783  0.3967  0.3467
   38DOPE   H2R 4798   5.187   4.717   3.699  0.7189  1.1094  1.3150
   38DOPE   H2S 4799   5.307   4.642   3.808  0.5004 -0.0732  0.2010
   38DOPE    C3 4800   5.454   5.071   3.660 -0.2527 -0.3220 -0.2023
   38DOPE    HX 4801   5.531   5.139   3.618  2.0632 -2.0832  0.9608
   38DOPE    HY 4802   5.525   5.014   3.724  0.7889  3.4373  2.3036
   38DOPE   O31 4803   5.369   5.156   3.737 -0.3014 -0.4328 -0.1190
   38DOPE   C31 4804   5.318   5.096   3.845 -1.0747 -0.9831  0.2877
   38DOPE   O32 4805   5.328   4.983   3.882  0.0440  0.1835  0.2018
   38DOPE   C32 4806   5.234   5.197   3.902 -0.0573  0.3358  0.4431
   38DOPE   H2X 4807   5.295   5.290   3.912  1.0525 -0.4853  1.8909
   38DOPE   H2Y 4808   5.145   5.211   3.838 -2.3460 -2.1121  2.7933
   38DOPE   C23 4809   5.320   4.548   3.609  0.1945 -0.4310 -0.1827
   38DOPE   H3R 4810   5.346   4.580   3.506  2.6066 -0.6500  0.2977
   38DOPE   H3S 4811   5.225   4.491   3.615 -0.7866  1.2277  1.1576
   38DOPE   C24 4812   5.437   4.455   3.661 -0.6522 -0.3849 -0.1855
   38DOPE   H4R 4813   5.446   4.446   3.771  0.1970 -3.0356 -0.4025
   38DOPE   H4S 4814   5.538   4.489   3.630 -0.0232 -1.0865  1.0259
   38DOPE   C25 4815   5.422   4.303   3.625  0.2437  0.2043  0.3815
   38DOPE   H5R 4816   5.328   4.266   3.671  0.2394 -2.4988 -1.5379
   38DOPE   H5S 4817   5.500   4.233   3.663  0.1648 -0.3533 -0.4469
   38DOPE   C26 4818   5.396   4.283   3.474  0.0070  0.3768  0.2850
   38DOPE   H6R 4819   5.482   4.334   3.426 -1.2500  0.8939 -1.5248
   38DOPE   H6S 4820   5.313   4.353   3.449 -0.9527 -0.5341  0.8273
   38DOPE   C27 4821   5.383   4.145   3.411  0.9949  0.4134  0.1289
   38DOPE   H7R 4822   5.446   4.072   3.466  1.5079  1.5311  1.0684
   38DOPE   H7S 4823   5.420   4.155   3.307 -0.3307  0.8994 -0.3124
   38DOPE   C28 4824   5.238   4.093   3.387 -0.6090 -0.0030  0.0446
   38DOPE   H8R 4825   5.234   4.007   3.316  1.1747 -0.8942  0.9630
   38DOPE   H8S 4826   5.186   4.177   3.335  1.8894  1.2847 -0.5542
   38DOPE   C29 4827   5.185   4.075   3.526 -0.2328  0.1501 -0.2451
   38DOPE   H9R 4828   5.144   4.163   3.577 -1.5128  0.0053 -0.9711
   38DOPE  C210 4829   5.165   3.958   3.587 -0.0316  0.3438  0.2276
   38DOPE  H10R 4830   5.141   3.958   3.694  1.9613  4.4386  0.8931
   38DOPE  C211 4831   5.185   3.825   3.520 -0.2733  0.7023  0.0465
   38DOPE  H11R 4832   5.209   3.833   3.412  2.3303 -0.0319  0.5217
   38DOPE  H11S 4833   5.090   3.767   3.523  1.4119 -2.1816  0.7176
   38DOPE  C212 4834   5.301   3.732   3.567 -0.4735  0.0169  0.2776
   38DOPE  H12R 4835   5.332   3.739   3.673 -1.5443 -0.8110  0.6624
   38DOPE  H12S 4836   5.391   3.775   3.517 -0.5231 -0.1225  0.0638
   38DOPE  C213 4837   5.290   3.585   3.529  0.9004  0.3219 -0.0272
   38DOPE  H13R 4838   5.389   3.536   3.520 -0.5175 -2.3911 -3.1436
   38DOPE  H13S 4839   5.260   3.586   3.422 -0.9207  1.3024  0.4436
   38DOPE  C214 4840   5.182   3.522   3.619 -0.1688  0.3520  0.4825
   38DOPE  H14R 4841   5.087   3.577   3.637 -0.8246 -0.7689  0.5315
   38DOPE  H14S 4842   5.223   3.525   3.723  0.1351 -2.7521  0.5314
   38DOPE  C215 4843   5.164   3.376   3.576  0.3416  0.4147 -0.4566
   38DOPE  H15R 4844   5.093   3.339   3.653  1.3913 -1.5764 -0.3538
   38DOPE  H15S 4845   5.261   3.320   3.575  0.5568  0.7761  0.1068
   38DOPE  C216 4846   5.088   3.357   3.441 -1.0012 -0.4614  0.4998
   38DOPE  H16R 4847   5.159   3.383   3.359 -1.6406  2.1350  0.6644
   38DOPE  H16S 4848   5.012   3.439   3.438 -0.0675  0.5228  2.2952
   38DOPE  C217 4849   5.028   3.220   3.424  0.7170  0.9175 -0.1656
   38DOPE  H17R 4850   4.948   3.225   3.500  1.6019  2.0428  0.7291
   38DOPE  H17S 4851   5.097   3.135   3.446  0.5412  1.0479  0.9327
   38DOPE  C218 4852   4.973   3.200   3.284 -0.4909  0.4066  0.3972
   38DOPE  H18R 4853   5.052   3.245   3.219 -0.0370 -0.2817  0.4699
   38DOPE  H18S 4854   4.882   3.260   3.262  0.5150  1.9475  0.2711
   38DOPE  H18T 4855   4.966   3.094   3.252  0.4009  1.1647 -2.6874
   38DOPE   C33 4856   5.184   5.160   4.042 -0.0923  0.2392  0.1739
   38DOPE   H3X 4857   5.276   5.142   4.102  0.6034  1.3961 -0.4931
   38DOPE   H3Y 4858   5.132   5.063   4.050  2.0905 -0.8991  1.4479
   38DOPE   C34 4859   5.082   5.265   4.093 -0.2278 -0.8380 -0.0205
   38DOPE   H4X 4860   5.004   5.279   4.015  0.6438 -1.2053 -0.9949
   38DOPE   H4Y 4861   5.030   5.227   4.183  0.6965 -0.7630  0.5571
   38DOPE   C35 4862   5.145   5.400   4.125 -0.0583 -0.2968  0.0117
   38DOPE   H5X 4863   5.073   5.483   4.140 -1.3550 -1.8269  3.4440
   38DOPE   H5Y 4864   5.203   5.430   4.036  0.0699  2.3360  0.8734
   38DOPE   C36 4865   5.236   5.389   4.252  0.1812 -0.8222 -0.0541
   38DOPE   H6X 4866   5.285   5.489   4.259 -0.7310 -0.3791  0.0413
   38DOPE   H6Y 4867   5.316   5.315   4.229 -1.0838 -2.1514 -0.3269
   38DOPE   C37 4868   5.178   5.352   4.385 -0.3798 -0.0060 -0.4269
   38DOPE   H7X 4869   5.198   5.429   4.461 -2.3537  0.9373 -0.7955
   38DOPE   H7Y 4870   5.067   5.351   4.382 -0.4019 -0.3157  0.4264
   38DOPE   C38 4871   5.229   5.215   4.433 -0.1327 -0.7448 -0.2378
   38DOPE   H8X 4872   5.334   5.241   4.458 -0.3254 -0.7196  0.6097
   38DOPE   H8Y 4873   5.224   5.149   4.345  1.8519 -1.3274  0.0282
   38DOPE   C39 4874   5.167   5.161   4.557  1.0568  0.1503  0.2317
   38DOPE   H9X 4875   5.209   5.186   4.655 -2.3459  0.4160  1.7696
   38DOPE  C310 4876   5.061   5.076   4.560 -0.7857 -0.2819  0.2073
   38DOPE  H10X 4877   5.020   5.042   4.656 -0.4575  0.6331  0.6829
   38DOPE  C311 4878   4.992   5.038   4.431  0.3928 -0.6707 -0.1776
   38DOPE  H11X 4879   4.883   5.033   4.454  0.6884  2.7831  2.9365
   38DOPE  H11Y 4880   5.001   5.111   4.347 -0.4738 -1.8083 -1.3057
   38DOPE  C312 4881   5.050   4.911   4.377 -0.0399 -0.4116  0.4598
   38DOPE  H12X 4882   5.152   4.889   4.418 -0.4939  0.1350  1.9705
   38DOPE  H12Y 4883   5.039   4.910   4.267  1.1027  0.0177  0.3233
   38DOPE  C313 4884   4.961   4.781   4.420  0.2636  0.7140 -0.1790
   38DOPE  H13X 4885   5.025   4.695   4.391 -0.6491 -0.1185  0.2318
   38DOPE  H13Y 4886   4.954   4.783   4.531 -0.0459 -1.2126 -0.1387
   38DOPE  C314 4887   4.828   4.760   4.349  0.0083 -0.0446  0.1685
   38DOPE  H14X 4888   4.852   4.750   4.241  0.4932  3.0249 -0.0864
   38DOPE  H14Y 4889   4.758   4.846   4.351  1.5891  1.2988 -0.4762
   38DOPE  C315 4890   4.747   4.637   4.388 -0.9626 -0.2908  0.1948
   38DOPE  H15X 4891   4.739   4.625   4.498  2.6394 -0.4494  0.5710
   38DOPE  H15Y 4892   4.801   4.543   4.365 -0.1861  0.9132 -3.6269
   38DOPE  C316 4893   4.604   4.617   4.315 -0.6748 -1.0039  0.0680
   38DOPE  H16X 4894   4.578   4.512   4.338  0.3631 -1.2275  0.2929
   38DOPE  H16Y 4895   4.639   4.626   4.210  1.3339  0.3013  0.7776
   38DOPE  C317 4896   4.495   4.712   4.366  0.2472  0.0033  0.3150
   38DOPE  H17X 4897   4.536   4.815   4.354 -0.8408  0.2240 -2.2546
   38DOPE  H17Y 4898   4.404   4.709   4.302 -0.5036  2.2147  1.2069
   38DOPE  C318 4899   4.454   4.691   4.516 -1.1116  0.1839  0.1110
   38DOPE  H18X 4900   4.373   4.759   4.550 -1.6063 -0.6439  0.6299
   38DOPE  H18Y 4901   4.425   4.585   4.531  3.2707 -1.6493 -2.4267
   38DOPE  H18Z 4902   4.526   4.723   4.594 -2.2888  0.7338  1.0051
   39DOPE     N 4903   2.232   3.785   3.328 -0.2920 -0.1025  0.3039
   39DOPE   HN1 4904   2.316   3.726   3.310 -0.7629 -0.9027  0.6606
   39DOPE   HN2 4905   2.250   3.859   3.257  1.8378 -0.2594  0.6096
   39DOPE   HN3 4906   2.233   3.828   3.423  1.1263  0.0509  0.2417
   39DOPE   C12 4907   2.116   3.702   3.291 -0.3392  0.5375  0.2122
   39DOPE  H12A 4908   2.126   3.684   3.182 -0.9610  1.4533 -0.0066
   39DOPE  H12B 4909   2.027   3.764   3.313 -0.0839  0.9066  0.2147
   39DOPE   C11 4910   2.118   3.563   3.364 -0.3089 -0.7520  0.0966
   39DOPE  H11A 4911   2.017   3.522   3.343 -0.0242 -0.5288 -1.8868
   39DOPE  H11B 4912   2.130   3.562   3.475  1.0818 -1.9107 -0.0409
   39DOPE     P 4913   2.362   3.456   3.299 -0.3546 -0.4981  0.1561
   39DOPE   O13 4914   2.432   3.585   3.274  0.5524 -0.4278 -0.0205
   39DOPE   O14 4915   2.397   3.350   3.203 -0.7124  0.2157 -0.5350
   39DOPE   O11 4916   2.390   3.415   3.448  0.1868 -0.4850  0.1555
   39DOPE   O12 4917   2.203   3.472   3.299 -0.2067 -0.3737 -0.1326
   39DOPE    C1 4918   2.323   3.302   3.498  0.1249  0.0925 -0.4209
   39DOPE    HA 4919   2.329   3.215   3.429 -2.0265 -0.0062 -0.5341
   39DOPE    HB 4920   2.213   3.320   3.496  0.2404  0.8879 -0.0784
   39DOPE    C2 4921   2.376   3.247   3.635  0.5506 -0.4981  0.3499
   39DOPE    HS 4922   2.315   3.160   3.668  0.3931 -0.3500  0.4547
   39DOPE   O21 4923   2.374   3.343   3.737 -1.2116 -0.4133  0.3168
   39DOPE   C21 4924   2.264   3.401   3.773 -0.4376 -0.4424  0.3391
   39DOPE   O22 4925   2.153   3.373   3.738  0.3014  0.2825  0.5516
   39DOPE   C22 4926   2.307   3.516   3.865  1.0273 -0.1275  0.5747
   39DOPE   H2R 4927   2.304   3.607   3.802 -0.8595 -1.3393 -1.1975
   39DOPE   H2S 4928   2.405   3.505   3.916 -0.0268 -0.1986  2.7281
   39DOPE    C3 4929   2.518   3.205   3.604 -0.1938  0.0505 -0.1379
   39DOPE    HX 4930   2.578   3.291   3.569 -0.1802 -0.0416 -0.3486
   39DOPE    HY 4931   2.518   3.130   3.522  1.9202 -1.6695  1.3229
   39DOPE   O31 4932   2.573   3.146   3.719 -0.8352 -0.1695  0.2130
   39DOPE   C31 4933   2.707   3.121   3.719 -0.3240  0.3384 -0.2576
   39DOPE   O32 4934   2.781   3.132   3.620  0.1323 -0.2785 -0.5949
   39DOPE   C32 4935   2.745   3.056   3.849 -0.1522  0.1744 -0.4633
   39DOPE   H2X 4936   2.747   3.129   3.932  3.2141 -2.2085  1.7804
   39DOPE   H2Y 4937   2.668   2.977   3.862  2.1239 -1.8451  1.6382
   39DOPE   C23 4938   2.198   3.550   3.973 -0.0655  1.1086  0.1644
   39DOPE   H3R 4939   2.186   3.455   4.029  0.1313 -0.2732 -2.0307
   39DOPE   H3S 4940   2.104   3.565   3.915  0.5524  0.6496 -0.9835
   39DOPE   C24 4941   2.241   3.657   4.066 -0.7631 -0.2057 -0.6201
   39DOPE   H4R 4942   2.311   3.615   4.141 -1.4993  3.7728  2.6124
   39DOPE   H4S 4943   2.157   3.685   4.133 -2.1804 -0.7245 -2.1140
   39DOPE   C25 4944   2.296   3.781   4.003  0.0653  0.3311  0.0092
   39DOPE   H5R 4945   2.228   3.827   3.928 -0.2952  0.2880  0.3103
   39DOPE   H5S 4946   2.394   3.745   3.964 -0.5735 -2.1030  0.4818
   39DOPE   C26 4947   2.317   3.907   4.098  0.0044 -0.1466  0.0007
   39DOPE   H6R 4948   2.402   3.963   4.054 -0.6554  1.8554  1.1444
   39DOPE   H6S 4949   2.339   3.873   4.202  0.5695  0.6549  0.1523
   39DOPE   C27 4950   2.191   4.002   4.105  0.5443  0.0915  0.1729
   39DOPE   H7R 4951   2.098   3.943   4.118 -0.2457  1.3690  0.5203
   39DOPE   H7S 4952   2.187   4.054   4.007  0.8193  1.1615  0.7139
   39DOPE   C28 4953   2.188   4.119   4.204 -0.1838  0.0607  0.1445
   39DOPE   H8R 4954   2.085   4.159   4.206 -0.9981 -1.7661 -1.5649
   39DOPE   H8S 4955   2.256   4.196   4.163 -0.3310  0.4898  0.7017
   39DOPE   C29 4956   2.221   4.069   4.345  0.1268 -0.2024  0.5508
   39DOPE   H9R 4957   2.323   4.030   4.355  0.8620  1.5464  0.1203
   39DOPE  C210 4958   2.139   4.033   4.443 -0.4410  0.2223  0.1165
   39DOPE  H10R 4959   2.191   3.994   4.532  0.2184 -1.1896 -0.8655
   39DOPE  C211 4960   1.989   4.024   4.435  0.6749 -0.3939 -0.6938
   39DOPE  H11R 4961   1.962   3.921   4.466  0.9598 -0.1394  0.4495
   39DOPE  H11S 4962   1.949   4.033   4.332 -0.6094 -0.4728 -0.2180
   39DOPE  C212 4963   1.926   4.135   4.522  0.4251  0.5187  0.8240
   39DOPE  H12R 4964   1.959   4.235   4.487  0.3510  0.0378 -0.6879
   39DOPE  H12S 4965   1.971   4.124   4.623  1.9173  1.3694  0.2832
   39DOPE  C213 4966   1.771   4.144   4.533  0.6689 -0.2203  0.0146
   39DOPE  H13R 4967   1.745   4.171   4.429 -1.4750 -0.4727  0.4452
   39DOPE  H13S 4968   1.743   4.225   4.604 -0.0785  0.1452 -0.6801
   39DOPE  C214 4969   1.702   4.014   4.566  1.1979 -0.2339  1.2437
   39DOPE  H14R 4970   1.731   3.947   4.483  0.3221  1.0191 -0.1353
   39DOPE  H14S 4971   1.592   4.022   4.547  1.5806 -0.9259 -1.7094
   39DOPE  C215 4972   1.739   3.966   4.704 -0.2249  0.5036 -0.5493
   39DOPE  H15R 4973   1.842   3.925   4.711 -0.5269 -0.1837 -0.0059
   39DOPE  H15S 4974   1.660   3.890   4.722 -0.7048  0.6132 -2.0770
   39DOPE  C216 4975   1.718   4.069   4.818 -0.5844  0.2678  0.2405
   39DOPE  H16R 4976   1.782   4.160   4.815 -0.5239  0.3644  2.5182
   39DOPE  H16S 4977   1.750   4.024   4.914 -1.2982  1.6214  1.1547
   39DOPE  C217 4978   1.569   4.105   4.839  0.3402  0.2487  0.9142
   39DOPE  H17R 4979   1.515   4.008   4.851 -0.9280  0.7651 -0.4110
   39DOPE  H17S 4980   1.523   4.148   4.747 -1.9666  0.2212  1.9908
   39DOPE  C218 4981   1.542   4.194   4.959  0.0078  0.3432  0.0806
   39DOPE  H18R 4982   1.606   4.179   5.049  0.7578 -0.0723 -0.5047
   39DOPE  H18S 4983   1.433   4.191   4.981 -0.4912  0.3598 -2.2044
   39DOPE  H18T 4984   1.564   4.297   4.925  1.0951  0.8839  2.2040
   39DOPE   C33 4985   2.885   2.991   3.828  0.6129  0.3780 -0.0488
   39DOPE   H3X 4986   2.968   3.064   3.829  0.1156  0.9525  0.1347
   39DOPE   H3Y 4987   2.878   2.946   3.726 -2.1198 -0.1638  0.3031
   39DOPE   C34 4988   2.920   2.877   3.923 -0.4087 -0.1348  0.5157
   39DOPE   H4X 4989   2.836   2.804   3.932  0.2041 -1.0134 -0.6089
   39DOPE   H4Y 4990   3.019   2.830   3.906  0.2228  1.2766  0.1932
   39DOPE   C35 4991   2.933   2.939   4.056 -0.3142 -0.2554 -0.3919
   39DOPE   H5X 4992   2.836   2.965   4.103 -0.5570 -1.6082 -0.0994
   39DOPE   H5Y 4993   2.986   3.037   4.053 -0.5190 -0.1269  0.1727
   39DOPE   C36 4994   3.013   2.851   4.162  0.4913  0.0194  0.2840
   39DOPE   H6X 4995   3.121   2.862   4.136  0.3230  1.3384  0.0512
   39DOPE   H6Y 4996   2.974   2.747   4.165 -1.9966  0.8801  0.1610
   39DOPE   C37 4997   2.997   2.910   4.301  0.3546  0.1982 -0.6200
   39DOPE   H7X 4998   3.058   3.003   4.301  2.6319 -1.2025  0.6293
   39DOPE   H7Y 4999   2.894   2.948   4.315  0.6999  0.9747 -0.0830
   39DOPE   C38 5000   3.041   2.817   4.422 -0.4241 -0.8677 -0.3595
   39DOPE   H8X 5001   3.136   2.778   4.381 -0.7834 -1.4073 -0.7000
   39DOPE   H8Y 5002   2.970   2.731   4.428 -0.9726 -0.5356 -1.6315
   39DOPE   C39 5003   3.047   2.893   4.549 -0.7615  0.5720  0.8113
   39DOPE   H9X 5004   3.092   2.992   4.533  0.1534  0.4020  2.1432
   39DOPE  C310 5005   3.001   2.850   4.671 -0.3261  0.1475  0.5876
   39DOPE  H10X 5006   3.016   2.916   4.758  0.9204  1.0989 -0.3063
   39DOPE  C311 5007   2.946   2.716   4.702 -0.8578 -0.6640 -0.4417
   39DOPE  H11X 5008   2.837   2.733   4.708 -0.2540  4.1498  1.3458
   39DOPE  H11Y 5009   2.965   2.634   4.628  2.7204 -1.2374  0.9136
   39DOPE  C312 5010   2.982   2.663   4.844 -0.1836  1.7775  0.3249
   39DOPE  H12X 5011   3.090   2.636   4.844 -1.1929 -3.2569 -0.2223
   39DOPE  H12Y 5012   2.920   2.570   4.848  2.6514 -0.3691 -1.3083
   39DOPE  C313 5013   2.954   2.751   4.958  0.5605 -0.7064 -0.3526
   39DOPE  H13X 5014   3.027   2.835   4.949  0.4908 -0.8537 -3.2660
   39DOPE  H13Y 5015   2.856   2.803   4.946  1.2023  1.0611  1.4815
   39DOPE  C314 5016   2.969   2.694   5.100 -0.3120 -0.0186 -0.9356
   39DOPE  H14X 5017   3.053   2.622   5.103  0.8463  1.1131  4.3485
   39DOPE  H14Y 5018   2.879   2.637   5.133  0.7091 -1.0786  0.1096
   39DOPE  C315 5019   2.994   2.806   5.207 -0.2343  0.0936  0.4735
   39DOPE  H15X 5020   2.931   2.891   5.175 -0.9107 -1.0988 -1.5778
   39DOPE  H15Y 5021   3.099   2.840   5.222 -0.2854 -0.0127  1.0775
   39DOPE  C316 5022   2.963   2.765   5.349  0.7612 -0.3280 -0.4261
   39DOPE  H16X 5023   3.036   2.687   5.381  1.6809  1.4656  2.2230
   39DOPE  H16Y 5024   2.860   2.724   5.357  0.3548  0.3825 -1.7412
   39DOPE  C317 5025   2.987   2.881   5.456 -0.7499 -0.0714  0.7230
   39DOPE  H17X 5026   3.089   2.919   5.434 -0.3411 -0.6260  1.6174
   39DOPE  H17Y 5027   2.926   2.974   5.451  0.4545  0.8664  2.3142
   39DOPE  C318 5028   2.997   2.847   5.607 -0.0933  0.2421  0.4243
   39DOPE  H18X 5029   3.059   2.759   5.636 -1.5405 -1.1735 -0.6041
   39DOPE  H18Y 5030   3.028   2.939   5.662 -1.1897  1.9416 -1.6362
   39DOPE  H18Z 5031   2.898   2.812   5.642  0.8621 -2.2034  0.8718
   40DOPE     N 5032   4.446   5.827   3.001  0.0884 -0.0155 -0.2072
   40DOPE   HN1 5033   4.460   5.930   2.999  2.8000 -0.3006  0.9888
   40DOPE   HN2 5034   4.501   5.795   3.083 -3.5936  0.5945  2.8087
   40DOPE   HN3 5035   4.465   5.782   2.909 -1.7497 -2.0449  0.3098
   40DOPE   C12 5036   4.303   5.796   3.041  0.4097  0.1803  0.1739
   40DOPE  H12A 5037   4.233   5.798   2.955 -1.5499  0.7073  1.7023
   40DOPE  H12B 5038   4.263   5.867   3.117 -0.8576 -1.1254  0.7680
   40DOPE   C11 5039   4.294   5.662   3.122 -0.1244 -0.5616 -0.4624
   40DOPE  H11A 5040   4.191   5.647   3.161  0.8483 -1.4395  1.9256
   40DOPE  H11B 5041   4.367   5.688   3.202  0.6807 -1.9294 -0.7304
   40DOPE     P 5042   4.251   5.470   2.951  0.5264 -0.1130 -0.1348
   40DOPE   O13 5043   4.318   5.340   2.920  0.1953 -0.6359  0.2085
   40DOPE   O14 5044   4.219   5.557   2.834  0.4144  0.2862  0.0275
   40DOPE   O11 5045   4.113   5.444   3.029  0.9776  0.3379  0.2977
   40DOPE   O12 5046   4.337   5.549   3.048 -0.1295 -0.2557  0.2816
   40DOPE    C1 5047   4.112   5.332   3.118 -0.3562 -0.6645  0.5855
   40DOPE    HA 5048   4.203   5.342   3.181 -1.6935 -2.3931  2.9258
   40DOPE    HB 5049   4.126   5.235   3.066  2.4934 -1.2885  2.3205
   40DOPE    C2 5050   4.002   5.332   3.231  0.5255  0.2418  0.5254
   40DOPE    HS 5051   3.907   5.342   3.174  1.4299  0.6651 -0.9584
   40DOPE   O21 5052   4.018   5.438   3.329  0.3458  0.2346 -0.5638
   40DOPE   C21 5053   3.972   5.549   3.297  0.5037 -0.5538 -0.7457
   40DOPE   O22 5054   3.892   5.571   3.208  0.1477 -0.4052  0.3984
   40DOPE   C22 5055   4.019   5.652   3.404  0.0388 -0.4906  0.8292
   40DOPE   H2R 5056   4.130   5.657   3.397 -0.0299 -1.4006 -1.6463
   40DOPE   H2S 5057   4.010   5.603   3.504  2.4892 -1.8034  0.4845
   40DOPE    C3 5058   3.985   5.208   3.320  0.7593 -0.3494 -0.0271
   40DOPE    HX 5059   4.087   5.168   3.341  0.5297 -1.3673 -0.7625
   40DOPE    HY 5060   3.933   5.131   3.260  0.3754 -0.6826  0.7250
   40DOPE   O31 5061   3.919   5.236   3.447 -0.1068 -0.1802  0.2368
   40DOPE   C31 5062   3.790   5.276   3.428  0.2005  0.1853 -0.1762
   40DOPE   O32 5063   3.728   5.277   3.327  0.0973 -0.3352  0.6179
   40DOPE   C32 5064   3.737   5.315   3.567  0.6887 -0.4177  0.1706
   40DOPE   H2X 5065   3.626   5.315   3.565  0.6843 -0.9823 -2.3733
   40DOPE   H2Y 5066   3.762   5.241   3.646  1.0961  0.0708  0.5075
   40DOPE   C23 5067   3.953   5.790   3.399 -0.5358 -0.1188 -0.1155
   40DOPE   H3R 5068   3.846   5.770   3.424 -0.4453 -0.7304 -0.1889
   40DOPE   H3S 5069   3.953   5.829   3.295  1.5144  1.4369  0.4271
   40DOPE   C24 5070   4.019   5.885   3.508  0.3406  0.5607  0.6690
   40DOPE   H4R 5071   4.100   5.943   3.457  0.1497  1.6103  1.5203
   40DOPE   H4S 5072   4.059   5.821   3.589  0.0495 -0.7775 -0.2236
   40DOPE   C25 5073   3.916   5.987   3.559 -0.0408  0.1939 -0.3114
   40DOPE   H5R 5074   3.837   5.925   3.606  1.6941 -1.5255  0.4596
   40DOPE   H5S 5075   3.879   6.052   3.477  0.1493  1.6945  0.7568
   40DOPE   C26 5076   3.983   6.081   3.664 -0.4349 -0.7746 -0.1573
   40DOPE   H6R 5077   4.068   6.142   3.624  1.7295 -1.1856  3.4229
   40DOPE   H6S 5078   4.006   6.021   3.754  0.7177  0.9210  0.7600
   40DOPE   C27 5079   3.886   6.191   3.728  0.3923  0.5367  0.5502
   40DOPE   H7R 5080   3.804   6.133   3.776 -0.8382 -0.5737 -2.6308
   40DOPE   H7S 5081   3.848   6.259   3.650 -1.6021  0.3778  1.3335
   40DOPE   C28 5082   3.954   6.266   3.840 -0.8210  0.1650  0.0327
   40DOPE   H8R 5083   4.059   6.286   3.809 -0.3276 -0.8196  0.9814
   40DOPE   H8S 5084   3.968   6.188   3.918  4.8092 -0.6117 -1.3075
   40DOPE   C29 5085   3.883   6.396   3.886  0.1550 -0.1895  0.5213
   40DOPE   H9R 5086   3.900   6.480   3.817  0.6753 -0.6156  0.1203
   40DOPE  C210 5087   3.825   6.421   4.001  0.2102  0.3293  0.5660
   40DOPE  H10R 5088   3.787   6.523   4.014 -1.2607 -0.0830 -0.1857
   40DOPE  C211 5089   3.811   6.335   4.126 -0.1883  0.3747 -0.6001
   40DOPE  H11R 5090   3.874   6.244   4.111  0.0242  0.2284  0.9568
   40DOPE  H11S 5091   3.702   6.316   4.141  0.1732  0.5015  3.1607
   40DOPE  C212 5092   3.857   6.403   4.257 -0.0340 -0.0652  0.4786
   40DOPE  H12R 5093   3.795   6.494   4.273 -3.3513 -2.1242  0.2233
   40DOPE  H12S 5094   3.964   6.425   4.276 -0.1673  0.6335  0.4354
   40DOPE  C213 5095   3.831   6.304   4.372  0.1298 -0.0677  0.5211
   40DOPE  H13R 5096   3.875   6.205   4.350  0.1485 -0.2256  1.2442
   40DOPE  H13S 5097   3.720   6.298   4.375  0.0819  0.2679 -0.3513
   40DOPE  C214 5098   3.890   6.343   4.505 -0.2175  0.4579 -0.0448
   40DOPE  H14R 5099   3.847   6.268   4.575 -0.2094  0.1753 -0.3403
   40DOPE  H14S 5100   3.845   6.441   4.530  0.5806  0.8764 -0.2124
   40DOPE  C215 5101   4.035   6.334   4.526 -0.0455  0.0359  1.0925
   40DOPE  H15R 5102   4.085   6.424   4.484  0.0030 -0.1308  0.7866
   40DOPE  H15S 5103   4.078   6.246   4.473 -1.1102 -0.3147  0.8020
   40DOPE  C216 5104   4.074   6.321   4.668  0.0818 -1.6034 -0.1619
   40DOPE  H16R 5105   4.181   6.344   4.682 -0.1892  0.1750 -0.6442
   40DOPE  H16S 5106   4.056   6.227   4.724  1.3580 -2.1139 -0.5931
   40DOPE  C217 5107   4.014   6.440   4.747 -0.0655 -0.5036  0.4537
   40DOPE  H17R 5108   3.903   6.439   4.745 -0.2290  0.7339  3.5915
   40DOPE  H17S 5109   4.048   6.530   4.692  0.4591 -0.9886 -0.0339
   40DOPE  C218 5110   4.046   6.436   4.897 -0.5075 -0.6629  0.2914
   40DOPE  H18R 5111   3.979   6.368   4.954 -1.6541  0.5603  0.4643
   40DOPE  H18S 5112   4.029   6.538   4.937  0.2151  0.5812 -2.3812
   40DOPE  H18T 5113   4.152   6.407   4.912 -0.3811  0.1964  1.2461
   40DOPE   C33 5114   3.784   5.450   3.618  0.8490  0.2085 -0.2631
   40DOPE   H3X 5115   3.765   5.534   3.547  0.4098  1.7033  1.5549
   40DOPE   H3Y 5116   3.894   5.453   3.632  0.6422  0.3772  1.4921
   40DOPE   C34 5117   3.722   5.487   3.752  0.1632 -0.4208 -0.2906
   40DOPE   H4X 5118   3.612   5.474   3.762  0.0775  0.5834  0.1415
   40DOPE   H4Y 5119   3.773   5.427   3.831  1.5413 -0.0343 -0.8607
   40DOPE   C35 5120   3.733   5.639   3.779 -0.1372 -0.3146 -0.4891
   40DOPE   H5X 5121   3.663   5.693   3.713 -2.3017 -1.8303  0.4683
   40DOPE   H5Y 5122   3.840   5.669   3.772 -0.5534  1.2181 -0.6980
   40DOPE   C36 5123   3.682   5.677   3.917 -0.1241 -0.0870 -0.4452
   40DOPE   H6X 5124   3.716   5.585   3.970 -0.2487 -0.8077 -1.5914
   40DOPE   H6Y 5125   3.572   5.691   3.907  0.1897  2.2658 -1.2689
   40DOPE   C37 5126   3.744   5.799   3.988 -0.3004  0.8105  0.8665
   40DOPE   H7X 5127   3.854   5.792   3.976 -0.5165 -2.0818 -0.1915
   40DOPE   H7Y 5128   3.703   5.894   3.947 -1.4765  0.3778  1.0014
   40DOPE   C38 5129   3.689   5.793   4.134  0.0351 -0.8676 -0.1949
   40DOPE   H8X 5130   3.732   5.707   4.189  2.7680  1.1192  0.9496
   40DOPE   H8Y 5131   3.578   5.785   4.125  0.0748 -1.9101  0.1205
   40DOPE   C39 5132   3.718   5.909   4.226  0.3040 -0.2459  0.0802
   40DOPE   H9X 5133   3.807   5.965   4.192  0.0125 -0.4450 -1.0765
   40DOPE  C310 5134   3.643   5.948   4.330 -0.4690  0.0206  0.2734
   40DOPE  H10X 5135   3.686   6.037   4.379  1.3887 -0.1284 -0.9716
   40DOPE  C311 5136   3.511   5.899   4.374  0.0467 -0.2324 -0.0932
   40DOPE  H11X 5137   3.436   5.980   4.367  2.3524  1.9277 -1.9505
   40DOPE  H11Y 5138   3.474   5.812   4.314  0.5787 -0.5170 -0.0165
   40DOPE  C312 5139   3.528   5.839   4.512  0.0690  0.5624  0.5126
   40DOPE  H12X 5140   3.604   5.757   4.518 -0.6833 -0.2570 -0.6782
   40DOPE  H12Y 5141   3.431   5.789   4.529 -0.6968  2.3060  1.5216
   40DOPE  C313 5142   3.555   5.936   4.628 -0.1036 -0.9913  0.0055
   40DOPE  H13X 5143   3.542   5.883   4.725 -1.0526 -1.0323 -0.1340
   40DOPE  H13Y 5144   3.661   5.967   4.620 -0.3542 -0.0951  0.1273
   40DOPE  C314 5145   3.475   6.066   4.623  0.7726 -0.1401 -0.8173
   40DOPE  H14X 5146   3.370   6.031   4.610  0.7403  0.2436 -1.6027
   40DOPE  H14Y 5147   3.508   6.130   4.539 -0.5784  0.2636 -1.0605
   40DOPE  C315 5148   3.486   6.146   4.756 -0.3484  0.6327  0.2033
   40DOPE  H15X 5149   3.590   6.181   4.774 -0.1340  0.9241 -1.4297
   40DOPE  H15Y 5150   3.461   6.075   4.837 -1.3758 -1.2809 -1.7086
   40DOPE  C316 5151   3.387   6.266   4.758  0.4970  0.4336  0.7783
   40DOPE  H16X 5152   3.293   6.210   4.777  0.3834  0.4243  0.2191
   40DOPE  H16Y 5153   3.373   6.327   4.666 -0.1100 -1.9230 -0.7705
   40DOPE  C317 5154   3.405   6.345   4.885 -0.6075  0.6001  0.8321
   40DOPE  H17X 5155   3.402   6.274   4.971  1.2723 -1.0576 -0.3624
   40DOPE  H17Y 5156   3.498   6.406   4.886 -0.5643  0.5485  0.3338
   40DOPE  C318 5157   3.289   6.439   4.896  0.1161 -0.1264  0.8180
   40DOPE  H18X 5158   3.270   6.496   4.803 -3.0742 -1.4581  0.4882
   40DOPE  H18Y 5159   3.195   6.382   4.914 -0.6003  0.5433 -0.6344
   40DOPE  H18Z 5160   3.308   6.510   4.979 -1.5220  1.1256  0.1797
   41DOPE     N 5161   2.424   4.252   2.644  0.0988 -0.3460  0.3598
   41DOPE   HN1 5162   2.521   4.246   2.606  0.1607 -0.0378  0.4615
   41DOPE   HN2 5163   2.398   4.158   2.680  0.1406  0.3079  2.2157
   41DOPE   HN3 5164   2.350   4.282   2.578  0.6470 -0.4708 -0.3213
   41DOPE   C12 5165   2.442   4.348   2.758  0.3212  0.4084 -0.0326
   41DOPE  H12A 5166   2.348   4.355   2.815  0.0548 -2.1118 -0.0171
   41DOPE  H12B 5167   2.475   4.446   2.718 -2.0901  0.5510 -1.9001
   41DOPE   C11 5168   2.542   4.293   2.856  0.2860  0.3542  0.0252
   41DOPE  H11A 5169   2.547   4.375   2.931 -3.5107  2.4924 -1.7390
   41DOPE  H11B 5170   2.636   4.281   2.797 -0.0073  0.2084 -0.4221
   41DOPE     P 5171   2.600   4.083   3.003 -0.0368  0.1660  0.0534
   41DOPE   O13 5172   2.721   4.094   2.922 -0.2887 -0.1636 -0.3713
   41DOPE   O14 5173   2.544   3.950   3.024  0.1444  0.9206 -0.3313
   41DOPE   O11 5174   2.622   4.161   3.135  0.2695 -0.2740 -0.2235
   41DOPE   O12 5175   2.497   4.170   2.922  0.0746 -0.1347 -0.1122
   41DOPE    C1 5176   2.645   4.087   3.253 -0.0737  0.4815 -0.3041
   41DOPE    HA 5177   2.751   4.054   3.253  0.2429  1.1314  2.8884
   41DOPE    HB 5178   2.557   4.020   3.265  0.7394 -0.8270 -1.4275
   41DOPE    C2 5179   2.638   4.183   3.382  0.6128 -0.3610  0.4544
   41DOPE    HS 5180   2.743   4.216   3.400  0.5389 -0.1285  0.4684
   41DOPE   O21 5181   2.602   4.108   3.498  0.3908  0.1317  0.0801
   41DOPE   C21 5182   2.478   4.070   3.519  0.2998  0.5564 -0.0441
   41DOPE   O22 5183   2.386   4.076   3.437  0.4879  0.3532  0.1314
   41DOPE   C22 5184   2.469   4.000   3.664  0.3077 -0.2764  0.3632
   41DOPE   H2R 5185   2.420   3.903   3.642 -1.2892  0.6880 -0.5597
   41DOPE   H2S 5186   2.395   4.051   3.730  1.2086 -0.0999  1.2534
   41DOPE    C3 5187   2.553   4.313   3.365  0.5036  0.7877  0.0011
   41DOPE    HX 5188   2.457   4.279   3.320 -0.3582  1.1259  1.5103
   41DOPE    HY 5189   2.602   4.393   3.306 -0.7456  2.5032  1.1824
   41DOPE   O31 5190   2.523   4.366   3.496  0.0885 -0.4607  0.5319
   41DOPE   C31 5191   2.614   4.443   3.549 -0.1699  0.0676 -0.0434
   41DOPE   O32 5192   2.731   4.458   3.514 -0.4210  0.2857  0.3297
   41DOPE   C32 5193   2.548   4.507   3.675  0.0806  0.2915 -0.1979
   41DOPE   H2X 5194   2.457   4.448   3.697 -0.4230  1.4527  0.9680
   41DOPE   H2Y 5195   2.622   4.493   3.756 -0.5853 -1.1497  0.2019
   41DOPE   C23 5196   2.605   3.994   3.747  0.5233 -0.7910 -0.4018
   41DOPE   H3R 5197   2.688   3.944   3.692  0.3528 -1.9168  0.3245
   41DOPE   H3S 5198   2.579   3.928   3.833  0.0071 -1.8855 -1.3739
   41DOPE   C24 5199   2.664   4.127   3.806  0.3361 -0.6978  0.3587
   41DOPE   H4R 5200   2.675   4.189   3.715  0.8664 -0.7074  0.4118
   41DOPE   H4S 5201   2.767   4.115   3.846  1.1079 -1.0027 -1.6128
   41DOPE   C25 5202   2.566   4.205   3.913 -0.0865  0.3816  0.4282
   41DOPE   H5R 5203   2.509   4.135   3.977  0.3145  0.3830  0.7902
   41DOPE   H5S 5204   2.486   4.255   3.853 -0.6402 -0.8339  0.1308
   41DOPE   C26 5205   2.647   4.319   3.990 -0.0394  0.2408  0.1307
   41DOPE   H6R 5206   2.584   4.410   3.997 -0.9869 -0.2637 -1.3205
   41DOPE   H6S 5207   2.742   4.337   3.935  1.3466  0.1156  2.3568
   41DOPE   C27 5208   2.670   4.269   4.130  0.2436  0.2854 -0.8968
   41DOPE   H7R 5209   2.724   4.172   4.137 -1.4251 -0.6765 -0.7793
   41DOPE   H7S 5210   2.574   4.261   4.185 -0.9243 -2.1637 -3.0779
   41DOPE   C28 5211   2.743   4.374   4.215  0.0312  0.0443 -0.6896
   41DOPE   H8R 5212   2.744   4.356   4.325  0.6927  0.3598 -0.6346
   41DOPE   H8S 5213   2.692   4.473   4.206 -1.4487 -0.8559 -3.2386
   41DOPE   C29 5214   2.889   4.384   4.170 -0.3190 -0.1067  0.0046
   41DOPE   H9R 5215   2.924   4.286   4.134 -1.6232 -1.0121  1.0964
   41DOPE  C210 5216   2.949   4.495   4.121 -0.4560 -0.4738  0.0224
   41DOPE  H10R 5217   3.047   4.476   4.074  0.0044 -2.9580  1.7946
   41DOPE  C211 5218   2.891   4.637   4.111  0.0510  0.8975  0.0934
   41DOPE  H11R 5219   2.959   4.709   4.161  2.3512 -0.7884 -0.4363
   41DOPE  H11S 5220   2.793   4.651   4.161  0.7506  0.1001  1.7466
   41DOPE  C212 5221   2.868   4.682   3.966 -0.0949  0.2847 -0.8746
   41DOPE  H12R 5222   2.782   4.625   3.926  0.4099 -2.0701  1.1680
   41DOPE  H12S 5223   2.965   4.649   3.923  0.3845 -0.0846  0.4225
   41DOPE  C213 5224   2.841   4.831   3.947  0.2991  0.3751 -0.8201
   41DOPE  H13R 5225   2.922   4.897   3.984 -0.8446  1.1573  0.3958
   41DOPE  H13S 5226   2.746   4.858   3.998  2.7237  3.8380  2.4506
   41DOPE  C214 5227   2.836   4.854   3.796  0.2971  1.1875  0.7131
   41DOPE  H14R 5228   2.767   4.782   3.747  2.0505 -0.6975  0.8848
   41DOPE  H14S 5229   2.934   4.850   3.744  1.0890  3.3169  1.9001
   41DOPE  C215 5230   2.777   4.993   3.766 -0.2184  0.3925 -0.9723
   41DOPE  H15R 5231   2.833   5.078   3.809  0.5165 -0.4197 -0.2768
   41DOPE  H15S 5232   2.678   4.995   3.818  1.7497 -0.5302  3.2091
   41DOPE  C216 5233   2.760   5.023   3.614  0.0373 -0.3043  0.5088
   41DOPE  H16R 5234   2.680   4.950   3.591  1.1314 -1.1566 -0.7516
   41DOPE  H16S 5235   2.857   4.994   3.570  0.4985 -0.9064  1.8526
   41DOPE  C217 5236   2.731   5.170   3.577  0.2661 -0.2338 -0.4073
   41DOPE  H17R 5237   2.715   5.172   3.467 -0.2166 -2.1104 -0.4090
   41DOPE  H17S 5238   2.821   5.233   3.594 -0.7406  2.5037 -4.0620
   41DOPE  C218 5239   2.605   5.227   3.646  0.7924  0.4896 -0.1868
   41DOPE  H18R 5240   2.591   5.330   3.606  1.0823  0.0669 -1.4295
   41DOPE  H18S 5241   2.625   5.231   3.755  0.9284 -0.6127 -0.1571
   41DOPE  H18T 5242   2.522   5.161   3.614  1.5686  0.2813 -1.8874
   41DOPE   C33 5243   2.504   4.654   3.661 -0.6000 -0.1584  0.7113
   41DOPE   H3X 5244   2.584   4.714   3.612 -1.1620  1.0322  1.2146
   41DOPE   H3Y 5245   2.494   4.700   3.762  0.5324 -1.7531  1.5835
   41DOPE   C34 5246   2.369   4.671   3.591 -0.2321  0.3297  0.3190
   41DOPE   H4X 5247   2.369   4.626   3.490  0.2341 -0.6730  0.7480
   41DOPE   H4Y 5248   2.287   4.626   3.650  0.3877 -0.3572  0.6724
   41DOPE   C35 5249   2.343   4.821   3.572  0.2875  0.0345 -0.8359
   41DOPE   H5X 5250   2.275   4.826   3.484 -1.1648 -0.9013  0.1849
   41DOPE   H5Y 5251   2.437   4.867   3.536  2.0591 -1.8450  1.1335
   41DOPE   C36 5252   2.285   4.902   3.693  0.1004  0.0840 -0.1005
   41DOPE   H6X 5253   2.363   4.908   3.772  1.5075  0.9869 -1.5066
   41DOPE   H6Y 5254   2.190   4.855   3.725 -0.9733  2.1770 -0.0514
   41DOPE   C37 5255   2.246   5.042   3.642 -0.0720 -0.0575 -1.1247
   41DOPE   H7X 5256   2.336   5.101   3.615  2.3390 -2.2202  1.5184
   41DOPE   H7Y 5257   2.179   5.033   3.553 -0.0590 -0.1710 -1.1232
   41DOPE   C38 5258   2.162   5.122   3.753 -0.3525  0.2962  0.3005
   41DOPE   H8X 5259   2.077   5.052   3.770  0.6073 -0.5240  1.9973
   41DOPE   H8Y 5260   2.122   5.212   3.702 -0.6832 -0.3943 -0.6836
   41DOPE   C39 5261   2.251   5.166   3.868 -0.0582  0.1754  0.0845
   41DOPE   H9X 5262   2.312   5.254   3.841 -1.5307  0.9841 -0.7494
   41DOPE  C310 5263   2.255   5.125   3.995 -0.5007 -0.4599 -0.6632
   41DOPE  H10X 5264   2.338   5.160   4.058  0.9170 -0.4452 -2.4571
   41DOPE  C311 5265   2.173   5.016   4.059  0.0201  0.4689 -0.5875
   41DOPE  H11X 5266   2.097   4.986   3.984 -0.8143 -1.8616  1.0915
   41DOPE  H11Y 5267   2.230   4.928   4.095  2.1180  1.8460 -0.3847
   41DOPE  C312 5268   2.095   5.058   4.183  0.6862 -0.5229  0.0178
   41DOPE  H12X 5269   2.005   4.994   4.197  0.0059  0.5584  0.7898
   41DOPE  H12Y 5270   2.063   5.162   4.161  0.4138 -0.9437 -1.6903
   41DOPE  C313 5271   2.173   5.061   4.317 -0.5049 -0.4688  0.0285
   41DOPE  H13X 5272   2.175   4.964   4.371  0.1447  1.0068  2.8309
   41DOPE  H13Y 5273   2.276   5.092   4.290 -1.2815  2.7478  0.3679
   41DOPE  C314 5274   2.120   5.168   4.417  0.1691 -0.2622 -0.0583
   41DOPE  H14X 5275   2.010   5.178   4.423  0.3151  2.5173 -0.5037
   41DOPE  H14Y 5276   2.153   5.260   4.365  3.2668 -1.5261 -0.5536
   41DOPE  C315 5277   2.165   5.164   4.558 -0.6792  0.4429 -0.1793
   41DOPE  H15X 5278   2.122   5.077   4.611  0.3027  0.1892  0.2210
   41DOPE  H15Y 5279   2.136   5.257   4.611  0.0852  0.3958  0.3400
   41DOPE  C316 5280   2.318   5.151   4.576  0.4223 -0.4411  0.7146
   41DOPE  H16X 5281   2.368   5.218   4.503 -0.2691 -0.7198 -0.0385
   41DOPE  H16Y 5282   2.346   5.046   4.553  1.2300 -0.5963  2.2516
   41DOPE  C317 5283   2.374   5.212   4.707  0.4596  0.3143 -0.8815
   41DOPE  H17X 5284   2.483   5.227   4.691 -0.0267  4.2368 -1.5581
   41DOPE  H17Y 5285   2.341   5.316   4.729 -2.3070 -0.9615  1.7786
   41DOPE  C318 5286   2.346   5.115   4.825  0.2264  0.0899  0.0447
   41DOPE  H18X 5287   2.377   5.012   4.797 -1.4014 -0.5126  0.4034
   41DOPE  H18Y 5288   2.400   5.152   4.914  0.8213  1.1635 -0.7369
   41DOPE  H18Z 5289   2.236   5.118   4.838  0.0905 -1.2172 -0.5971
   42DOPE     N 5290   1.185   4.623   2.713 -0.0306  0.3296  0.0497
   42DOPE   HN1 5291   1.228   4.715   2.736 -1.6682  1.7279 -2.0404
   42DOPE   HN2 5292   1.246   4.541   2.733 -0.1379  0.2040 -0.1325
   42DOPE   HN3 5293   1.182   4.629   2.609  2.6290 -0.9432 -0.1732
   42DOPE   C12 5294   1.055   4.609   2.794 -0.4298 -0.3773  0.4540
   42DOPE  H12A 5295   1.005   4.520   2.750 -0.7694 -0.3446  0.7677
   42DOPE  H12B 5296   0.997   4.703   2.785  1.0141  0.4127 -1.0441
   42DOPE   C11 5297   1.092   4.590   2.943  0.2432  0.0236  0.0564
   42DOPE  H11A 5298   0.999   4.570   3.001  1.0795 -0.7324  1.1663
   42DOPE  H11B 5299   1.132   4.687   2.979 -1.1789  0.2937  0.9805
   42DOPE     P 5300   1.169   4.349   2.989 -0.1726  0.3265  0.3877
   42DOPE   O13 5301   1.286   4.289   3.057  0.7838  0.1973  0.0250
   42DOPE   O14 5302   1.111   4.284   2.870 -0.2897 -0.5784  0.5578
   42DOPE   O11 5303   1.057   4.348   3.101 -0.0043 -0.5199  0.1342
   42DOPE   O12 5304   1.200   4.495   2.959  0.5936  0.1388  0.8612
   42DOPE    C1 5305   1.082   4.403   3.234 -0.9626  0.4639  0.0516
   42DOPE    HA 5306   0.988   4.423   3.289 -0.5181 -1.7915  1.7953
   42DOPE    HB 5307   1.126   4.505   3.226  0.6819 -0.3070 -1.4121
   42DOPE    C2 5308   1.151   4.309   3.331 -0.3858 -0.3336  0.7650
   42DOPE    HS 5309   1.252   4.291   3.289 -1.3963 -0.4883 -1.7851
   42DOPE   O21 5310   1.093   4.178   3.334  0.3163 -0.2056 -0.4871
   42DOPE   C21 5311   1.171   4.076   3.368  0.0560  0.0963 -0.3022
   42DOPE   O22 5312   1.291   4.086   3.389  0.1466 -0.5119  0.0410
   42DOPE   C22 5313   1.086   3.955   3.365 -0.4992  0.8954 -0.0922
   42DOPE   H2R 5314   1.142   3.870   3.319 -2.0803 -0.3282  0.1768
   42DOPE   H2S 5315   1.009   3.989   3.293  0.4376  1.8549 -0.6604
   42DOPE    C3 5316   1.157   4.361   3.474  0.4475  0.2380 -0.7095
   42DOPE    HX 5317   1.176   4.284   3.551  0.4028  0.6234 -0.3061
   42DOPE    HY 5318   1.052   4.374   3.508  0.8065 -1.0462  1.0050
   42DOPE   O31 5319   1.226   4.485   3.491  0.3463  0.1857  0.4878
   42DOPE   C31 5320   1.345   4.474   3.551 -0.3424 -0.7010  1.0374
   42DOPE   O32 5321   1.387   4.368   3.594 -0.0036 -0.1700  0.0448
   42DOPE   C32 5322   1.422   4.612   3.534  0.0134  0.0330 -0.3005
   42DOPE   H2X 5323   1.526   4.590   3.564  0.7316  1.3687 -1.7018
   42DOPE   H2Y 5324   1.422   4.635   3.425 -0.6719 -1.0544 -0.5456
   42DOPE   C23 5325   1.026   3.918   3.498 -0.0523 -0.1392  0.5801
   42DOPE   H3R 5326   1.097   3.881   3.575  2.4242 -0.6876 -1.8352
   42DOPE   H3S 5327   0.955   3.833   3.489  0.7910 -0.7285 -0.6806
   42DOPE   C24 5328   0.943   4.031   3.566 -0.5712  0.1523 -0.3804
   42DOPE   H4R 5329   0.855   4.030   3.498 -0.2407 -0.8931 -0.8189
   42DOPE   H4S 5330   0.983   4.134   3.571  1.1082 -0.4960  0.2457
   42DOPE   C25 5331   0.905   3.989   3.714 -0.2570 -0.0767  0.8179
   42DOPE   H5R 5332   0.990   4.016   3.781 -2.3945  3.0472  2.5287
   42DOPE   H5S 5333   0.885   3.880   3.711 -4.3413  0.5387 -0.2242
   42DOPE   C26 5334   0.792   4.061   3.786 -0.0239 -0.6740  0.1245
   42DOPE   H6R 5335   0.700   4.030   3.732 -1.3087 -0.2888  2.0158
   42DOPE   H6S 5336   0.799   4.170   3.766  1.2275 -0.8424 -0.4262
   42DOPE   C27 5337   0.776   4.019   3.935  0.7878 -0.5757  0.2989
   42DOPE   H7R 5338   0.825   3.919   3.946  1.0421 -0.4355  0.4409
   42DOPE   H7S 5339   0.669   3.998   3.956  0.1672  0.3888 -1.6145
   42DOPE   C28 5340   0.836   4.130   4.022 -0.8431  0.3207  0.1306
   42DOPE   H8R 5341   0.785   4.226   4.000  0.2534  0.6419 -1.1620
   42DOPE   H8S 5342   0.939   4.144   3.983 -0.8115  1.9978  0.7616
   42DOPE   C29 5343   0.847   4.097   4.168  0.4857 -0.3617 -0.5512
   42DOPE   H9R 5344   0.867   3.992   4.192  1.0897 -0.3478 -0.9854
   42DOPE  C210 5345   0.816   4.182   4.271  0.2651  0.0524 -0.1363
   42DOPE  H10R 5346   0.823   4.134   4.370 -0.7896 -0.8223 -0.4632
   42DOPE  C211 5347   0.800   4.333   4.255 -0.2546  0.3021  0.5616
   42DOPE  H11R 5348   0.699   4.364   4.287  0.2241  2.2314  0.3311
   42DOPE  H11S 5349   0.809   4.361   4.147  1.3114  0.4949  0.7170
   42DOPE  C212 5350   0.902   4.412   4.334  0.5022 -0.1582 -0.4512
   42DOPE  H12R 5351   0.916   4.516   4.298 -0.7907  0.5493  1.0163
   42DOPE  H12S 5352   1.001   4.362   4.329  0.5495 -0.0835 -0.2793
   42DOPE  C213 5353   0.851   4.443   4.476  0.1213 -0.2662  0.2755
   42DOPE  H13R 5354   0.853   4.351   4.538 -1.9301  0.1282  1.0032
   42DOPE  H13S 5355   0.744   4.472   4.471 -0.6351 -2.7060  1.0118
   42DOPE  C214 5356   0.931   4.548   4.550 -0.1690 -0.2559  0.3129
   42DOPE  H14R 5357   0.917   4.652   4.515  1.2739 -0.1416  0.0137
   42DOPE  H14S 5358   1.038   4.520   4.536 -0.4961 -1.5543  0.2672
   42DOPE  C215 5359   0.906   4.550   4.697  0.2377 -0.1172  0.1078
   42DOPE  H15R 5360   0.935   4.454   4.744 -0.8487 -0.7955 -0.5693
   42DOPE  H15S 5361   0.805   4.585   4.728  0.8944  1.1404  0.9292
   42DOPE  C216 5362   0.997   4.666   4.750  0.0324 -0.5003  0.1586
   42DOPE  H16R 5363   0.946   4.752   4.701  1.1477  0.8615  1.3106
   42DOPE  H16S 5364   1.102   4.672   4.715 -0.2265  4.4865 -0.5366
   42DOPE  C217 5365   1.005   4.683   4.901 -0.2431 -0.0200  0.3013
   42DOPE  H17R 5366   1.029   4.581   4.939  2.3543  0.7092  0.8314
   42DOPE  H17S 5367   0.903   4.719   4.926 -0.0330 -0.4484  1.8937
   42DOPE  C218 5368   1.101   4.783   4.971 -0.8554  0.2613 -0.0832
   42DOPE  H18R 5369   1.206   4.773   4.937 -0.3648 -0.1437  1.4433
   42DOPE  H18S 5370   1.119   4.759   5.078  1.5810 -0.7286 -0.6497
   42DOPE  H18T 5371   1.073   4.890   4.955 -1.4792  0.0952 -0.1464
   42DOPE   C33 5372   1.352   4.731   3.613 -0.3015 -0.0046 -0.1555
   42DOPE   H3X 5373   1.362   4.698   3.719  1.2680 -1.3454 -0.6871
   42DOPE   H3Y 5374   1.244   4.718   3.587  0.1488 -0.1800 -2.0563
   42DOPE   C34 5375   1.405   4.875   3.579  0.2178  0.6451  0.2316
   42DOPE   H4X 5376   1.515   4.871   3.592  0.5038  0.4226 -1.9382
   42DOPE   H4Y 5377   1.388   4.886   3.470  0.9242 -1.7708 -0.1846
   42DOPE   C35 5378   1.337   4.987   3.659  0.0287 -1.0097 -0.0622
   42DOPE   H5X 5379   1.394   5.080   3.638 -1.3383 -0.3400 -0.9799
   42DOPE   H5Y 5380   1.351   4.967   3.767 -0.7267 -1.0562  0.0322
   42DOPE   C36 5381   1.184   5.005   3.627 -0.5090  0.3228  0.4855
   42DOPE   H6X 5382   1.153   4.906   3.667 -0.7069  0.2423  0.1389
   42DOPE   H6Y 5383   1.182   5.014   3.516  1.8021 -0.1672  0.3627
   42DOPE   C37 5384   1.125   5.109   3.716  0.5069 -0.1218  0.1679
   42DOPE   H7X 5385   1.148   5.088   3.823 -1.7631 -1.2667  0.5072
   42DOPE   H7Y 5386   1.159   5.213   3.704 -1.4292  0.7376  1.5155
   42DOPE   C38 5387   0.970   5.112   3.709  0.6912  0.8161 -0.2733
   42DOPE   H8X 5388   0.940   5.127   3.603 -1.3112 -0.3868  0.0868
   42DOPE   H8Y 5389   0.926   5.202   3.756 -0.0334 -0.4587  1.5700
   42DOPE   C39 5390   0.906   4.990   3.766 -0.0738 -0.1629 -0.0816
   42DOPE   H9X 5391   0.915   4.900   3.704 -1.6709  1.1570 -2.3832
   42DOPE  C310 5392   0.840   4.983   3.883 -0.1651  0.7569  0.0431
   42DOPE  H10X 5393   0.784   4.889   3.898 -0.7124  1.0087 -0.3945
   42DOPE  C311 5394   0.819   5.079   3.987 -0.1313 -0.0188  0.3976
   42DOPE  H11X 5395   0.887   5.166   3.977  0.4519  0.0074  3.5241
   42DOPE  H11Y 5396   0.720   5.129   3.976  1.2599  2.9112  0.2820
   42DOPE  C312 5397   0.833   5.033   4.136  0.0479  0.1253  0.1487
   42DOPE  H12X 5398   0.758   4.957   4.165  0.9786 -0.2653  1.6674
   42DOPE  H12Y 5399   0.834   5.118   4.208  1.7608  1.9410 -1.8725
   42DOPE  C313 5400   0.982   4.977   4.160 -0.1613 -0.1158 -0.8387
   42DOPE  H13X 5401   1.003   4.898   4.085 -0.5939 -1.5234  0.4510
   42DOPE  H13Y 5402   1.045   5.068   4.160  1.6519 -1.3328  0.0453
   42DOPE  C314 5403   0.999   4.908   4.299 -0.0110 -0.2458 -0.3454
   42DOPE  H14X 5404   1.103   4.870   4.288  0.6076  1.5049 -0.7688
   42DOPE  H14Y 5405   0.937   4.815   4.308  0.3500 -0.4874 -0.3487
   42DOPE  C315 5406   0.994   4.984   4.439 -0.5666  0.6095  0.4007
   42DOPE  H15X 5407   1.007   4.909   4.519  2.8392  2.0943  1.4155
   42DOPE  H15Y 5408   0.895   5.034   4.444  0.2333  2.1653  1.2780
   42DOPE  C316 5409   1.111   5.092   4.444  0.0455  0.2229 -0.2916
   42DOPE  H16X 5410   1.113   5.153   4.351 -0.9360  1.8012  0.6972
   42DOPE  H16Y 5411   1.205   5.033   4.446 -0.9220 -1.3771 -0.2994
   42DOPE  C317 5412   1.106   5.176   4.570 -0.3348  0.4295 -0.5939
   42DOPE  H17X 5413   1.167   5.268   4.576 -0.4791  0.5660 -1.1845
   42DOPE  H17Y 5414   0.999   5.207   4.574 -0.6681 -0.8001  1.2689
   42DOPE  C318 5415   1.127   5.092   4.702 -0.0952  0.0949 -0.4481
   42DOPE  H18X 5416   1.095   5.158   4.785  0.8847 -0.7622  0.6461
   42DOPE  H18Y 5417   1.057   5.006   4.715  1.6554 -1.0039  3.2836
   42DOPE  H18Z 5418   1.230   5.051   4.712  0.6639  1.9757 -0.2871
   43DOPE     N 5419   0.823   3.652   3.275 -0.0109  0.6638 -0.3016
   43DOPE   HN1 5420   0.801   3.754   3.275 -2.4001  0.2097 -0.2482
   43DOPE   HN2 5421   0.749   3.600   3.224 -1.2928 -1.6260  3.4521
   43DOPE   HN3 5422   0.818   3.609   3.370 -0.5293 -3.4787 -2.0393
   43DOPE   C12 5423   0.962   3.618   3.209  0.5008 -0.7149 -0.0529
   43DOPE  H12A 5424   1.005   3.716   3.180  1.0361 -0.0326  2.6970
   43DOPE  H12B 5425   0.955   3.559   3.115  0.0374  0.3789 -0.7207
   43DOPE   C11 5426   1.052   3.547   3.312  0.6511 -0.5656 -0.1379
   43DOPE  H11A 5427   1.059   3.609   3.404 -0.9770 -0.6877  0.0919
   43DOPE  H11B 5428   1.153   3.532   3.269  0.4135  0.3256 -1.0320
   43DOPE     P 5429   1.003   3.284   3.277  0.0856 -0.1683 -0.1983
   43DOPE   O13 5430   1.108   3.284   3.176 -0.4866  0.3769 -0.3874
   43DOPE   O14 5431   0.868   3.240   3.229  0.4055 -0.0200  0.0373
   43DOPE   O11 5432   1.042   3.195   3.401  0.1390 -0.1810 -0.3626
   43DOPE   O12 5433   0.990   3.423   3.343  0.4318  0.3059  0.2969
   43DOPE    C1 5434   1.013   3.228   3.531  0.1376  0.1172 -0.9471
   43DOPE    HA 5435   0.978   3.141   3.590  0.0868  0.6141 -0.2316
   43DOPE    HB 5436   0.923   3.293   3.538  0.1850  0.0295  1.0025
   43DOPE    C2 5437   1.134   3.299   3.606  0.2702  0.1342  0.4203
   43DOPE    HS 5438   1.155   3.385   3.538 -1.4806 -1.8793 -2.9646
   43DOPE   O21 5439   1.245   3.212   3.618 -0.8088  0.2136 -0.2571
   43DOPE   C21 5440   1.356   3.260   3.575  0.2100  0.6876  0.9249
   43DOPE   O22 5441   1.381   3.363   3.513  0.3111  0.2287 -0.1957
   43DOPE   C22 5442   1.456   3.149   3.624 -0.0760  0.1955  0.2720
   43DOPE   H2R 5443   1.550   3.167   3.569 -0.8633  4.0602 -0.0722
   43DOPE   H2S 5444   1.404   3.053   3.603 -2.3809  1.5931 -0.8492
   43DOPE    C3 5445   1.097   3.349   3.747  0.0370  0.0389 -0.0917
   43DOPE    HX 5446   1.083   3.272   3.826  3.4663  0.6694  1.3636
   43DOPE    HY 5447   1.004   3.406   3.730  1.0844  1.5126 -1.1736
   43DOPE   O31 5448   1.196   3.436   3.794 -0.0663 -0.2359 -0.1950
   43DOPE   C31 5449   1.176   3.563   3.770 -0.4271 -0.6252  0.0418
   43DOPE   O32 5450   1.095   3.610   3.695 -0.1430  0.3334 -0.1269
   43DOPE   C32 5451   1.276   3.655   3.840 -0.7786 -0.1926  0.3529
   43DOPE   H2X 5452   1.355   3.597   3.891 -0.4298  0.4168  0.5207
   43DOPE   H2Y 5453   1.326   3.698   3.750 -0.4219  1.1112  1.1486
   43DOPE   C23 5454   1.477   3.145   3.776  0.1737  0.3450  0.3187
   43DOPE   H3R 5455   1.563   3.079   3.801  1.0581  0.5010 -2.0577
   43DOPE   H3S 5456   1.383   3.103   3.819  0.4842  0.1399  0.7993
   43DOPE   C24 5457   1.505   3.287   3.833  0.1012 -0.3681 -0.8573
   43DOPE   H4R 5458   1.430   3.363   3.803 -1.0051 -1.3655 -0.6928
   43DOPE   H4S 5459   1.605   3.318   3.795  0.0000  1.1481  0.0198
   43DOPE   C25 5460   1.506   3.292   3.986  0.1064  0.4363 -0.2513
   43DOPE   H5R 5461   1.412   3.241   4.015 -1.3511  1.0495 -3.5075
   43DOPE   H5S 5462   1.504   3.398   4.019  0.4061  0.9347 -1.7606
   43DOPE   C26 5463   1.635   3.222   4.056 -0.5642 -0.2226 -0.0631
   43DOPE   H6R 5464   1.653   3.119   4.019  1.3143 -0.0124  0.1437
   43DOPE   H6S 5465   1.633   3.226   4.167  1.8428  2.9496  0.0202
   43DOPE   C27 5466   1.759   3.300   4.016  0.0608  0.0071 -0.4391
   43DOPE   H7R 5467   1.720   3.397   3.980 -2.0120 -0.1132  1.2728
   43DOPE   H7S 5468   1.808   3.255   3.927 -0.1062  0.1863 -0.6228
   43DOPE   C28 5469   1.870   3.329   4.123 -0.3860  1.1246  0.7001
   43DOPE   H8R 5470   1.949   3.390   4.075 -0.6449  1.4856  0.7269
   43DOPE   H8S 5471   1.919   3.237   4.160  2.5677  1.8688 -1.0248
   43DOPE   C29 5472   1.828   3.427   4.229  0.2050 -0.0683 -0.5803
   43DOPE   H9R 5473   1.750   3.501   4.205 -1.2779 -0.3516  2.7815
   43DOPE  C210 5474   1.876   3.443   4.352 -0.0143 -0.6623 -0.6091
   43DOPE  H10R 5475   1.830   3.523   4.412  1.6557  1.3441 -1.8826
   43DOPE  C211 5476   1.986   3.366   4.421  0.0034  0.0404 -0.0165
   43DOPE  H11R 5477   2.012   3.282   4.353 -2.4539  0.2104 -1.2788
   43DOPE  H11S 5478   1.948   3.327   4.518  1.0269  1.6776  1.1021
   43DOPE  C212 5479   2.116   3.449   4.458 -0.2435  0.1829 -1.0853
   43DOPE  H12R 5480   2.153   3.484   4.359 -1.3324  1.9266 -0.9268
   43DOPE  H12S 5481   2.180   3.378   4.513  0.3479  2.5904  1.5352
   43DOPE  C213 5482   2.081   3.578   4.539 -0.0482  0.1302  0.6857
   43DOPE  H13R 5483   2.032   3.652   4.471 -0.2520 -1.5606 -1.0882
   43DOPE  H13S 5484   2.175   3.629   4.568 -0.1228  0.5262  0.2441
   43DOPE  C214 5485   2.000   3.545   4.664  0.4387 -0.0044 -0.2801
   43DOPE  H14R 5486   2.046   3.452   4.704 -0.1857  0.1929  0.9344
   43DOPE  H14S 5487   1.893   3.539   4.634 -0.1957  1.9417  1.3789
   43DOPE  C215 5488   2.011   3.650   4.772  0.7154 -0.0389  0.3127
   43DOPE  H15R 5489   1.947   3.736   4.741 -0.6906 -1.2537 -0.2927
   43DOPE  H15S 5490   2.114   3.686   4.788  0.1295  2.3851 -0.9272
   43DOPE  C216 5491   1.953   3.602   4.907 -0.4783  0.4696  0.3081
   43DOPE  H16R 5492   2.002   3.503   4.916 -0.1662  0.5554 -0.3487
   43DOPE  H16S 5493   1.845   3.574   4.902 -0.4378 -0.4158  2.8322
   43DOPE  C217 5494   1.974   3.692   5.024 -0.1462  0.3741 -0.8628
   43DOPE  H17R 5495   2.080   3.720   5.038  0.4085 -2.0495  0.1846
   43DOPE  H17S 5496   1.943   3.629   5.110  1.9022 -1.4160 -1.3601
   43DOPE  C218 5497   1.898   3.824   5.015  0.0405 -0.5358 -0.5903
   43DOPE  H18R 5498   1.791   3.808   4.992  0.1327 -0.1034 -1.3330
   43DOPE  H18S 5499   1.934   3.894   4.938  1.2881  1.7194  1.8653
   43DOPE  H18T 5500   1.913   3.872   5.114  0.8721 -0.4121 -0.7659
   43DOPE   C33 5501   1.219   3.758   3.937 -0.5178 -0.4301 -0.0268
   43DOPE   H3X 5502   1.127   3.800   3.892 -1.3385 -1.1743  0.9214
   43DOPE   H3Y 5503   1.300   3.830   3.961  1.6119 -2.6649 -0.0077
   43DOPE   C34 5504   1.182   3.703   4.067  0.1870  0.2810 -0.2082
   43DOPE   H4X 5505   1.107   3.626   4.037 -2.5987  2.6484  0.2341
   43DOPE   H4Y 5506   1.270   3.665   4.123 -1.0657 -0.1134  1.5831
   43DOPE   C35 5507   1.114   3.810   4.161 -0.2974  0.3725 -0.2232
   43DOPE   H5X 5508   1.018   3.844   4.118 -0.3793  1.1293  0.5419
   43DOPE   H5Y 5509   1.183   3.896   4.178 -1.1768  1.0422  0.0341
   43DOPE   C36 5510   1.067   3.742   4.291 -0.5335  0.3890  0.6527
   43DOPE   H6X 5511   1.150   3.701   4.352 -0.0804 -1.6365 -1.1887
   43DOPE   H6Y 5512   1.005   3.653   4.266  0.2792 -0.0807  0.2659
   43DOPE   C37 5513   0.978   3.834   4.377  0.2609  0.0834  0.7084
   43DOPE   H7X 5514   1.010   3.941   4.375 -0.0731  0.1817  0.0960
   43DOPE   H7Y 5515   0.883   3.850   4.321  0.9807  0.8347 -0.3616
   43DOPE   C38 5516   0.955   3.773   4.515 -0.4983 -0.7332  0.2638
   43DOPE   H8X 5517   1.030   3.814   4.586  0.0430 -3.4673  1.3630
   43DOPE   H8Y 5518   0.993   3.669   4.514  4.6011  0.8167  1.8024
   43DOPE   C39 5519   0.827   3.778   4.584  0.4728 -0.0737  0.3359
   43DOPE   H9X 5520   0.777   3.875   4.569  1.4654  0.7920  2.2372
   43DOPE  C310 5521   0.765   3.690   4.662 -0.1638  0.3870  0.6425
   43DOPE  H10X 5522   0.669   3.726   4.702 -0.1452  0.7025  0.4040
   43DOPE  C311 5523   0.807   3.550   4.684 -0.2046  0.3340  0.0262
   43DOPE  H11X 5524   0.881   3.515   4.609  0.1181 -0.4338  0.6873
   43DOPE  H11Y 5525   0.865   3.560   4.778  0.4437  0.3916 -0.3754
   43DOPE  C312 5526   0.703   3.440   4.695  0.1425 -0.4746 -0.5764
   43DOPE  H12X 5527   0.768   3.353   4.720  1.6689  0.5734 -0.7736
   43DOPE  H12Y 5528   0.656   3.424   4.596 -0.9591 -0.0954 -0.1188
   43DOPE  C313 5529   0.603   3.466   4.815 -0.7982 -0.7074  0.2530
   43DOPE  H13X 5530   0.639   3.429   4.913  0.7500 -0.4377 -0.1894
   43DOPE  H13Y 5531   0.577   3.574   4.827  0.1778 -0.2128 -1.6002
   43DOPE  C314 5532   0.483   3.380   4.783 -0.9633  0.4442 -0.6107
   43DOPE  H14X 5533   0.507   3.274   4.758 -1.1664  0.2429  0.0326
   43DOPE  H14Y 5534   0.428   3.422   4.696 -0.3165 -0.6761 -1.6016
   43DOPE  C315 5535   0.396   3.370   4.904  0.0784  0.0239  0.4039
   43DOPE  H15X 5536   0.388   3.468   4.955  1.1111 -0.6507  1.9257
   43DOPE  H15Y 5537   0.450   3.299   4.969 -0.1568 -0.6749 -0.1587
   43DOPE  C316 5538   0.256   3.323   4.872 -0.1021 -0.5699 -0.3035
   43DOPE  H16X 5539   0.254   3.227   4.817 -1.7587 -0.3707 -0.6456
   43DOPE  H16Y 5540   0.207   3.392   4.800 -0.5571 -1.7666 -1.1738
   43DOPE  C317 5541   0.169   3.331   5.002 -0.3380 -0.7997 -0.0756
   43DOPE  H17X 5542   0.181   3.248   5.075 -0.2741  0.9588  1.9847
   43DOPE  H17Y 5543   0.199   3.422   5.058  0.8924 -1.8800  1.1138
   43DOPE  C318 5544   0.020   3.348   4.980  0.0777 -0.5679 -0.1261
   43DOPE  H18X 5545  -0.027   3.252   4.949 -1.0353 -0.5847  1.5089
   43DOPE  H18Y 5546  -0.031   3.369   5.076 -0.9609 -1.1608 -0.5246
   43DOPE  H18Z 5547  -0.010   3.425   4.905 -0.3469 -1.0649 -0.4755
   44DOPE     N 5548   4.193   7.597   2.053  0.6380  0.3782 -0.0489
   44DOPE   HN1 5549   4.260   7.525   2.084  1.3881  0.3008 -1.7499
   44DOPE   HN2 5550   4.101   7.555   2.078  0.2529 -1.0344 -3.3496
   44DOPE   HN3 5551   4.202   7.603   1.949  3.4482 -2.5810 -0.1318
   44DOPE   C12 5552   4.218   7.730   2.122 -0.2455 -0.4558 -0.6364
   44DOPE  H12A 5553   4.126   7.790   2.107  0.8668  1.1533 -1.4189
   44DOPE  H12B 5554   4.299   7.779   2.062 -0.4079  1.0532  0.3120
   44DOPE   C11 5555   4.254   7.722   2.272 -0.2383  0.4434 -0.7781
   44DOPE  H11A 5556   4.166   7.682   2.327  0.2907 -1.6283 -1.3320
   44DOPE  H11B 5557   4.269   7.824   2.313 -0.4920  0.1954 -0.0412
   44DOPE     P 5558   4.421   7.561   2.411  0.3141  0.1730  0.1570
   44DOPE   O13 5559   4.562   7.586   2.436  0.4930 -0.1817 -0.6051
   44DOPE   O14 5560   4.374   7.416   2.401  0.7727  0.3484 -0.0065
   44DOPE   O11 5561   4.334   7.624   2.528 -0.1114  0.2002  0.1072
   44DOPE   O12 5562   4.372   7.641   2.283 -0.4959 -0.4362 -0.3368
   44DOPE    C1 5563   4.395   7.651   2.657  0.1245 -0.9487  0.5322
   44DOPE    HA 5564   4.485   7.715   2.652 -0.1083 -0.6742 -0.2177
   44DOPE    HB 5565   4.413   7.554   2.710  0.5907 -0.4823  1.2392
   44DOPE    C2 5566   4.293   7.738   2.739 -0.4831  0.4775 -0.6251
   44DOPE    HS 5567   4.211   7.666   2.758 -1.1021  0.8348 -1.8433
   44DOPE   O21 5568   4.264   7.864   2.674 -0.1473 -0.1969 -0.2317
   44DOPE   C21 5569   4.141   7.870   2.626 -0.1036  0.9104 -0.0661
   44DOPE   O22 5570   4.067   7.773   2.621  0.7292  0.4129  0.5445
   44DOPE   C22 5571   4.100   8.004   2.580  0.0996 -0.2858  0.9433
   44DOPE   H2R 5572   4.175   8.040   2.507  1.7922  0.2209  2.8167
   44DOPE   H2S 5573   4.112   8.078   2.663 -0.0852  0.1115  0.6171
   44DOPE    C3 5574   4.355   7.762   2.880  0.3415 -0.2664  0.1963
   44DOPE    HX 5575   4.438   7.835   2.874 -1.1337  1.4458 -0.7893
   44DOPE    HY 5576   4.395   7.664   2.911  2.5059  0.2228 -0.9103
   44DOPE   O31 5577   4.259   7.815   2.971 -0.3511 -0.2744  0.2560
   44DOPE   C31 5578   4.237   7.942   2.968  0.6621  0.2964 -0.1904
   44DOPE   O32 5579   4.299   8.028   2.907  0.2878 -0.5129 -0.2648
   44DOPE   C32 5580   4.107   7.957   3.054  0.3003  1.1928  0.2555
   44DOPE   H2X 5581   4.077   8.063   3.069 -1.7832  0.3731  2.5114
   44DOPE   H2Y 5582   4.028   7.915   2.988  1.2155 -0.4119  0.1360
   44DOPE   C23 5583   3.957   8.021   2.529  0.0687 -0.0110  0.5665
   44DOPE   H3R 5584   3.939   7.942   2.454  0.5615  1.4531 -1.1711
   44DOPE   H3S 5585   3.937   8.123   2.489 -0.9599 -0.7704 -0.9070
   44DOPE   C24 5586   3.850   8.004   2.641 -0.0847 -0.4791  0.7556
   44DOPE   H4R 5587   3.880   7.916   2.702  0.3322 -0.6445  0.3207
   44DOPE   H4S 5588   3.744   8.000   2.608 -0.0776  1.5227  0.3934
   44DOPE   C25 5589   3.851   8.129   2.741  0.3739  0.1671 -0.3540
   44DOPE   H5R 5590   3.824   8.228   2.698  3.6223  1.4271  0.2235
   44DOPE   H5S 5591   3.955   8.141   2.778 -0.2876  0.8072  1.4436
   44DOPE   C26 5592   3.767   8.093   2.870 -0.6344  0.2776  0.1654
   44DOPE   H6R 5593   3.808   8.000   2.916 -1.9447 -0.4854 -0.1623
   44DOPE   H6S 5594   3.662   8.087   2.834 -0.9977  1.0300  1.0457
   44DOPE   C27 5595   3.781   8.208   2.972 -0.4913  0.4203 -0.8377
   44DOPE   H7R 5596   3.735   8.303   2.938  1.5645  1.2744 -1.3257
   44DOPE   H7S 5597   3.888   8.237   2.981 -0.4233 -0.1397  0.2597
   44DOPE   C28 5598   3.725   8.164   3.112  0.1839 -1.1767 -0.4945
   44DOPE   H8R 5599   3.680   8.063   3.102 -0.7457 -0.8213 -0.1060
   44DOPE   H8S 5600   3.629   8.220   3.122 -1.2062 -3.3701 -0.7152
   44DOPE   C29 5601   3.821   8.154   3.232  0.2481  0.2545  0.3801
   44DOPE   H9R 5602   3.879   8.061   3.241  0.5994  0.2930 -1.2374
   44DOPE  C210 5603   3.857   8.260   3.311 -0.3860 -0.6554 -0.4328
   44DOPE  H10R 5604   3.938   8.261   3.385 -1.6227  2.2026  1.0138
   44DOPE  C211 5605   3.795   8.397   3.292 -0.2584  0.2109  0.0946
   44DOPE  H11R 5606   3.684   8.393   3.289 -0.5684 -0.5934  4.5784
   44DOPE  H11S 5607   3.827   8.461   3.207  1.9107  1.3294  1.6660
   44DOPE  C212 5608   3.817   8.498   3.407 -0.1809  0.1499 -0.3420
   44DOPE  H12R 5609   3.791   8.596   3.360  1.6273  0.5752 -0.5390
   44DOPE  H12S 5610   3.924   8.500   3.433  0.1494  0.6354 -1.6566
   44DOPE  C213 5611   3.725   8.475   3.529  0.2275 -0.3928 -0.5215
   44DOPE  H13R 5612   3.738   8.370   3.562 -3.4501 -1.5842 -2.2646
   44DOPE  H13S 5613   3.619   8.490   3.498  0.6942  1.0442 -1.5025
   44DOPE  C214 5614   3.756   8.564   3.646  0.6734  0.1564  0.7566
   44DOPE  H14R 5615   3.729   8.671   3.638 -2.1233 -0.5358 -0.9157
   44DOPE  H14S 5616   3.864   8.563   3.668  1.2211  0.9917 -1.6294
   44DOPE  C215 5617   3.670   8.511   3.766 -0.3380  0.0082  0.3316
   44DOPE  H15R 5618   3.673   8.400   3.761 -0.7061  0.0422 -1.1797
   44DOPE  H15S 5619   3.562   8.530   3.747  0.3021  0.5812 -3.5339
   44DOPE  C216 5620   3.704   8.563   3.897 -0.6906  0.0025 -0.0916
   44DOPE  H16R 5621   3.716   8.674   3.894  0.8320 -0.1545 -1.4011
   44DOPE  H16S 5622   3.795   8.516   3.938 -2.0981 -0.3636  2.8640
   44DOPE  C217 5623   3.586   8.550   4.000 -0.2720 -0.2100 -0.3646
   44DOPE  H17R 5624   3.542   8.449   3.986 -0.4714  0.1144 -2.3657
   44DOPE  H17S 5625   3.510   8.629   3.981  0.3646  0.4310 -0.3003
   44DOPE  C218 5626   3.646   8.559   4.139  0.3589 -0.2452  0.0653
   44DOPE  H18R 5627   3.701   8.467   4.171  0.3010  0.8374  3.7788
   44DOPE  H18S 5628   3.563   8.572   4.212  1.5712  2.1156  1.1207
   44DOPE  H18T 5629   3.714   8.646   4.152 -1.1645  0.8983  0.6294
   44DOPE   C33 5630   4.118   7.883   3.188 -0.3171  0.1842 -0.6119
   44DOPE   H3X 5631   4.165   7.783   3.175  1.5842  0.9427  0.0539
   44DOPE   H3Y 5632   4.016   7.861   3.226  0.2915 -2.4772 -0.3304
   44DOPE   C34 5633   4.200   7.951   3.291 -0.3118  0.1740 -0.2393
   44DOPE   H4X 5634   4.306   7.951   3.258 -0.8265 -1.5329 -2.0613
   44DOPE   H4Y 5635   4.174   8.057   3.313 -1.1774 -0.4109  1.7625
   44DOPE   C35 5636   4.183   7.888   3.432  0.0885 -0.7428 -0.2875
   44DOPE   H5X 5637   4.229   7.787   3.445  0.1858 -0.4989  1.4985
   44DOPE   H5Y 5638   4.077   7.875   3.464  0.3563 -0.2670  0.8422
   44DOPE   C36 5639   4.258   7.982   3.536  0.9014  0.4619  0.4974
   44DOPE   H6X 5640   4.361   7.993   3.497  0.7749 -0.1827 -0.0234
   44DOPE   H6Y 5641   4.272   7.914   3.623 -1.1588 -0.8551 -0.1280
   44DOPE   C37 5642   4.199   8.117   3.578 -0.5664  0.3750  0.6654
   44DOPE   H7X 5643   4.267   8.158   3.655 -1.3511  1.3016  0.8967
   44DOPE   H7Y 5644   4.197   8.185   3.489  0.8905 -1.5284 -0.9245
   44DOPE   C38 5645   4.052   8.111   3.643 -0.4075 -0.7620  0.1865
   44DOPE   H8X 5646   4.053   8.055   3.738 -0.9941 -2.3711 -0.7181
   44DOPE   H8Y 5647   3.991   8.049   3.573 -1.1256  0.1629 -0.0222
   44DOPE   C39 5648   4.013   8.255   3.659  0.0939  0.1453 -0.2678
   44DOPE   H9X 5649   3.949   8.299   3.581 -0.4147 -1.0968 -0.5769
   44DOPE  C310 5650   4.027   8.328   3.776 -0.3842 -0.3277  0.1749
   44DOPE  H10X 5651   4.011   8.437   3.774  1.7155  0.1007  2.1624
   44DOPE  C311 5652   4.086   8.281   3.906 -0.0638 -0.2253 -1.0736
   44DOPE  H11X 5653   4.084   8.170   3.905  0.3973 -0.2362 -1.0914
   44DOPE  H11Y 5654   4.192   8.313   3.915 -0.2387 -0.1232  1.0647
   44DOPE  C312 5655   4.013   8.342   4.027 -0.0100  0.4363 -0.5922
   44DOPE  H12X 5656   3.909   8.303   4.023  0.0642  0.2474 -0.6913
   44DOPE  H12Y 5657   4.002   8.451   4.009 -2.3989  0.5177  0.9207
   44DOPE  C313 5658   4.069   8.300   4.161 -0.2322 -0.5439 -0.0537
   44DOPE  H13X 5659   4.046   8.194   4.183 -0.7263 -0.6399 -0.9678
   44DOPE  H13Y 5660   4.177   8.327   4.161 -0.2451 -0.3645 -1.9830
   44DOPE  C314 5661   3.993   8.378   4.271 -0.4007  0.6130 -0.6477
   44DOPE  H14X 5662   3.885   8.352   4.269 -1.0411  3.0458 -0.7412
   44DOPE  H14Y 5663   3.999   8.484   4.240  1.3842  0.5567 -0.6057
   44DOPE  C315 5664   4.051   8.367   4.418 -0.2270 -0.4764  0.0307
   44DOPE  H15X 5665   3.996   8.447   4.473  2.3686  2.6846 -1.6481
   44DOPE  H15Y 5666   4.156   8.398   4.400 -1.4905  4.2112 -0.6481
   44DOPE  C316 5667   4.046   8.227   4.469 -0.2733 -1.1407  0.7160
   44DOPE  H16X 5668   4.107   8.167   4.398 -0.5066 -2.1347  1.3402
   44DOPE  H16Y 5669   3.942   8.190   4.460 -0.1544 -0.9847 -2.3734
   44DOPE  C317 5670   4.119   8.208   4.601 -0.2203  0.0556 -0.0301
   44DOPE  H17X 5671   4.147   8.103   4.626  3.1310  0.4309 -1.5488
   44DOPE  H17Y 5672   4.220   8.252   4.589  1.8595 -3.8535  1.4104
   44DOPE  C318 5673   4.053   8.275   4.723  0.2346 -0.3083  0.1049
   44DOPE  H18X 5674   3.997   8.366   4.695  0.3012  0.6290  2.7108
   44DOPE  H18Y 5675   3.976   8.203   4.758  0.3149  0.6183  2.3618
   44DOPE  H18Z 5676   4.122   8.307   4.804 -1.6871  0.8906  1.3511
   45DOPE     N 5677   5.179   7.589   2.872  0.7539  0.1895  0.5107
   45DOPE   HN1 5678   5.273   7.544   2.882  0.4212 -0.1315  2.7920
   45DOPE   HN2 5679   5.131   7.547   2.791 -0.6493  3.2005 -0.3529
   45DOPE   HN3 5680   5.181   7.691   2.854 -1.4577  0.0480 -0.8619
   45DOPE   C12 5681   5.109   7.559   2.999 -0.7124  0.6111 -0.6948
   45DOPE  H12A 5682   5.162   7.611   3.081  0.2611 -1.9349  0.3762
   45DOPE  H12B 5683   5.118   7.450   3.014 -0.4622  0.2766 -2.8717
   45DOPE   C11 5684   4.966   7.599   2.992 -0.2164 -0.2809  0.1025
   45DOPE  H11A 5685   4.971   7.705   2.961  4.8383 -0.7798 -1.8251
   45DOPE  H11B 5686   4.915   7.596   3.091 -0.1552  1.3021  0.2123
   45DOPE     P 5687   4.815   7.406   2.897 -0.1492 -0.5937  0.4331
   45DOPE   O13 5688   4.911   7.290   2.888  0.2869  0.0527 -0.0949
   45DOPE   O14 5689   4.717   7.416   2.788 -0.2794 -0.0351  0.3179
   45DOPE   O11 5690   4.755   7.417   3.041  0.4373  0.3510  0.2942
   45DOPE   O12 5691   4.896   7.535   2.884 -0.2063  0.2149 -0.4606
   45DOPE    C1 5692   4.628   7.481   3.067 -0.0130  0.3405 -0.1842
   45DOPE    HA 5693   4.548   7.440   3.001 -0.2050  0.6654 -0.1569
   45DOPE    HB 5694   4.634   7.592   3.067  1.2198  0.3556  2.6753
   45DOPE    C2 5695   4.564   7.436   3.201  0.6220  0.1029  0.6248
   45DOPE    HS 5696   4.457   7.463   3.189  1.0240  0.8750 -2.1003
   45DOPE   O21 5697   4.607   7.507   3.320 -0.0300  0.3637 -0.3457
   45DOPE   C21 5698   4.589   7.630   3.313  0.3158 -0.2508 -0.0410
   45DOPE   O22 5699   4.511   7.686   3.234  0.3759  0.1614 -0.4919
   45DOPE   C22 5700   4.660   7.715   3.416  0.3752 -0.2450  0.0080
   45DOPE   H2R 5701   4.692   7.811   3.372 -0.7184  0.5467  0.8724
   45DOPE   H2S 5702   4.747   7.654   3.450  0.5147  0.1847  0.4270
   45DOPE    C3 5703   4.569   7.280   3.217 -0.1866  0.1916  0.7660
   45DOPE    HX 5704   4.674   7.245   3.210 -1.2286 -3.0380 -0.6978
   45DOPE    HY 5705   4.507   7.233   3.137  0.7944 -0.7200  0.5172
   45DOPE   O31 5706   4.518   7.235   3.343  0.0436  0.1973  0.4933
   45DOPE   C31 5707   4.387   7.239   3.362  0.2410 -0.2130 -0.5344
   45DOPE   O32 5708   4.303   7.258   3.279 -0.6420  0.5170  0.2585
   45DOPE   C32 5709   4.355   7.219   3.511 -0.7494 -0.3511  0.3551
   45DOPE   H2X 5710   4.365   7.109   3.527  0.6207 -0.4580 -1.0354
   45DOPE   H2Y 5711   4.424   7.276   3.577 -0.0085 -1.0954  0.2375
   45DOPE   C23 5712   4.562   7.740   3.535 -0.6302 -0.6336  0.0635
   45DOPE   H3R 5713   4.534   7.644   3.585 -1.5361 -0.3509  0.1168
   45DOPE   H3S 5714   4.474   7.794   3.494 -1.4912 -1.3159  0.9685
   45DOPE   C24 5715   4.639   7.818   3.648  0.7374 -0.2863  0.2804
   45DOPE   H4R 5716   4.660   7.916   3.600  0.4796 -0.2433  0.2535
   45DOPE   H4S 5717   4.726   7.756   3.676  1.1682  0.3405  0.3509
   45DOPE   C25 5718   4.558   7.844   3.770 -0.7418 -0.3070 -0.1542
   45DOPE   H5R 5719   4.454   7.874   3.746 -0.3364  0.6379 -0.7925
   45DOPE   H5S 5720   4.606   7.924   3.830  1.7717 -1.3795 -0.6047
   45DOPE   C26 5721   4.560   7.716   3.848  0.2329  0.0344  0.1067
   45DOPE   H6R 5722   4.667   7.687   3.858  0.0751 -1.5214 -1.9732
   45DOPE   H6S 5723   4.503   7.634   3.798  0.0511  0.1635  0.1034
   45DOPE   C27 5724   4.509   7.743   3.987 -0.5285 -0.1629 -0.8210
   45DOPE   H7R 5725   4.403   7.774   3.978 -1.1441 -1.9120  0.0685
   45DOPE   H7S 5726   4.571   7.824   4.030  0.6182 -0.7509 -1.3215
   45DOPE   C28 5727   4.530   7.630   4.087  0.5180  0.6502  0.3209
   45DOPE   H8R 5728   4.518   7.676   4.188  2.4224  2.0747 -0.0402
   45DOPE   H8S 5729   4.635   7.592   4.089 -0.1565 -1.3913 -0.3461
   45DOPE   C29 5730   4.423   7.521   4.063  0.4557 -0.1195  0.1453
   45DOPE   H9R 5731   4.318   7.554   4.068  0.2413 -0.3333 -2.0077
   45DOPE  C210 5732   4.444   7.388   4.041  0.2523  0.3071 -0.7641
   45DOPE  H10R 5733   4.357   7.334   4.000 -0.2525  1.5723 -1.3932
   45DOPE  C211 5734   4.579   7.317   4.025 -0.0881 -0.7746 -0.5322
   45DOPE  H11R 5735   4.582   7.240   4.105  0.2163 -0.3106 -0.0858
   45DOPE  H11S 5736   4.657   7.395   4.035 -0.4694 -0.4477  0.0007
   45DOPE  C212 5737   4.606   7.260   3.884 -0.2419  0.6355 -0.2081
   45DOPE  H12R 5738   4.599   7.351   3.820 -0.8380  2.3886  2.2034
   45DOPE  H12S 5739   4.529   7.186   3.853 -0.9907  0.1119  2.6141
   45DOPE  C213 5740   4.747   7.189   3.884  0.4642 -0.0614  0.3783
   45DOPE  H13R 5741   4.722   7.102   3.948  2.1621 -1.2000 -0.4538
   45DOPE  H13S 5742   4.828   7.240   3.941 -0.0017  0.4616  0.5856
   45DOPE  C214 5743   4.800   7.146   3.741 -0.3417 -0.0474 -0.2842
   45DOPE  H14R 5744   4.874   7.067   3.767  0.2311  0.8594  0.9091
   45DOPE  H14S 5745   4.861   7.227   3.697  0.4462 -1.1714 -1.3444
   45DOPE  C215 5746   4.700   7.077   3.649 -0.1918 -0.2896  0.2177
   45DOPE  H15R 5747   4.736   7.088   3.544 -0.2664 -0.3809  0.1818
   45DOPE  H15S 5748   4.605   7.134   3.650  0.1500  0.3777 -1.5388
   45DOPE  C216 5749   4.673   6.929   3.695 -0.0393 -0.4771  0.7894
   45DOPE  H16R 5750   4.602   6.934   3.780  1.3348 -0.1213  1.9531
   45DOPE  H16S 5751   4.761   6.866   3.723  0.2861 -2.9505 -4.4778
   45DOPE  C217 5752   4.602   6.855   3.575 -0.3657 -0.7537  0.1403
   45DOPE  H17R 5753   4.677   6.836   3.496  1.5506  0.6528  1.5254
   45DOPE  H17S 5754   4.522   6.920   3.533 -0.2181 -1.5492 -1.4431
   45DOPE  C218 5755   4.549   6.714   3.611 -0.1725 -0.0258  0.4558
   45DOPE  H18R 5756   4.441   6.735   3.628 -0.3615  0.2680 -0.9850
   45DOPE  H18S 5757   4.593   6.672   3.704 -0.9039 -2.5317 -0.2694
   45DOPE  H18T 5758   4.560   6.641   3.529  2.5310  2.1033 -1.2516
   45DOPE   C33 5759   4.206   7.255   3.536  0.3709 -0.2950 -0.1550
   45DOPE   H3X 5760   4.172   7.199   3.625 -0.6577  0.2762 -0.1696
   45DOPE   H3Y 5761   4.132   7.232   3.455 -0.2815  2.3078 -0.3846
   45DOPE   C34 5762   4.196   7.412   3.561  0.4408 -0.6100 -0.2711
   45DOPE   H4X 5763   4.281   7.472   3.520  0.3257  0.8773  1.5153
   45DOPE   H4Y 5764   4.096   7.455   3.539  1.4447  1.9392 -0.2384
   45DOPE   C35 5765   4.199   7.445   3.712 -0.5643 -0.0187  0.1797
   45DOPE   H5X 5766   4.304   7.425   3.744 -0.3170 -0.4545 -0.8526
   45DOPE   H5Y 5767   4.125   7.379   3.763 -0.4975  0.7670  1.3305
   45DOPE   C36 5768   4.172   7.591   3.743 -0.2036  0.2991  0.2748
   45DOPE   H6X 5769   4.147   7.638   3.646  2.1174 -0.5616 -0.8074
   45DOPE   H6Y 5770   4.268   7.636   3.778 -0.5707  1.0821  0.2937
   45DOPE   C37 5771   4.058   7.601   3.847 -0.2204  0.3393 -0.0306
   45DOPE   H7X 5772   3.978   7.529   3.817  0.1815 -1.0013  1.9269
   45DOPE   H7Y 5773   4.101   7.562   3.941  1.7854  0.3576 -0.8906
   45DOPE   C38 5774   3.990   7.739   3.867  0.4415 -0.6398 -0.5424
   45DOPE   H8X 5775   3.896   7.725   3.925  0.4478  1.9363  0.2486
   45DOPE   H8Y 5776   3.962   7.789   3.772  2.4233  1.1866 -0.2416
   45DOPE   C39 5777   4.069   7.835   3.945 -0.6808  0.6684 -0.4291
   45DOPE   H9X 5778   4.140   7.888   3.879  1.4873  0.8145  1.8782
   45DOPE  C310 5779   4.061   7.865   4.075 -0.5530  0.3427 -0.1225
   45DOPE  H10X 5780   4.132   7.937   4.118 -0.2101 -0.3033  0.4224
   45DOPE  C311 5781   3.974   7.818   4.180 -0.4727  0.1787 -0.1930
   45DOPE  H11X 5782   3.872   7.833   4.137 -0.7046 -1.0351 -0.0983
   45DOPE  H11Y 5783   3.999   7.711   4.195 -2.3419 -0.0992  1.4405
   45DOPE  C312 5784   3.997   7.872   4.322  0.5415 -0.3307 -0.0403
   45DOPE  H12X 5785   3.974   7.981   4.312  2.8168  0.5084  2.6133
   45DOPE  H12Y 5786   4.104   7.870   4.349  0.8206  0.0792 -1.0478
   45DOPE  C313 5787   3.924   7.807   4.436 -0.0378  0.1897  0.9591
   45DOPE  H13X 5788   3.814   7.799   4.421 -0.1165 -0.8913  1.9886
   45DOPE  H13Y 5789   3.960   7.702   4.427  0.8283  0.5481  0.0988
   45DOPE  C314 5790   3.954   7.870   4.573  0.4718 -0.4226  0.8289
   45DOPE  H14X 5791   3.909   7.971   4.574  1.5998  0.1437 -0.9439
   45DOPE  H14Y 5792   4.065   7.877   4.578  0.4569  1.0443 -0.3911
   45DOPE  C315 5793   3.894   7.787   4.699  0.0607  0.2136  0.4848
   45DOPE  H15X 5794   3.907   7.677   4.684  3.0339  0.7080 -1.5212
   45DOPE  H15Y 5795   3.785   7.810   4.699  0.0758  0.4916 -1.5874
   45DOPE  C316 5796   3.969   7.807   4.829  0.2264 -1.4122  0.6388
   45DOPE  H16X 5797   3.892   7.770   4.900 -2.4306  0.6400 -0.9754
   45DOPE  H16Y 5798   3.975   7.918   4.832 -1.0593 -1.2783 -0.6083
   45DOPE  C317 5799   4.107   7.743   4.842  0.3381  0.2919  0.2776
   45DOPE  H17X 5800   4.158   7.741   4.743  2.3122 -0.6010  1.2517
   45DOPE  H17Y 5801   4.162   7.809   4.912  1.8932 -0.8623  0.1994
   45DOPE  C318 5802   4.105   7.601   4.898  0.2901 -0.2168  0.6643
   45DOPE  H18X 5803   4.083   7.614   5.007  1.6664 -2.3072  1.2582
   45DOPE  H18Y 5804   4.044   7.537   4.832  2.7153  0.1949 -2.1887
   45DOPE  H18Z 5805   4.204   7.550   4.900  0.4112  0.0168  2.3580
   46DOPE     N 5806   4.269   6.798   2.739  0.1092  0.3935 -0.1350
   46DOPE   HN1 5807   4.310   6.893   2.728 -0.0356  0.5081  0.2892
   46DOPE   HN2 5808   4.325   6.740   2.673  0.5101  0.5619  0.0514
   46DOPE   HN3 5809   4.171   6.805   2.703 -0.5586  2.9363  1.8241
   46DOPE   C12 5810   4.284   6.753   2.882  0.3077  0.1530 -0.8271
   46DOPE  H12A 5811   4.209   6.680   2.920 -0.3603  1.2970  0.1035
   46DOPE  H12B 5812   4.261   6.838   2.950 -0.0844 -0.2752 -0.4141
   46DOPE   C11 5813   4.435   6.698   2.913  0.0993 -0.4217 -0.0366
   46DOPE  H11A 5814   4.458   6.599   2.869  1.5767 -0.6076  1.0614
   46DOPE  H11B 5815   4.439   6.682   3.023 -2.3303 -2.4562 -0.1683
   46DOPE     P 5816   4.581   6.909   2.958  0.0759  0.7070 -0.2647
   46DOPE   O13 5817   4.489   7.019   2.932  0.5623  0.6156 -0.3359
   46DOPE   O14 5818   4.721   6.926   2.918  0.1518 -0.0242 -0.1288
   46DOPE   O11 5819   4.571   6.856   3.113  0.4358 -0.6068 -0.0148
   46DOPE   O12 5820   4.532   6.789   2.867 -0.3952 -0.1622 -0.4623
   46DOPE    C1 5821   4.690   6.805   3.174  0.6433 -0.9083  0.0461
   46DOPE    HA 5822   4.670   6.784   3.281  1.4358 -0.9072  0.1962
   46DOPE    HB 5823   4.762   6.885   3.200  0.2741 -1.1791  2.0698
   46DOPE    C2 5824   4.738   6.674   3.114  0.3676  0.0792 -0.0411
   46DOPE    HS 5825   4.758   6.690   3.006 -1.6587  0.9153 -0.3376
   46DOPE   O21 5826   4.653   6.566   3.140 -0.5654  0.0080  0.0820
   46DOPE   C21 5827   4.656   6.461   3.059  0.3254 -0.0540  0.9426
   46DOPE   O22 5828   4.715   6.462   2.950  0.1440  0.5302 -0.0013
   46DOPE   C22 5829   4.580   6.344   3.122  0.5025 -0.2211 -1.1845
   46DOPE   H2R 5830   4.656   6.281   3.174  0.6788  1.0768  0.1771
   46DOPE   H2S 5831   4.535   6.286   3.039  0.6104 -0.9320 -0.7584
   46DOPE    C3 5832   4.875   6.641   3.178 -0.1026  0.4316 -0.2545
   46DOPE    HX 5833   4.937   6.732   3.162  0.5373 -0.3468 -2.5256
   46DOPE    HY 5834   4.925   6.563   3.117 -2.4835 -2.5701  1.3094
   46DOPE   O31 5835   4.876   6.598   3.315 -0.5251 -0.0609 -0.1337
   46DOPE   C31 5836   4.879   6.470   3.337 -0.7514 -0.4245  0.7006
   46DOPE   O32 5837   4.896   6.385   3.251 -0.8881  0.0566  0.2250
   46DOPE   C32 5838   4.845   6.455   3.483  0.5022  0.1305  0.6091
   46DOPE   H2X 5839   4.770   6.536   3.500  1.6756  1.2555  0.6084
   46DOPE   H2Y 5840   4.792   6.360   3.506  0.6977 -0.0767  0.2214
   46DOPE   C23 5841   4.471   6.386   3.229 -0.3621  0.3719 -0.1401
   46DOPE   H3R 5842   4.400   6.459   3.187 -0.9933 -0.5591 -0.7225
   46DOPE   H3S 5843   4.526   6.434   3.313  1.1145 -0.0623 -0.8118
   46DOPE   C24 5844   4.397   6.267   3.289  0.2163 -0.1603  0.4182
   46DOPE   H4R 5845   4.468   6.185   3.315  0.5183  0.6211  2.1701
   46DOPE   H4S 5846   4.324   6.228   3.215 -1.1098  0.9470  1.1202
   46DOPE   C25 5847   4.306   6.290   3.407 -0.4731 -0.4130  0.1439
   46DOPE   H5R 5848   4.278   6.191   3.449 -1.8307  0.3364  1.0689
   46DOPE   H5S 5849   4.209   6.335   3.376  0.4104  1.1273 -0.5022
   46DOPE   C26 5850   4.356   6.380   3.520 -0.0374 -1.0559 -0.5439
   46DOPE   H6R 5851   4.383   6.480   3.481  2.7795 -0.9141  1.4410
   46DOPE   H6S 5852   4.456   6.350   3.559  1.6667 -0.0621 -3.7764
   46DOPE   C27 5853   4.265   6.394   3.646 -0.4723 -0.4524  0.3025
   46DOPE   H7R 5854   4.248   6.293   3.690  0.3558 -0.6327  0.2249
   46DOPE   H7S 5855   4.165   6.425   3.611 -0.2473 -0.0731 -0.0039
   46DOPE   C28 5856   4.309   6.493   3.759  0.4415 -0.2413  0.0854
   46DOPE   H8R 5857   4.217   6.532   3.808  0.6333  1.5089 -0.8440
   46DOPE   H8S 5858   4.363   6.570   3.700  0.1818  0.6634  1.0026
   46DOPE   C29 5859   4.412   6.450   3.857 -0.0991  0.6749 -0.0776
   46DOPE   H9R 5860   4.514   6.454   3.818 -0.5891 -2.1271 -1.8521
   46DOPE  C210 5861   4.389   6.397   3.981  0.4119 -0.3263  0.4672
   46DOPE  H10R 5862   4.472   6.351   4.036 -0.7364 -0.2463  2.3256
   46DOPE  C211 5863   4.258   6.380   4.055  0.8067  0.0554  0.1256
   46DOPE  H11R 5864   4.243   6.270   4.065 -2.1090  0.4769  1.4601
   46DOPE  H11S 5865   4.171   6.417   3.996  1.2272  1.2414  0.2249
   46DOPE  C212 5866   4.249   6.435   4.199  0.0604 -0.0640 -0.1361
   46DOPE  H12R 5867   4.164   6.382   4.247 -1.1991  1.3324 -0.7435
   46DOPE  H12S 5868   4.218   6.542   4.194 -1.6585 -0.5315 -0.1640
   46DOPE  C213 5869   4.370   6.404   4.282  0.8394  0.1716 -0.3124
   46DOPE  H13R 5870   4.337   6.441   4.381 -0.7902  0.1827 -0.8311
   46DOPE  H13S 5871   4.462   6.462   4.259  1.5450 -0.5349  0.6385
   46DOPE  C214 5872   4.399   6.248   4.297  0.2493  0.6262  0.0438
   46DOPE  H14R 5873   4.445   6.211   4.203  0.9258  3.2133 -0.7209
   46DOPE  H14S 5874   4.304   6.194   4.317  1.1219 -0.2520  2.0077
   46DOPE  C215 5875   4.490   6.223   4.412  0.4745 -0.3602 -0.0535
   46DOPE  H15R 5876   4.494   6.317   4.470 -1.0914 -1.1700  1.4570
   46DOPE  H15S 5877   4.592   6.189   4.381  1.9588  3.6784 -0.1989
   46DOPE  C216 5878   4.433   6.130   4.523 -0.2812 -0.3671  0.4427
   46DOPE  H16R 5879   4.424   6.026   4.486  1.8330  0.2735 -2.2306
   46DOPE  H16S 5880   4.328   6.165   4.539 -0.9136 -1.1978 -1.5488
   46DOPE  C217 5881   4.523   6.121   4.646 -0.2812  0.3801  0.8407
   46DOPE  H17R 5882   4.553   6.221   4.685 -2.0909  0.9819  0.7831
   46DOPE  H17S 5883   4.615   6.063   4.622 -0.4526  0.9361 -1.3710
   46DOPE  C218 5884   4.446   6.055   4.758  0.1343  0.8751 -0.5972
   46DOPE  H18R 5885   4.347   6.101   4.782  0.5212  0.8248  1.2222
   46DOPE  H18S 5886   4.511   6.060   4.848  1.2848  2.0799 -1.4474
   46DOPE  H18T 5887   4.430   5.951   4.724  1.8062 -0.0100  1.1781
   46DOPE   C33 5888   4.954   6.476   3.582 -0.8568  0.2081  0.3275
   46DOPE   H3X 5889   5.018   6.565   3.566  0.9592 -0.5549  2.7577
   46DOPE   H3Y 5890   5.025   6.392   3.568  1.0457  1.7921 -0.0531
   46DOPE   C34 5891   4.885   6.483   3.719  0.8486  0.1637 -0.0595
   46DOPE   H4X 5892   4.822   6.570   3.747  0.5303  0.9901 -2.9992
   46DOPE   H4Y 5893   4.808   6.402   3.722 -1.0790  1.7738 -2.3389
   46DOPE   C35 5894   4.984   6.449   3.837 -0.0510 -0.0561 -0.1147
   46DOPE   H5X 5895   4.923   6.421   3.925 -0.5056 -1.0735 -0.7453
   46DOPE   H5Y 5896   5.036   6.546   3.856  0.2896 -0.0950 -0.8216
   46DOPE   C36 5897   5.080   6.333   3.825 -0.0120 -0.0681 -0.7272
   46DOPE   H6X 5898   5.160   6.362   3.754 -0.1851  1.0647 -0.4835
   46DOPE   H6Y 5899   5.034   6.239   3.788  1.5280 -0.8926 -0.6406
   46DOPE   C37 5900   5.153   6.304   3.958 -0.5169  0.2377  0.0652
   46DOPE   H7X 5901   5.178   6.405   3.994 -2.7365  0.4242  1.2458
   46DOPE   H7Y 5902   5.097   6.243   4.032  2.4816 -0.2552  2.1176
   46DOPE   C38 5903   5.288   6.239   3.922  0.6281 -0.3482  0.4118
   46DOPE   H8X 5904   5.340   6.198   4.011  2.1315  0.7482  0.0756
   46DOPE   H8Y 5905   5.343   6.332   3.895 -1.8343  0.7490 -1.1333
   46DOPE   C39 5906   5.291   6.132   3.817 -0.3472 -0.2780  0.4231
   46DOPE   H9X 5907   5.288   6.174   3.716 -1.8184 -1.9108 -0.2552
   46DOPE  C310 5908   5.263   6.002   3.842  0.6874  0.4732  0.2832
   46DOPE  H10X 5909   5.248   5.935   3.757  0.1709  1.1254 -0.1465
   46DOPE  C311 5910   5.234   5.942   3.977 -0.0996  0.3157 -0.8438
   46DOPE  H11X 5911   5.246   6.023   4.052 -1.0685  1.2645 -1.6770
   46DOPE  H11Y 5912   5.128   5.909   3.981 -0.2602  0.9190  0.4807
   46DOPE  C312 5913   5.314   5.814   4.012 -0.2219 -0.0712  0.0806
   46DOPE  H12X 5914   5.417   5.843   4.043  0.3113 -1.9333  0.1807
   46DOPE  H12Y 5915   5.321   5.736   3.933  0.9240  0.0327  0.0569
   46DOPE  C313 5916   5.247   5.733   4.128 -0.3084  0.3304 -0.2203
   46DOPE  H13X 5917   5.150   5.691   4.093 -1.3129  2.5754 -0.3060
   46DOPE  H13Y 5918   5.318   5.650   4.150  0.9824  1.6140  0.6096
   46DOPE  C314 5919   5.220   5.813   4.261 -0.3581  0.3292  0.7595
   46DOPE  H14X 5920   5.169   5.746   4.333 -0.3453 -0.1641  0.3164
   46DOPE  H14Y 5921   5.153   5.900   4.244  1.4463  1.8200  0.9647
   46DOPE  C315 5922   5.346   5.853   4.327  0.1747 -0.2133 -0.3821
   46DOPE  H15X 5923   5.403   5.928   4.268  0.3234  1.2194  1.4835
   46DOPE  H15Y 5924   5.412   5.766   4.343 -0.7557 -0.4593  2.7326
   46DOPE  C316 5925   5.315   5.931   4.453 -0.1242 -0.0542  0.0754
   46DOPE  H16X 5926   5.266   5.869   4.530 -0.1199  0.8070  0.7967
   46DOPE  H16Y 5927   5.256   6.021   4.425  1.6268  0.2668 -3.0460
   46DOPE  C317 5928   5.450   5.961   4.527 -0.3641 -0.1281 -0.5920
   46DOPE  H17X 5929   5.425   6.000   4.628  1.5710  1.3102 -0.6135
   46DOPE  H17Y 5930   5.495   5.860   4.543 -2.3706 -1.1807 -1.1526
   46DOPE  C318 5931   5.553   6.056   4.469  0.7350  0.6582  0.1066
   46DOPE  H18X 5932   5.489   6.139   4.431 -1.8876 -0.3729  1.9540
   46DOPE  H18Y 5933   5.621   6.090   4.550  0.1797  1.4712  0.2425
   46DOPE  H18Z 5934   5.607   6.014   4.382 -0.3213 -0.7461  0.0895
   47DOPE     N 5935   1.242   7.229   2.632 -0.4150  0.0295  0.1878
   47DOPE   HN1 5936   1.176   7.303   2.664 -1.0097  0.4293 -1.8398
   47DOPE   HN2 5937   1.339   7.266   2.638 -0.6878  1.2076 -1.7612
   47DOPE   HN3 5938   1.211   7.219   2.533  0.6646 -2.1306  0.0050
   47DOPE   C12 5939   1.220   7.091   2.691  0.1799  0.1315  0.2290
   47DOPE  H12A 5940   1.134   7.049   2.636 -4.0911  5.9149  1.5265
   47DOPE  H12B 5941   1.207   7.111   2.800  1.8901  0.7674  0.3614
   47DOPE   C11 5942   1.341   6.997   2.675 -0.5594  0.6788  0.2041
   47DOPE  H11A 5943   1.360   6.974   2.568 -0.7111 -0.1298  0.3490
   47DOPE  H11B 5944   1.321   6.898   2.719  0.2241 -0.2280 -1.3694
   47DOPE     P 5945   1.578   6.985   2.792 -0.0119 -0.1489 -0.1962
   47DOPE   O13 5946   1.654   7.070   2.884 -0.6225  0.6330 -0.2267
   47DOPE   O14 5947   1.656   6.916   2.689  0.0521  0.1073 -0.0762
   47DOPE   O11 5948   1.492   6.872   2.878  0.0844  0.0627  0.3367
   47DOPE   O12 5949   1.461   7.065   2.722  0.2767  0.9546 -0.6368
   47DOPE    C1 5950   1.417   6.906   2.991  0.1135  0.3033 -0.2394
   47DOPE    HA 5951   1.310   6.917   2.961  0.1701  0.4364 -0.3977
   47DOPE    HB 5952   1.430   7.009   3.030  2.6279  0.8361 -2.2167
   47DOPE    C2 5953   1.421   6.799   3.108  0.3082 -0.3527  0.3932
   47DOPE    HS 5954   1.319   6.794   3.153  0.6177  0.2430  1.1762
   47DOPE   O21 5955   1.508   6.839   3.212  0.2007 -0.5608 -0.0373
   47DOPE   C21 5956   1.492   6.943   3.287 -0.3767 -0.5529 -0.1506
   47DOPE   O22 5957   1.395   7.017   3.284 -0.2242 -0.3410  0.4554
   47DOPE   C22 5958   1.628   6.958   3.364 -0.4334  0.0062 -0.0772
   47DOPE   H2R 5959   1.701   7.002   3.293  0.7553  0.3219  1.2831
   47DOPE   H2S 5960   1.656   6.862   3.413 -0.5651 -0.1943 -0.3927
   47DOPE    C3 5961   1.452   6.646   3.051  0.3384 -0.1748  0.2726
   47DOPE    HX 5962   1.545   6.654   2.992 -0.1839  0.3564 -0.4973
   47DOPE    HY 5963   1.388   6.608   2.968  0.6175 -0.4150  0.1638
   47DOPE   O31 5964   1.458   6.553   3.158 -0.0753 -0.7780 -0.1509
   47DOPE   C31 5965   1.584   6.534   3.202 -0.4446  0.1509  0.3255
   47DOPE   O32 5966   1.688   6.588   3.157  0.4270 -0.5961 -0.0144
   47DOPE   C32 5967   1.593   6.406   3.280 -0.3482  0.8931 -0.5929
   47DOPE   H2X 5968   1.497   6.381   3.330 -0.4078  1.0077 -0.6493
   47DOPE   H2Y 5969   1.636   6.328   3.214 -0.3282 -0.3720  0.8522
   47DOPE   C23 5970   1.614   7.063   3.478  0.1132 -0.2069  0.1383
   47DOPE   H3R 5971   1.550   7.023   3.559 -0.4848 -2.7177 -1.4704
   47DOPE   H3S 5972   1.571   7.152   3.427 -0.8489 -1.7434 -1.8666
   47DOPE   C24 5973   1.746   7.093   3.546  0.1520  0.5379  0.2181
   47DOPE   H4R 5974   1.820   7.128   3.471 -2.2081  1.8890 -1.5962
   47DOPE   H4S 5975   1.793   6.996   3.574 -0.2525  0.3055  0.1124
   47DOPE   C25 5976   1.738   7.189   3.662 -0.7170  0.2326 -0.3332
   47DOPE   H5R 5977   1.650   7.169   3.727 -0.3553 -1.7716 -0.3800
   47DOPE   H5S 5978   1.730   7.291   3.621  0.8744  1.2283  1.6005
   47DOPE   C26 5979   1.866   7.189   3.750  0.0556  0.8990  0.1020
   47DOPE   H6R 5980   1.954   7.168   3.686 -0.3413  2.1193 -0.8830
   47DOPE   H6S 5981   1.860   7.101   3.816  1.2348  0.9967  0.3681
   47DOPE   C27 5982   1.894   7.316   3.839  0.1483  0.8000  0.7854
   47DOPE   H7R 5983   1.905   7.397   3.764 -1.5097  1.8512  1.6184
   47DOPE   H7S 5984   1.989   7.311   3.897  0.0525  1.2598  0.9862
   47DOPE   C28 5985   1.788   7.353   3.947 -0.5796 -0.4964  1.4951
   47DOPE   H8R 5986   1.692   7.371   3.894  0.3864 -0.2224 -0.2003
   47DOPE   H8S 5987   1.818   7.451   3.990  0.8160  0.0399 -0.5771
   47DOPE   C29 5988   1.769   7.259   4.061 -0.2776  0.4851  0.1305
   47DOPE   H9R 5989   1.845   7.181   4.077 -1.3052 -1.3369 -3.0470
   47DOPE  C210 5990   1.670   7.263   4.147 -0.2489 -1.1361  0.0500
   47DOPE  H10R 5991   1.668   7.189   4.229  1.6318 -0.2916  0.9070
   47DOPE  C211 5992   1.545   7.350   4.134  0.4272  0.5160  1.0326
   47DOPE  H11R 5993   1.469   7.295   4.075 -0.6383  2.9269 -0.0088
   47DOPE  H11S 5994   1.579   7.437   4.073  0.5050 -1.0269 -1.2815
   47DOPE  C212 5995   1.483   7.403   4.263  0.3744 -0.7087 -0.7141
   47DOPE  H12R 5996   1.413   7.487   4.246  0.9503 -0.1605 -0.4022
   47DOPE  H12S 5997   1.555   7.436   4.340 -1.4701 -2.6219  2.0226
   47DOPE  C213 5998   1.397   7.296   4.342 -0.2538 -0.4027 -0.4890
   47DOPE  H13R 5999   1.468   7.218   4.377 -0.1831 -0.1847 -0.1389
   47DOPE  H13S 6000   1.330   7.259   4.262 -1.6161  0.6476  0.1375
   47DOPE  C214 6001   1.335   7.361   4.464 -0.0872  0.2487  0.6118
   47DOPE  H14R 6002   1.235   7.394   4.429  0.4556 -0.6558 -2.0163
   47DOPE  H14S 6003   1.386   7.451   4.504 -1.0473  1.4589 -0.7987
   47DOPE  C215 6004   1.291   7.273   4.580 -0.6109  0.0299 -0.1087
   47DOPE  H15R 6005   1.232   7.321   4.661 -1.7100 -1.5426  0.0694
   47DOPE  H15S 6006   1.386   7.241   4.628  1.1830  1.8709 -2.2012
   47DOPE  C216 6007   1.210   7.148   4.537  0.0345  0.2553 -0.9368
   47DOPE  H16R 6008   1.251   7.098   4.448 -1.0640 -0.9372 -0.8040
   47DOPE  H16S 6009   1.108   7.179   4.504 -0.3630  0.2492  0.2009
   47DOPE  C217 6010   1.189   7.039   4.644 -0.1724 -0.0212 -0.3923
   47DOPE  H17R 6011   1.137   6.951   4.600 -0.7967 -0.0926  0.4599
   47DOPE  H17S 6012   1.123   7.077   4.726 -0.0013 -1.1889  0.3102
   47DOPE  C218 6013   1.318   6.980   4.707  0.0851 -0.3095  0.2439
   47DOPE  H18R 6014   1.278   6.904   4.777 -0.8849 -0.5717 -0.5714
   47DOPE  H18S 6015   1.386   7.037   4.774 -0.0614 -0.4566  0.5205
   47DOPE  H18T 6016   1.378   6.916   4.639  1.8916 -0.6812  2.1100
   47DOPE   C33 6017   1.686   6.427   3.402 -0.5852  0.4374  0.6422
   47DOPE   H3X 6018   1.788   6.470   3.396 -0.9535  1.7480  2.7043
   47DOPE   H3Y 6019   1.708   6.324   3.438  2.8819  0.2273 -1.5944
   47DOPE   C34 6020   1.625   6.510   3.514  0.1966 -0.3304  0.2913
   47DOPE   H4X 6021   1.704   6.520   3.592 -1.5368 -0.9109  2.2059
   47DOPE   H4Y 6022   1.593   6.612   3.485  3.5176  0.9350  0.6535
   47DOPE   C35 6023   1.516   6.442   3.598  0.5084  0.1570 -0.0706
   47DOPE   H5X 6024   1.551   6.339   3.618 -0.1445 -0.1993 -0.7524
   47DOPE   H5Y 6025   1.425   6.436   3.536 -0.2603 -1.0741  1.1289
   47DOPE   C36 6026   1.479   6.507   3.729  0.4130  0.7572 -0.4833
   47DOPE   H6X 6027   1.466   6.610   3.691  1.6444  0.4027 -1.9391
   47DOPE   H6Y 6028   1.555   6.484   3.806 -1.0289 -3.8713 -0.1057
   47DOPE   C37 6029   1.351   6.436   3.791  0.1761 -0.2629 -0.2136
   47DOPE   H7X 6030   1.276   6.444   3.709  1.8170 -0.5313 -1.8190
   47DOPE   H7Y 6031   1.370   6.330   3.817  0.9021 -0.1519 -0.2686
   47DOPE   C38 6032   1.289   6.504   3.920 -0.4830 -0.6833  0.3722
   47DOPE   H8X 6033   1.190   6.453   3.932 -0.7413 -0.5081 -0.9011
   47DOPE   H8Y 6034   1.278   6.611   3.893  2.1974 -0.4199  0.0770
   47DOPE   C39 6035   1.387   6.511   4.038 -0.0241 -0.4632 -0.9951
   47DOPE   H9X 6036   1.483   6.561   4.017 -0.0164  0.0346  0.1260
   47DOPE  C310 6037   1.370   6.447   4.158  0.3093 -0.0640  0.1599
   47DOPE  H10X 6038   1.447   6.451   4.236  2.7661  0.9268 -2.1526
   47DOPE  C311 6039   1.250   6.370   4.191  0.2282  0.2581  0.4481
   47DOPE  H11X 6040   1.202   6.414   4.281  2.5891 -1.4534  2.7068
   47DOPE  H11Y 6041   1.166   6.374   4.119 -0.0329  0.4431  0.7576
   47DOPE  C312 6042   1.278   6.222   4.217  0.6268  0.2647 -0.1349
   47DOPE  H12X 6043   1.184   6.175   4.252  1.5847 -1.0242  0.7562
   47DOPE  H12Y 6044   1.351   6.202   4.298  1.0271 -0.0359 -0.5673
   47DOPE  C313 6045   1.354   6.142   4.109  0.8072  0.5163  0.0501
   47DOPE  H13X 6046   1.277   6.134   4.029  0.8601 -0.3579  0.0773
   47DOPE  H13Y 6047   1.439   6.193   4.060 -0.2944  0.2546 -2.2854
   47DOPE  C314 6048   1.398   5.996   4.141  0.2970 -0.2068 -0.2428
   47DOPE  H14X 6049   1.309   5.932   4.160  0.6007  0.0373  2.5380
   47DOPE  H14Y 6050   1.460   6.000   4.233  1.1127  3.0501 -0.7832
   47DOPE  C315 6051   1.473   5.931   4.022 -0.5132 -0.3379  0.3104
   47DOPE  H15X 6052   1.566   5.986   3.995 -0.5084 -0.3046  0.3943
   47DOPE  H15Y 6053   1.407   5.942   3.934 -1.7312 -0.2714  1.1975
   47DOPE  C316 6054   1.500   5.777   4.064  0.1864 -0.3539 -0.5844
   47DOPE  H16X 6055   1.406   5.738   4.107 -0.8832  3.5179  1.0295
   47DOPE  H16Y 6056   1.565   5.770   4.154 -1.0280 -2.1192  0.2189
   47DOPE  C317 6057   1.566   5.700   3.951  0.3612  0.1903 -0.4999
   47DOPE  H17X 6058   1.490   5.684   3.871 -0.5072  2.3171 -0.1565
   47DOPE  H17Y 6059   1.642   5.771   3.913 -0.8462  1.4180 -0.6985
   47DOPE  C318 6060   1.636   5.573   3.992  1.0490 -0.5348 -0.1569
   47DOPE  H18X 6061   1.735   5.583   4.042  1.4806 -2.0013 -0.6604
   47DOPE  H18Y 6062   1.573   5.520   4.066  3.6518 -0.5444  2.2087
   47DOPE  H18Z 6063   1.647   5.516   3.897 -1.7332  1.6405 -1.9680
   48DOPE     N 6064   0.730   2.384   3.125 -0.0483  0.0179 -0.0629
   48DOPE   HN1 6065   0.745   2.282   3.111  4.3357  0.5087 -0.2313
   48DOPE   HN2 6066   0.798   2.433   3.064 -0.9484  2.4794  0.7791
   48DOPE   HN3 6067   0.747   2.412   3.224 -0.3641  1.4714 -0.3921
   48DOPE   C12 6068   0.596   2.433   3.098  0.6181 -1.0131  0.0722
   48DOPE  H12A 6069   0.597   2.544   3.099  1.4720 -0.9878  2.4490
   48DOPE  H12B 6070   0.530   2.396   3.179  0.5298 -1.3147 -0.1382
   48DOPE   C11 6071   0.554   2.387   2.962  0.4078  0.1628  0.2172
   48DOPE  H11A 6072   0.614   2.429   2.878 -0.6470 -1.1525 -1.2584
   48DOPE  H11B 6073   0.453   2.426   2.935  0.5950 -1.1798 -2.7816
   48DOPE     P 6074   0.444   2.149   2.997  0.0905  0.1569  0.1423
   48DOPE   O13 6075   0.486   2.012   3.037 -0.1324  0.0415 -0.1659
   48DOPE   O14 6076   0.339   2.151   2.894 -0.6170  0.2746  0.2913
   48DOPE   O11 6077   0.390   2.234   3.118 -0.0273  0.0240 -0.4021
   48DOPE   O12 6078   0.565   2.242   2.952 -0.0512  0.5017 -0.1584
   48DOPE    C1 6079   0.261   2.296   3.120  0.0464  0.3834 -0.4953
   48DOPE    HA 6080   0.190   2.214   3.096  0.4720 -0.7031  1.7264
   48DOPE    HB 6081   0.258   2.380   3.047 -2.3648  0.7717 -0.0256
   48DOPE    C2 6082   0.226   2.346   3.268 -0.3504  0.3946  0.2883
   48DOPE    HS 6083   0.294   2.433   3.277  1.2448 -0.5520 -1.8104
   48DOPE   O21 6084   0.228   2.244   3.370  0.4013  0.0367  0.0186
   48DOPE   C21 6085   0.310   2.266   3.468 -0.1470 -0.0617 -0.0006
   48DOPE   O22 6086   0.382   2.360   3.493 -0.2184 -0.5911 -0.3749
   48DOPE   C22 6087   0.291   2.147   3.564 -0.6342  0.3408  0.4295
   48DOPE   H2R 6088   0.394   2.118   3.593 -0.7706 -1.0317 -0.3742
   48DOPE   H2S 6089   0.234   2.069   3.509 -2.1190  2.0193 -0.5033
   48DOPE    C3 6090   0.084   2.406   3.271  0.2004  0.5026 -0.7798
   48DOPE    HX 6091   0.025   2.319   3.235  2.4513 -0.3199 -2.7555
   48DOPE    HY 6092   0.069   2.493   3.203  1.3116  0.7931 -0.6751
   48DOPE   O31 6093   0.038   2.434   3.408  0.1191 -0.4455  0.3164
   48DOPE   C31 6094   0.097   2.550   3.455 -0.1146  0.2535  0.1916
   48DOPE   O32 6095   0.184   2.611   3.397  0.2652  0.1804  0.2252
   48DOPE   C32 6096   0.059   2.567   3.607  0.2995  0.1178 -0.9719
   48DOPE   H2X 6097  -0.049   2.546   3.625  0.2516  1.7299  0.9587
   48DOPE   H2Y 6098   0.125   2.509   3.675  0.3548 -0.1580 -1.2561
   48DOPE   C23 6099   0.217   2.194   3.693 -0.2372 -0.0770 -0.5777
   48DOPE   H3R 6100   0.108   2.209   3.676 -0.5176 -0.6192  0.6417
   48DOPE   H3S 6101   0.260   2.294   3.716  2.4352 -0.8657 -1.7858
   48DOPE   C24 6102   0.225   2.098   3.817  0.0717  1.0118 -0.1761
   48DOPE   H4R 6103   0.325   2.105   3.864 -0.1470  1.3420  0.2482
   48DOPE   H4S 6104   0.227   1.997   3.771  0.4611  1.1087 -0.3761
   48DOPE   C25 6105   0.097   2.094   3.907  0.2943  0.0006  0.1507
   48DOPE   H5R 6106   0.006   2.072   3.847  0.4024 -2.2397  0.7232
   48DOPE   H5S 6107   0.085   2.189   3.962 -1.1279  0.4181 -0.8303
   48DOPE   C26 6108   0.104   1.984   4.012 -0.0025 -0.2786 -0.2536
   48DOPE   H6R 6109   0.137   2.021   4.111  0.0990 -0.8111 -0.0847
   48DOPE   H6S 6110   0.182   1.910   3.983  0.8715  0.4567  0.2099
   48DOPE   C27 6111  -0.028   1.910   4.022 -0.6414  0.1614 -0.0276
   48DOPE   H7R 6112  -0.059   1.854   3.931 -3.7934  0.5422  0.6865
   48DOPE   H7S 6113  -0.102   1.993   4.029 -0.6606  0.0267  1.7412
   48DOPE   C28 6114  -0.033   1.816   4.145 -0.1806 -0.1013  0.4851
   48DOPE   H8R 6115  -0.019   1.884   4.232  1.0498  3.9452 -2.5856
   48DOPE   H8S 6116   0.061   1.756   4.146  1.8107  2.5005 -3.4676
   48DOPE   C29 6117  -0.161   1.742   4.165  0.3233  0.5503  0.8090
   48DOPE   H9R 6118  -0.188   1.664   4.093 -0.4230  0.3871  1.2616
   48DOPE  C210 6119  -0.246   1.771   4.265  0.0238 -0.1235  0.4949
   48DOPE  H10R 6120  -0.337   1.709   4.273  0.9345 -1.4697  0.7241
   48DOPE  C211 6121  -0.230   1.864   4.384 -0.4305 -1.3979 -1.1662
   48DOPE  H11R 6122  -0.203   1.964   4.344 -2.8165 -0.3850 -0.4332
   48DOPE  H11S 6123  -0.152   1.836   4.458 -0.8884  0.9976  0.3302
   48DOPE  C212 6124  -0.354   1.879   4.480  0.4198 -0.3920 -0.4389
   48DOPE  H12R 6125  -0.438   1.866   4.408  0.7611 -1.5075 -0.6634
   48DOPE  H12S 6126  -0.353   1.978   4.530 -0.7443 -0.9268  0.7081
   48DOPE  C213 6127  -0.360   1.771   4.589 -0.0615 -0.3602 -0.0960
   48DOPE  H13R 6128  -0.281   1.790   4.665 -1.6345  0.9371  1.2829
   48DOPE  H13S 6129  -0.345   1.672   4.540  0.9462  0.5285 -1.6812
   48DOPE  C214 6130  -0.495   1.772   4.661 -0.4331 -0.0047  0.3569
   48DOPE  H14R 6131  -0.569   1.762   4.579 -0.0841 -1.1465  0.1627
   48DOPE  H14S 6132  -0.515   1.874   4.702 -1.8188 -0.1161  0.0087
   48DOPE  C215 6133  -0.510   1.677   4.773 -0.2033 -1.4532  0.3355
   48DOPE  H15R 6134  -0.612   1.685   4.818  0.2792  0.4687  1.2252
   48DOPE  H15S 6135  -0.433   1.704   4.848 -0.5473 -1.1707  0.5920
   48DOPE  C216 6136  -0.479   1.532   4.745 -0.5728  0.4772 -0.2466
   48DOPE  H16R 6137  -0.369   1.531   4.764 -0.9951 -0.8221  2.8512
   48DOPE  H16S 6138  -0.510   1.501   4.643 -0.4255  0.8432 -0.4017
   48DOPE  C217 6139  -0.541   1.426   4.836 -0.0069  0.4010  0.5089
   48DOPE  H17R 6140  -0.498   1.327   4.808 -2.0588 -0.2416 -0.6251
   48DOPE  H17S 6141  -0.652   1.423   4.827  0.0901 -0.0366 -0.9389
   48DOPE  C218 6142  -0.506   1.462   4.980  0.6487 -0.0164 -0.4344
   48DOPE  H18R 6143  -0.530   1.381   5.052  0.7917  0.8386  0.6006
   48DOPE  H18S 6144  -0.556   1.557   5.007  1.2900  0.5888 -1.3064
   48DOPE  H18T 6145  -0.396   1.479   4.985  0.8552 -1.4090  0.3493
   48DOPE   C33 6146   0.057   2.720   3.642  0.6595 -0.0964  0.4360
   48DOPE   H3X 6147  -0.041   2.758   3.605 -0.2708 -0.2095  2.6174
   48DOPE   H3Y 6148   0.136   2.775   3.588  1.3440 -0.4479  1.0645
   48DOPE   C34 6149   0.059   2.767   3.789 -0.1511  0.7821  0.3567
   48DOPE   H4X 6150   0.064   2.877   3.806  0.0769  0.6266  1.4165
   48DOPE   H4Y 6151  -0.036   2.728   3.832  0.5056  0.3781  1.4746
   48DOPE   C35 6152   0.173   2.706   3.880  0.0706 -0.9820 -0.3637
   48DOPE   H5X 6153   0.227   2.781   3.942  1.2729 -1.6613 -0.5594
   48DOPE   H5Y 6154   0.247   2.675   3.804  0.8596 -2.2299  0.8802
   48DOPE   C36 6155   0.143   2.590   3.970  0.1275 -0.1273 -0.1245
   48DOPE   H6X 6156   0.085   2.517   3.910  1.0723 -1.8325  0.9472
   48DOPE   H6Y 6157   0.082   2.632   4.054  1.7032 -0.1116  1.0694
   48DOPE   C37 6158   0.265   2.527   4.026 -0.6342 -0.2559 -0.4705
   48DOPE   H7X 6159   0.351   2.527   3.956 -0.7780  1.9312 -0.7074
   48DOPE   H7Y 6160   0.303   2.604   4.096 -2.4367 -1.6457  2.2346
   48DOPE   C38 6161   0.251   2.406   4.113 -0.3781  0.2793 -1.0184
   48DOPE   H8X 6162   0.349   2.360   4.135 -1.1561 -0.7125  0.5616
   48DOPE   H8Y 6163   0.199   2.329   4.052  1.0902 -2.7763  1.3590
   48DOPE   C39 6164   0.181   2.440   4.241  0.2852  0.2075  0.0841
   48DOPE   H9X 6165   0.074   2.462   4.230 -0.1806 -2.0214 -0.3874
   48DOPE  C310 6166   0.222   2.410   4.366 -0.3224 -0.0378 -0.9568
   48DOPE  H10X 6167   0.150   2.430   4.446  0.8785 -0.0115  0.1535
   48DOPE  C311 6168   0.348   2.340   4.412 -0.2633 -0.5768 -0.7337
   48DOPE  H11X 6169   0.397   2.297   4.322 -1.2560  0.1760 -1.6725
   48DOPE  H11Y 6170   0.418   2.409   4.462 -1.1434  1.7815 -2.5163
   48DOPE  C312 6171   0.329   2.232   4.522  0.2579 -0.1712  0.0722
   48DOPE  H12X 6172   0.304   2.276   4.621 -1.3215  1.8731 -1.1363
   48DOPE  H12Y 6173   0.434   2.200   4.534  0.0628 -1.3522 -1.1158
   48DOPE  C313 6174   0.237   2.116   4.483 -0.3822  0.8880 -0.4847
   48DOPE  H13X 6175   0.132   2.150   4.464 -0.9263 -0.3246  0.2400
   48DOPE  H13Y 6176   0.282   2.061   4.398  0.1951 -0.5282  0.6992
   48DOPE  C314 6177   0.218   2.008   4.594 -0.4343  0.1969 -0.3647
   48DOPE  H14X 6178   0.195   2.046   4.696  2.6166 -2.0795  1.3351
   48DOPE  H14Y 6179   0.318   1.963   4.607 -1.0244 -0.5958  1.9036
   48DOPE  C315 6180   0.112   1.898   4.559 -0.2942 -0.4137 -0.3815
   48DOPE  H15X 6181   0.155   1.850   4.469  3.2346  1.0956  0.3378
   48DOPE  H15Y 6182   0.016   1.952   4.549 -1.5581 -1.8116  2.8668
   48DOPE  C316 6183   0.089   1.796   4.667  0.0617 -0.1380 -0.1899
   48DOPE  H16X 6184   0.184   1.754   4.706  0.1128 -0.0156 -0.1808
   48DOPE  H16Y 6185   0.036   1.713   4.616  0.0342  0.2936 -0.8774
   48DOPE  C317 6186  -0.002   1.836   4.783  0.2277 -0.2846  0.5739
   48DOPE  H17X 6187   0.051   1.911   4.846  1.6857 -1.3135  0.6300
   48DOPE  H17Y 6188  -0.095   1.882   4.743  0.7633 -0.2696 -0.6768
   48DOPE  C318 6189  -0.050   1.720   4.868 -0.6471  0.2985  0.3243
   48DOPE  H18X 6190  -0.130   1.747   4.940 -1.8498 -1.4229 -0.2950
   48DOPE  H18Y 6191  -0.083   1.631   4.811  2.0029  0.1718 -1.2022
   48DOPE  H18Z 6192   0.038   1.684   4.926  0.3391 -0.6624 -1.6449
   49DOPE     N 6193   0.930   5.957   2.646  0.0902 -0.1708 -0.1479
   49DOPE   HN1 6194   0.968   5.940   2.550 -0.1729  1.1741 -0.5165
   49DOPE   HN2 6195   0.864   5.880   2.670  1.0099 -0.4479  1.6701
   49DOPE   HN3 6196   0.868   6.039   2.633 -0.6570 -0.8866 -1.2418
   49DOPE   C12 6197   1.047   5.996   2.734  0.3450  0.3274  0.1999
   49DOPE  H12A 6198   1.117   5.911   2.755  0.4298  1.0962  3.5065
   49DOPE  H12B 6199   1.018   6.030   2.835  1.4880 -0.4928  0.8438
   49DOPE   C11 6200   1.139   6.108   2.681 -0.4368 -0.2124 -0.0551
   49DOPE  H11A 6201   1.220   6.119   2.756  0.6911 -2.2714 -0.8885
   49DOPE  H11B 6202   1.073   6.197   2.676 -0.0874  0.0268 -0.4623
   49DOPE     P 6203   1.333   6.123   2.514 -0.3736  0.1964  0.0456
   49DOPE   O13 6204   1.315   6.263   2.466 -0.2242 -0.3528  0.5849
   49DOPE   O14 6205   1.395   6.027   2.421  0.3379 -0.2338  0.7532
   49DOPE   O11 6206   1.415   6.122   2.653 -0.3316  0.3239  0.4030
   49DOPE   O12 6207   1.188   6.071   2.557 -0.1971 -0.5633 -0.2751
   49DOPE    C1 6208   1.456   5.982   2.695 -0.1830 -0.4795 -0.2807
   49DOPE    HA 6209   1.521   5.931   2.622  0.0654 -3.1512  1.6328
   49DOPE    HB 6210   1.368   5.913   2.702 -0.4503 -0.0617  0.6124
   49DOPE    C2 6211   1.534   5.988   2.829  0.3892  0.2098 -0.4634
   49DOPE    HS 6212   1.545   5.879   2.847 -1.4543  0.0399 -0.2173
   49DOPE   O21 6213   1.462   6.051   2.937  0.6241 -0.2813  0.2592
   49DOPE   C21 6214   1.464   5.981   3.053  0.0771  1.1145 -0.0164
   49DOPE   O22 6215   1.531   5.881   3.074  0.0504 -0.0117  0.5846
   49DOPE   C22 6216   1.384   6.061   3.158  0.3828 -1.1642 -0.0863
   49DOPE   H2R 6217   1.304   6.112   3.101  1.4733  0.9545  0.1593
   49DOPE   H2S 6218   1.455   6.136   3.200 -1.5725  0.2279  0.8950
   49DOPE    C3 6219   1.670   6.048   2.808  0.2655 -0.6712 -0.1526
   49DOPE    HX 6220   1.654   6.155   2.783 -0.2965 -0.5642  0.6517
   49DOPE    HY 6221   1.722   6.001   2.721  2.2210 -1.9937  1.6259
   49DOPE   O31 6222   1.757   6.020   2.920  0.0791  0.1477 -0.0398
   49DOPE   C31 6223   1.774   6.117   3.006 -0.9920 -0.6015  0.0655
   49DOPE   O32 6224   1.723   6.228   2.998  0.2945  0.0314  0.2008
   49DOPE   C32 6225   1.881   6.076   3.113 -0.4376 -0.7822  0.1833
   49DOPE   H2X 6226   1.857   5.969   3.131 -3.4394 -0.1625  0.4344
   49DOPE   H2Y 6227   1.979   6.081   3.061 -0.0399 -1.0452  0.8967
   49DOPE   C23 6228   1.324   5.978   3.279 -0.3608  0.2849  0.2403
   49DOPE   H3R 6229   1.390   5.892   3.302 -0.0298  0.6951  0.8279
   49DOPE   H3S 6230   1.222   5.942   3.251 -0.5924  0.8577  0.3335
   49DOPE   C24 6231   1.295   6.059   3.410 -0.0329 -0.1248 -0.6858
   49DOPE   H4R 6232   1.389   6.106   3.447 -2.5915  3.8367  1.4801
   49DOPE   H4S 6233   1.267   5.987   3.490 -0.9032 -0.2779 -1.1139
   49DOPE   C25 6234   1.176   6.155   3.394 -0.0147 -0.4724  0.1205
   49DOPE   H5R 6235   1.085   6.092   3.385 -2.2023  2.5602 -0.3790
   49DOPE   H5S 6236   1.187   6.215   3.301 -2.2183  1.6110  1.0861
   49DOPE   C26 6237   1.143   6.243   3.518  0.1620 -0.1558  0.5589
   49DOPE   H6R 6238   1.076   6.316   3.469 -0.5739 -0.8001  0.5843
   49DOPE   H6S 6239   1.243   6.286   3.538  0.2569 -0.3528  0.5162
   49DOPE   C27 6240   1.081   6.183   3.633 -0.4575  0.0996 -0.0285
   49DOPE   H7R 6241   1.160   6.131   3.691 -0.2471 -0.5475 -0.8837
   49DOPE   H7S 6242   1.003   6.111   3.601  0.2800 -0.3111 -0.9298
   49DOPE   C28 6243   1.021   6.292   3.720 -0.0178  0.0442 -0.3606
   49DOPE   H8R 6244   0.936   6.340   3.666 -0.3090 -0.8545 -0.7088
   49DOPE   H8S 6245   1.089   6.377   3.744  0.6038 -1.0277  1.9566
   49DOPE   C29 6246   0.975   6.238   3.854  0.2747 -0.3775 -0.0548
   49DOPE   H9R 6247   1.058   6.235   3.927  0.9632  1.1086 -0.7317
   49DOPE  C210 6248   0.847   6.201   3.884 -0.6813 -0.2068 -0.5971
   49DOPE  H10R 6249   0.820   6.155   3.981 -1.4913  0.6712 -0.3917
   49DOPE  C211 6250   0.727   6.203   3.797  0.3194  0.1768 -0.5991
   49DOPE  H11R 6251   0.752   6.261   3.705 -2.8966  2.0678 -0.4264
   49DOPE  H11S 6252   0.654   6.270   3.848  2.4690  1.9079  0.3753
   49DOPE  C212 6253   0.664   6.069   3.773 -0.0041  0.4252 -0.4140
   49DOPE  H12R 6254   0.728   6.001   3.713  0.1833  0.7747 -0.6126
   49DOPE  H12S 6255   0.570   6.085   3.716 -0.7813 -3.2566 -0.4045
   49DOPE  C213 6256   0.616   5.995   3.907 -0.3439 -0.0763 -0.1491
   49DOPE  H13R 6257   0.705   5.980   3.972  0.0553  3.0714  0.1869
   49DOPE  H13S 6258   0.585   5.900   3.858  1.7201  0.5985 -3.0177
   49DOPE  C214 6259   0.506   6.061   3.990  0.0625 -0.4996  0.2202
   49DOPE  H14R 6260   0.424   6.066   3.915  1.4475  0.5768 -1.2724
   49DOPE  H14S 6261   0.530   6.167   4.015 -3.4407  1.2164 -2.7474
   49DOPE  C215 6262   0.450   5.994   4.115 -0.3852 -0.2591  0.0746
   49DOPE  H15R 6263   0.521   5.997   4.200  1.5085 -1.6305 -1.3762
   49DOPE  H15S 6264   0.455   5.888   4.082  1.1136 -0.0410 -0.4655
   49DOPE  C216 6265   0.314   6.037   4.165  1.0794 -0.1934 -0.8578
   49DOPE  H16R 6266   0.251   6.067   4.079  0.0726 -0.3890 -0.1971
   49DOPE  H16S 6267   0.327   6.132   4.221 -0.3751 -0.4700 -0.0084
   49DOPE  C217 6268   0.228   5.935   4.235  0.1768 -0.0060  0.0446
   49DOPE  H17R 6269   0.262   5.941   4.341  1.5679 -0.1886 -0.3650
   49DOPE  H17S 6270   0.258   5.834   4.200  0.8865  0.8892 -2.0713
   49DOPE  C218 6271   0.079   5.965   4.225  0.0769  0.2103  0.1225
   49DOPE  H18R 6272   0.045   6.068   4.249  1.5219  0.1792  2.6483
   49DOPE  H18S 6273   0.029   5.884   4.282 -0.0579  0.0106 -0.2767
   49DOPE  H18T 6274   0.059   5.950   4.116  1.6377 -1.4871  0.0205
   49DOPE   C33 6275   1.868   6.179   3.225 -0.4821 -0.2061 -0.2165
   49DOPE   H3X 6276   1.771   6.184   3.277  0.5972 -0.6759  1.9598
   49DOPE   H3Y 6277   1.898   6.278   3.184 -1.6086  1.3848  2.5459
   49DOPE   C34 6278   1.965   6.143   3.340 -0.0879 -0.1136 -0.5237
   49DOPE   H4X 6279   1.918   6.062   3.400 -1.0578  0.0962 -0.9770
   49DOPE   H4Y 6280   2.059   6.110   3.290  1.0241  1.6650  0.3200
   49DOPE   C35 6281   2.016   6.260   3.427  0.1218  0.2909  0.6640
   49DOPE   H5X 6282   1.933   6.306   3.485 -0.7004  0.7297 -0.7953
   49DOPE   H5Y 6283   2.058   6.338   3.361  0.5565 -0.0067  0.5857
   49DOPE   C36 6284   2.124   6.220   3.525 -0.5892  0.3420  0.0617
   49DOPE   H6X 6285   2.090   6.129   3.578  0.2878  0.1195  0.2625
   49DOPE   H6Y 6286   2.139   6.293   3.607  1.2229 -1.1728  1.1638
   49DOPE   C37 6287   2.260   6.208   3.452  0.6731 -0.1398 -0.3237
   49DOPE   H7X 6288   2.246   6.136   3.369 -2.7885 -0.1070  0.0669
   49DOPE   H7Y 6289   2.272   6.306   3.400 -1.4951  0.4698  0.2053
   49DOPE   C38 6290   2.381   6.157   3.535  0.1026 -0.6910 -0.8989
   49DOPE   H8X 6291   2.469   6.142   3.468  2.1048  1.4708  1.0629
   49DOPE   H8Y 6292   2.380   6.052   3.571  1.6346 -0.7220 -0.8746
   49DOPE   C39 6293   2.417   6.249   3.644  0.1462  0.4803  0.3221
   49DOPE   H9X 6294   2.475   6.334   3.603  3.4944 -0.7598  2.1127
   49DOPE  C310 6295   2.390   6.241   3.777  0.8284  0.2008 -0.7336
   49DOPE  H10X 6296   2.424   6.316   3.849 -0.0745 -0.4165  0.3715
   49DOPE  C311 6297   2.304   6.137   3.840  0.1518 -0.5598 -1.0636
   49DOPE  H11X 6298   2.252   6.074   3.766 -0.8196 -0.0997 -0.7899
   49DOPE  H11Y 6299   2.356   6.070   3.913 -1.4486  0.3811  1.0523
   49DOPE  C312 6300   2.196   6.200   3.939  0.1077 -0.0915 -0.4550
   49DOPE  H12X 6301   2.114   6.127   3.957 -0.3193  0.6397  0.7086
   49DOPE  H12Y 6302   2.146   6.287   3.891  0.4539  0.5210  0.2702
   49DOPE  C313 6303   2.252   6.216   4.084  0.1670  0.3673  1.3932
   49DOPE  H13X 6304   2.282   6.115   4.119 -3.8931 -1.3909  0.3457
   49DOPE  H13Y 6305   2.342   6.281   4.082  0.9516 -0.6925  1.3660
   49DOPE  C314 6306   2.145   6.262   4.179  0.7601 -0.3308  0.8318
   49DOPE  H14X 6307   2.060   6.191   4.179  0.9088 -0.5181  1.6372
   49DOPE  H14Y 6308   2.090   6.351   4.141 -1.4840 -0.9995  2.2970
   49DOPE  C315 6309   2.192   6.273   4.319 -0.4315 -0.3077 -0.1188
   49DOPE  H15X 6310   2.115   6.331   4.375  1.0402 -0.4408  2.2056
   49DOPE  H15Y 6311   2.286   6.332   4.320 -0.1695 -0.7170  0.8259
   49DOPE  C316 6312   2.200   6.142   4.404  0.4411 -0.0077  0.0306
   49DOPE  H16X 6313   2.274   6.073   4.358  0.4335  1.4818 -2.3909
   49DOPE  H16Y 6314   2.103   6.088   4.397  1.4001 -1.6461 -5.4513
   49DOPE  C317 6315   2.237   6.161   4.549 -0.0007  0.2244 -0.3652
   49DOPE  H17X 6316   2.328   6.225   4.553 -0.0861  0.2915  2.2823
   49DOPE  H17Y 6317   2.157   6.217   4.602 -0.0552  1.5710 -1.8056
   49DOPE  C318 6318   2.259   6.029   4.627  0.0913 -0.4942  0.2784
   49DOPE  H18X 6319   2.298   6.045   4.730  1.9513 -0.7994 -0.3308
   49DOPE  H18Y 6320   2.171   5.965   4.606  1.2567 -1.3951 -2.4319
   49DOPE  H18Z 6321   2.335   5.966   4.575  0.9246 -1.2268  2.2798
   50DOPE     N 6322   0.657   4.886   2.763  0.4339  0.2434  1.1098
   50DOPE   HN1 6323   0.692   4.813   2.829 -0.6674 -1.7215 -0.3772
   50DOPE   HN2 6324   0.566   4.861   2.720  0.8542  2.4287 -1.3239
   50DOPE   HN3 6325   0.731   4.894   2.690 -0.4633  0.4200  0.2029
   50DOPE   C12 6326   0.653   5.020   2.829  0.3357  0.1232 -0.3115
   50DOPE  H12A 6327   0.604   5.019   2.929 -1.1514 -0.7148 -1.0184
   50DOPE  H12B 6328   0.594   5.088   2.764 -2.0109  0.0679  1.6448
   50DOPE   C11 6329   0.801   5.073   2.843 -0.2204  0.5428  0.1418
   50DOPE  H11A 6330   0.801   5.129   2.939  3.3036  2.4874 -0.8354
   50DOPE  H11B 6331   0.825   5.151   2.768 -1.5931  1.4222  0.5672
   50DOPE     P 6332   1.046   4.997   2.891  0.2250 -0.0142  0.5065
   50DOPE   O13 6333   1.076   5.143   2.897 -0.1964 -0.1093  0.0386
   50DOPE   O14 6334   1.146   4.913   2.820  0.2938 -0.2564  0.0452
   50DOPE   O11 6335   1.049   4.950   3.038  0.4419  0.0289  0.7082
   50DOPE   O12 6336   0.901   4.966   2.839  0.1250 -0.1812  0.1559
   50DOPE    C1 6337   0.933   4.939   3.126 -0.2299  0.6577 -0.8019
   50DOPE    HA 6338   0.889   4.839   3.106  1.5622  0.0041 -1.6819
   50DOPE    HB 6339   0.847   5.008   3.111  0.5478  1.5441 -1.2802
   50DOPE    C2 6340   0.970   4.958   3.274 -0.2451  1.1708 -0.1026
   50DOPE    HS 6341   0.887   4.996   3.339 -1.3266 -0.9338 -0.1788
   50DOPE   O21 6342   1.080   5.051   3.293  0.1310  0.3413  0.0824
   50DOPE   C21 6343   1.035   5.176   3.265 -0.3099 -0.3892  0.0496
   50DOPE   O22 6344   0.924   5.202   3.229 -0.5292 -1.1785 -0.8700
   50DOPE   C22 6345   1.152   5.266   3.293 -0.6407 -0.6283  0.4822
   50DOPE   H2R 6346   1.198   5.290   3.194  0.2139  0.8301  1.1919
   50DOPE   H2S 6347   1.225   5.203   3.346  0.3358  0.9287  1.0702
   50DOPE    C3 6348   1.019   4.825   3.341 -0.4571  0.6763 -0.5434
   50DOPE    HX 6349   1.061   4.843   3.442  0.0324  0.0440 -0.6278
   50DOPE    HY 6350   1.100   4.794   3.271  1.5250  0.5691  1.6547
   50DOPE   O31 6351   0.930   4.718   3.346  0.7028 -0.5619 -0.1751
   50DOPE   C31 6352   0.829   4.729   3.422  0.9641  0.2405  0.7515
   50DOPE   O32 6353   0.779   4.828   3.483 -0.3911  0.3308  0.8360
   50DOPE   C32 6354   0.759   4.587   3.438  0.9462 -0.1203  0.0104
   50DOPE   H2X 6355   0.680   4.598   3.362  0.8048 -0.2461  0.1399
   50DOPE   H2Y 6356   0.827   4.503   3.414 -0.7824 -1.0392 -1.9884
   50DOPE   C23 6357   1.125   5.396   3.373  0.3609 -0.0106  0.2741
   50DOPE   H3R 6358   1.080   5.374   3.472  0.9543  0.4416  0.6531
   50DOPE   H3S 6359   1.047   5.454   3.320 -0.5329 -1.7633 -0.4258
   50DOPE   C24 6360   1.248   5.490   3.381 -0.1253  0.2462 -0.0707
   50DOPE   H4R 6361   1.287   5.509   3.278  0.0947 -1.3901 -0.3110
   50DOPE   H4S 6362   1.332   5.437   3.431 -1.5304  0.1338  2.3182
   50DOPE   C25 6363   1.233   5.612   3.466 -0.5937  0.4939 -0.1466
   50DOPE   H5R 6364   1.153   5.673   3.418 -1.0735 -1.2710 -1.7064
   50DOPE   H5S 6365   1.325   5.675   3.463 -1.1664  1.4692  1.5466
   50DOPE   C26 6366   1.189   5.584   3.611  0.4088 -0.1353  0.5312
   50DOPE   H6R 6367   1.261   5.509   3.650 -0.5608 -1.4372 -0.1299
   50DOPE   H6S 6368   1.084   5.548   3.614  0.1111  0.7707  3.0545
   50DOPE   C27 6369   1.174   5.716   3.691 -0.4325  0.1724 -0.0086
   50DOPE   H7R 6370   1.098   5.785   3.648 -1.3990 -1.1140 -0.4350
   50DOPE   H7S 6371   1.266   5.772   3.667 -0.6648  1.0420  1.0548
   50DOPE   C28 6372   1.172   5.708   3.849 -0.4306 -0.1895 -0.0992
   50DOPE   H8R 6373   1.182   5.804   3.903 -0.3677  0.1477 -0.7003
   50DOPE   H8S 6374   1.261   5.646   3.873 -0.5132  0.1549  1.1603
   50DOPE   C29 6375   1.046   5.647   3.905  0.3801  0.5782  0.0912
   50DOPE   H9R 6376   0.957   5.712   3.899 -0.0822 -0.1658 -2.3581
   50DOPE  C210 6377   1.034   5.527   3.962 -0.4138 -0.0818 -0.1547
   50DOPE  H10R 6378   0.933   5.501   3.995 -0.4003  0.5998  0.4523
   50DOPE  C211 6379   1.136   5.419   3.977 -0.0378  0.2151 -0.0806
   50DOPE  H11R 6380   1.233   5.427   3.924 -0.8926  0.3683 -1.7020
   50DOPE  H11S 6381   1.099   5.325   3.930  0.2491 -0.5176  1.0958
   50DOPE  C212 6382   1.169   5.390   4.123 -0.1334 -0.1289 -0.9226
   50DOPE  H12R 6383   1.221   5.292   4.125 -3.1356 -1.8649 -2.0142
   50DOPE  H12S 6384   1.091   5.374   4.201  1.7042 -1.3737  0.7513
   50DOPE  C213 6385   1.265   5.501   4.178  0.1418  0.8134 -0.4174
   50DOPE  H13R 6386   1.222   5.603   4.173  3.2261  2.4665  2.6111
   50DOPE  H13S 6387   1.353   5.509   4.110 -0.2140  0.7753 -0.8867
   50DOPE  C214 6388   1.306   5.458   4.322 -0.9538 -0.0304  0.1876
   50DOPE  H14R 6389   1.365   5.365   4.314 -0.1028  0.5440 -0.4851
   50DOPE  H14S 6390   1.219   5.434   4.387 -1.3677  1.2493  0.1452
   50DOPE  C215 6391   1.401   5.558   4.391 -0.8581  0.3275  0.9807
   50DOPE  H15R 6392   1.354   5.656   4.415 -0.8224  0.1209  1.9373
   50DOPE  H15S 6393   1.487   5.578   4.323 -2.0994 -1.5561 -1.2570
   50DOPE  C216 6394   1.452   5.500   4.527 -0.0380 -0.5079 -0.2299
   50DOPE  H16R 6395   1.522   5.415   4.515 -0.1982 -0.3421 -2.8155
   50DOPE  H16S 6396   1.365   5.468   4.589 -0.2551 -1.4534 -1.0152
   50DOPE  C217 6397   1.533   5.609   4.598 -0.7159  0.3273 -0.3067
   50DOPE  H17R 6398   1.471   5.700   4.582 -0.8956 -0.1248 -2.5375
   50DOPE  H17S 6399   1.629   5.612   4.543 -0.7397  1.4034 -0.3001
   50DOPE  C218 6400   1.564   5.570   4.743 -0.3634 -0.2066  0.0943
   50DOPE  H18R 6401   1.593   5.463   4.751  2.0254  0.2905 -1.0124
   50DOPE  H18S 6402   1.482   5.605   4.810  0.2618 -0.7303  1.1499
   50DOPE  H18T 6403   1.657   5.619   4.777 -0.3738 -0.9208  1.1871
   50DOPE   C33 6404   0.681   4.562   3.571 -0.3729  0.1931 -0.1697
   50DOPE   H3X 6405   0.601   4.487   3.552  0.5131 -0.7481 -0.2225
   50DOPE   H3Y 6406   0.623   4.657   3.584  0.4259  0.5156  1.1589
   50DOPE   C34 6407   0.763   4.519   3.691 -0.5329  0.0897  0.0037
   50DOPE   H4X 6408   0.697   4.534   3.780 -1.7866 -0.8491 -0.7442
   50DOPE   H4Y 6409   0.791   4.412   3.686 -1.2363 -0.1595  1.1454
   50DOPE   C35 6410   0.888   4.606   3.714 -0.4393 -0.2636 -0.5152
   50DOPE   H5X 6411   0.850   4.710   3.723  0.4586 -0.0469  1.5462
   50DOPE   H5Y 6412   0.963   4.602   3.632  0.9145  0.0599  0.6676
   50DOPE   C36 6413   0.963   4.573   3.846  0.0022  0.2920 -0.2964
   50DOPE   H6X 6414   0.887   4.552   3.924  1.3099  0.6679  1.1068
   50DOPE   H6Y 6415   1.028   4.658   3.874 -2.1129  1.3400  1.7624
   50DOPE   C37 6416   1.043   4.443   3.835 -0.3344  0.1334  0.4927
   50DOPE   H7X 6417   0.978   4.355   3.815 -0.1317  0.5519 -2.4132
   50DOPE   H7Y 6418   1.110   4.440   3.747 -0.7906  1.6916  0.0544
   50DOPE   C38 6419   1.144   4.414   3.949  0.4967  0.3827 -0.5741
   50DOPE   H8X 6420   1.184   4.313   3.925  0.6346  0.7096 -1.7716
   50DOPE   H8Y 6421   1.080   4.401   4.039  0.2147 -1.5913 -1.0081
   50DOPE   C39 6422   1.254   4.513   3.954 -0.8303 -0.2721 -0.1531
   50DOPE   H9X 6423   1.303   4.524   3.856  1.6297 -0.7720  0.9417
   50DOPE  C310 6424   1.289   4.593   4.053 -0.4456  0.0143 -0.2472
   50DOPE  H10X 6425   1.385   4.647   4.043  0.1849 -0.8903  0.7650
   50DOPE  C311 6426   1.224   4.609   4.191  0.6309  0.5443  0.2459
   50DOPE  H11X 6427   1.145   4.686   4.199  1.3929  1.5500 -1.4504
   50DOPE  H11Y 6428   1.184   4.510   4.223 -0.3012  1.5753  2.4651
   50DOPE  C312 6429   1.339   4.653   4.288 -0.0776  0.5455  0.3209
   50DOPE  H12X 6430   1.375   4.752   4.252  1.8645 -0.9034 -2.1170
   50DOPE  H12Y 6431   1.420   4.577   4.284 -1.1350 -0.5593 -1.1994
   50DOPE  C313 6432   1.292   4.658   4.433  0.2297 -0.0977 -0.2652
   50DOPE  H13X 6433   1.218   4.740   4.441  0.6803  0.1641  1.5215
   50DOPE  H13Y 6434   1.235   4.563   4.446 -1.1559  0.7448 -0.0223
   50DOPE  C314 6435   1.404   4.664   4.533 -0.0038  0.2658  0.2876
   50DOPE  H14X 6436   1.454   4.762   4.515 -1.8542  0.9117 -1.9680
   50DOPE  H14Y 6437   1.470   4.575   4.526 -0.6890 -0.3216  1.1078
   50DOPE  C315 6438   1.351   4.672   4.678 -0.4758  0.3375 -0.0520
   50DOPE  H15X 6439   1.296   4.577   4.692 -1.6837  0.9547 -0.4567
   50DOPE  H15Y 6440   1.290   4.765   4.671  2.3547  2.6262  2.7227
   50DOPE  C316 6441   1.450   4.692   4.794  0.4171 -0.7038  0.0332
   50DOPE  H16X 6442   1.391   4.706   4.887 -2.2922 -3.1451 -1.1688
   50DOPE  H16Y 6443   1.511   4.782   4.772 -1.4966  0.2903 -1.4805
   50DOPE  C317 6444   1.543   4.569   4.809 -0.5436 -0.1667  0.5348
   50DOPE  H17X 6445   1.470   4.486   4.817 -1.4287 -0.0242 -3.5670
   50DOPE  H17Y 6446   1.601   4.551   4.715 -1.2580 -0.6675  0.1852
   50DOPE  C318 6447   1.647   4.578   4.925 -0.2275  0.8217  0.1054
   50DOPE  H18X 6448   1.731   4.649   4.909  2.0733 -1.2307  2.0921
   50DOPE  H18Y 6449   1.598   4.611   5.019 -1.0944  1.0744 -0.4249
   50DOPE  H18Z 6450   1.692   4.477   4.942 -0.6410  0.6537  0.2172
   51DOPE     N 6451   3.724   6.587   3.475  0.1222 -0.4980  0.7175
   51DOPE   HN1 6452   3.639   6.555   3.526  0.0337  0.1917  1.0216
   51DOPE   HN2 6453   3.745   6.682   3.514  1.3219 -0.7217  0.6591
   51DOPE   HN3 6454   3.702   6.608   3.376  1.3902  1.2975  0.7619
   51DOPE   C12 6455   3.839   6.492   3.469 -0.1065  0.2784  0.2438
   51DOPE  H12A 6456   3.801   6.394   3.433  0.7953 -0.0671  0.2078
   51DOPE  H12B 6457   3.870   6.487   3.575 -0.7232 -0.8273  0.3959
   51DOPE   C11 6458   3.955   6.533   3.374 -0.5763 -0.6245  0.4588
   51DOPE  H11A 6459   3.988   6.439   3.326 -0.0437  0.6504 -1.8150
   51DOPE  H11B 6460   4.035   6.574   3.439  1.4182 -0.3121 -2.0281
   51DOPE     P 6461   3.999   6.695   3.161 -0.0580 -0.2750 -0.1771
   51DOPE   O13 6462   3.900   6.735   3.061  0.3673 -0.1349  0.1946
   51DOPE   O14 6463   4.105   6.603   3.123  0.5139  0.0573  0.2895
   51DOPE   O11 6464   4.048   6.828   3.238 -0.3696 -0.6462 -1.1246
   51DOPE   O12 6465   3.915   6.629   3.280  0.1679  0.7974 -0.2978
   51DOPE    C1 6466   3.953   6.920   3.295  0.8814 -0.0244 -0.4126
   51DOPE    HA 6467   3.852   6.918   3.247  2.0538  0.5434 -3.0591
   51DOPE    HB 6468   3.994   7.022   3.287 -1.0139  0.9204  1.0474
   51DOPE    C2 6469   3.946   6.886   3.448  0.3354 -0.2321  0.5889
   51DOPE    HS 6470   3.908   6.783   3.462 -0.0301 -0.3616 -1.1719
   51DOPE   O21 6471   3.857   6.992   3.497  0.1197 -0.8351 -0.5647
   51DOPE   C21 6472   3.769   6.944   3.582 -0.2716  0.1668 -0.0946
   51DOPE   O22 6473   3.748   6.828   3.613  0.4247 -0.4836 -0.1867
   51DOPE   C22 6474   3.698   7.063   3.650 -0.8790  0.0439 -0.2078
   51DOPE   H2R 6475   3.591   7.074   3.622 -1.6893  0.5544  2.7876
   51DOPE   H2S 6476   3.751   7.151   3.608 -0.0448 -0.1613  0.4033
   51DOPE    C3 6477   4.083   6.886   3.516 -0.4350 -0.1041 -0.1420
   51DOPE    HX 6478   4.141   6.978   3.492  0.4444 -0.3703  0.9236
   51DOPE    HY 6479   4.137   6.794   3.485  1.6363  1.8202 -2.7555
   51DOPE   O31 6480   4.075   6.897   3.656  0.3685  0.6760  0.5521
   51DOPE   C31 6481   4.038   6.793   3.718 -0.0131  0.0477 -0.3257
   51DOPE   O32 6482   4.018   6.680   3.678 -0.0421 -0.7089 -0.5926
   51DOPE   C32 6483   4.026   6.832   3.868  0.5504 -0.4203 -0.2022
   51DOPE   H2X 6484   3.944   6.902   3.893  0.7048 -0.6957  1.1471
   51DOPE   H2Y 6485   4.001   6.737   3.919 -1.5811  0.2170  0.0162
   51DOPE   C23 6486   3.711   7.058   3.805  0.1640  0.0637  0.2231
   51DOPE   H3R 6487   3.720   6.953   3.840  1.2810 -0.2362 -0.8782
   51DOPE   H3S 6488   3.616   7.100   3.844 -1.2040 -0.2681 -2.4753
   51DOPE   C24 6489   3.828   7.145   3.860 -0.5209 -0.1491 -0.9837
   51DOPE   H4R 6490   3.817   7.250   3.827 -1.0589 -0.2602 -1.1707
   51DOPE   H4S 6491   3.931   7.113   3.833  0.1600 -0.8064  2.0855
   51DOPE   C25 6492   3.835   7.141   4.012  0.6223 -0.1390  0.2587
   51DOPE   H5R 6493   3.851   7.045   4.065 -0.6404 -0.1780  0.5879
   51DOPE   H5S 6494   3.741   7.179   4.057  0.1266  0.4501 -1.1947
   51DOPE   C26 6495   3.949   7.235   4.052 -0.4477 -0.6864 -0.7250
   51DOPE   H6R 6496   3.928   7.333   4.003 -1.6594 -0.2621  0.5924
   51DOPE   H6S 6497   4.038   7.184   4.011 -1.5491 -3.9686  0.6616
   51DOPE   C27 6498   3.968   7.248   4.199 -0.1688 -0.1365 -0.0713
   51DOPE   H7R 6499   3.960   7.149   4.248  0.2891 -1.2526 -2.1380
   51DOPE   H7S 6500   3.889   7.315   4.241  0.0274 -1.3277  2.3359
   51DOPE   C28 6501   4.100   7.309   4.233 -0.4526  0.3730 -0.0504
   51DOPE   H8R 6502   4.110   7.406   4.181  1.3572 -0.2372 -0.9488
   51DOPE   H8S 6503   4.180   7.239   4.199  0.9922  0.2130  3.3136
   51DOPE   C29 6504   4.105   7.352   4.380 -0.2975 -0.1317 -0.7246
   51DOPE   H9R 6505   4.007   7.352   4.430  0.7709 -0.7066  1.4702
   51DOPE  C210 6506   4.218   7.362   4.449  0.0421 -0.2332  0.4790
   51DOPE  H10R 6507   4.211   7.392   4.555  0.1223 -2.0966  1.0436
   51DOPE  C211 6508   4.361   7.363   4.390 -0.1313 -0.3258  0.2280
   51DOPE  H11R 6509   4.353   7.346   4.281 -1.2242  2.9293 -0.3261
   51DOPE  H11S 6510   4.419   7.276   4.427  1.2234 -0.2511 -1.5812
   51DOPE  C212 6511   4.435   7.496   4.415 -0.2854 -0.4266  0.3621
   51DOPE  H12R 6512   4.375   7.576   4.366 -0.2780 -0.1338  0.8327
   51DOPE  H12S 6513   4.535   7.486   4.369 -0.6107 -1.4006 -0.1843
   51DOPE  C213 6514   4.451   7.542   4.559 -0.1415 -0.0877 -0.1619
   51DOPE  H13R 6515   4.358   7.533   4.619  1.6551  1.1653  3.1117
   51DOPE  H13S 6516   4.481   7.649   4.552  0.1699 -0.0598  1.3071
   51DOPE  C214 6517   4.548   7.455   4.637 -0.5128 -0.5082 -0.9055
   51DOPE  H14R 6518   4.638   7.439   4.574 -0.7647 -0.2457 -1.3440
   51DOPE  H14S 6519   4.500   7.356   4.656  2.0370 -1.6921 -0.1673
   51DOPE  C215 6520   4.586   7.520   4.769 -0.3716  0.9413  0.3241
   51DOPE  H15R 6521   4.656   7.605   4.753  0.7645  0.1403  0.9003
   51DOPE  H15S 6522   4.655   7.447   4.816  0.8524  2.6132  1.2548
   51DOPE  C216 6523   4.473   7.544   4.867  0.1352 -0.2418 -0.2826
   51DOPE  H16R 6524   4.429   7.447   4.899 -0.8117  0.3963  0.4049
   51DOPE  H16S 6525   4.394   7.607   4.820  0.2610  0.8110  0.8630
   51DOPE  C217 6526   4.508   7.618   4.998  0.2297 -0.4922  0.3390
   51DOPE  H17R 6527   4.553   7.716   4.973  2.3263 -1.3946  0.4115
   51DOPE  H17S 6528   4.578   7.548   5.048 -1.4486 -1.4689  1.4470
   51DOPE  C218 6529   4.385   7.644   5.087 -0.2992  0.1794 -0.4141
   51DOPE  H18R 6530   4.329   7.548   5.086 -1.9187  1.0842 -0.4719
   51DOPE  H18S 6531   4.322   7.724   5.042  1.3782  1.7170 -0.1442
   51DOPE  H18T 6532   4.405   7.668   5.194  1.1088 -1.0208 -0.3844
   51DOPE   C33 6533   4.164   6.907   3.915  0.3519 -0.4716  0.7040
   51DOPE   H3X 6534   4.138   6.970   4.003  2.4943  5.1099 -2.1622
   51DOPE   H3Y 6535   4.188   6.980   3.835  1.8929 -1.0275  0.6370
   51DOPE   C34 6536   4.292   6.817   3.929  0.4485  0.4173 -0.1914
   51DOPE   H4X 6537   4.255   6.715   3.953  0.8586  0.0144 -1.2068
   51DOPE   H4Y 6538   4.333   6.808   3.826 -0.3865 -0.8893 -0.4367
   51DOPE   C35 6539   4.409   6.879   4.001 -0.0855 -0.4300  0.0675
   51DOPE   H5X 6540   4.428   6.976   3.951  1.6079  1.6584  4.2754
   51DOPE   H5Y 6541   4.499   6.814   3.997 -0.2988 -0.9216  2.1322
   51DOPE   C36 6542   4.390   6.920   4.150 -0.0355 -0.2153  0.3766
   51DOPE   H6X 6543   4.335   7.016   4.148  4.0703  2.3541 -1.3997
   51DOPE   H6Y 6544   4.486   6.951   4.195  0.1839 -1.9509  1.2121
   51DOPE   C37 6545   4.348   6.809   4.249  0.0284  0.0287 -0.0940
   51DOPE   H7X 6546   4.246   6.777   4.220  1.3542 -3.4079 -1.6028
   51DOPE   H7Y 6547   4.419   6.726   4.225 -0.0173  0.1698 -0.7347
   51DOPE   C38 6548   4.360   6.840   4.401  0.1844  0.2471  0.0693
   51DOPE   H8X 6549   4.458   6.888   4.419  1.2515 -0.7931 -2.4548
   51DOPE   H8Y 6550   4.355   6.740   4.447  2.0076  0.5165  0.9184
   51DOPE   C39 6551   4.252   6.933   4.439  0.2185 -0.6439  0.8150
   51DOPE   H9X 6552   4.282   7.039   4.436  2.1633 -1.1767 -0.6026
   51DOPE  C310 6553   4.124   6.897   4.469 -0.2417  0.0535 -0.5469
   51DOPE  H10X 6554   4.059   6.979   4.501  2.5985  1.8794  1.0111
   51DOPE  C311 6555   4.066   6.753   4.455  0.5209 -0.5618 -0.2867
   51DOPE  H11X 6556   4.060   6.720   4.349 -0.5191 -0.5411 -0.2443
   51DOPE  H11Y 6557   4.135   6.677   4.498  1.8830  0.3027 -0.8660
   51DOPE  C312 6558   3.920   6.739   4.498 -0.1684 -0.3329 -0.3409
   51DOPE  H12X 6559   3.885   6.637   4.472  0.4880 -0.9851  1.2020
   51DOPE  H12Y 6560   3.855   6.811   4.444  0.6056  0.2065 -0.5613
   51DOPE  C313 6561   3.892   6.761   4.644 -0.3377  0.1594  0.4362
   51DOPE  H13X 6562   3.967   6.700   4.700  1.2323  0.7532 -0.9292
   51DOPE  H13Y 6563   3.902   6.868   4.671  1.2889  0.5359 -1.4020
   51DOPE  C314 6564   3.740   6.723   4.669 -0.1019 -0.3621 -0.4341
   51DOPE  H14X 6565   3.717   6.634   4.607 -1.6308 -0.0718 -0.3169
   51DOPE  H14Y 6566   3.680   6.810   4.633  2.4180  2.1124  0.9563
   51DOPE  C315 6567   3.712   6.689   4.819 -0.1533 -0.5958  0.0566
   51DOPE  H15X 6568   3.757   6.591   4.845  2.9701  0.8609  0.5673
   51DOPE  H15Y 6569   3.601   6.683   4.827 -0.3386  1.8800  0.4234
   51DOPE  C316 6570   3.763   6.793   4.922  0.1728  0.3403 -0.2181
   51DOPE  H16X 6571   3.734   6.898   4.898  0.4941  1.0646  2.2953
   51DOPE  H16Y 6572   3.873   6.805   4.925  0.3882 -1.5340  0.2104
   51DOPE  C317 6573   3.718   6.769   5.066 -0.3647 -0.0258 -0.4582
   51DOPE  H17X 6574   3.768   6.677   5.102 -0.5456  0.4437  1.0750
   51DOPE  H17Y 6575   3.755   6.840   5.144  0.4594 -1.6241  0.6625
   51DOPE  C318 6576   3.572   6.761   5.092  0.5980 -0.3370 -0.0346
   51DOPE  H18X 6577   3.527   6.847   5.038 -0.7576 -0.8783  0.1743
   51DOPE  H18Y 6578   3.529   6.667   5.051  0.7971 -0.4778  0.0790
   51DOPE  H18Z 6579   3.542   6.773   5.199 -1.2204 -0.4654 -0.4880
   52DOPE     N 6580   7.054   4.176   3.310 -0.2376 -0.2601  0.2936
   52DOPE   HN1 6581   7.089   4.206   3.404  1.5063 -1.9402  0.2503
   52DOPE   HN2 6582   7.004   4.255   3.265 -1.7604  0.0516  2.3776
   52DOPE   HN3 6583   6.979   4.105   3.320 -1.0222  0.3399 -1.0876
   52DOPE   C12 6584   7.167   4.118   3.222 -0.1349  0.8161 -0.1187
   52DOPE  H12A 6585   7.120   4.090   3.126  2.5948 -0.8337 -1.0966
   52DOPE  H12B 6586   7.201   4.023   3.270 -2.5301  1.3849  3.0337
   52DOPE   C11 6587   7.281   4.222   3.192  0.3615  0.6052 -0.1145
   52DOPE  H11A 6588   7.242   4.318   3.152 -1.8273  0.5308  1.6475
   52DOPE  H11B 6589   7.347   4.178   3.115 -0.0513 -0.9486  0.3791
   52DOPE     P 6590   7.503   4.280   3.317 -0.1836  0.4388 -0.0964
   52DOPE   O13 6591   7.530   4.361   3.434 -0.4437 -1.1897  0.0108
   52DOPE   O14 6592   7.549   4.318   3.183  0.1874  0.1050  0.0611
   52DOPE   O11 6593   7.588   4.147   3.353  0.1503  0.3799 -0.0475
   52DOPE   O12 6594   7.349   4.237   3.318 -1.0554  0.4135 -0.2342
   52DOPE    C1 6595   7.543   4.036   3.434  0.2049  0.1156 -0.4660
   52DOPE    HA 6596   7.621   3.957   3.435 -0.3992 -0.5248 -1.3718
   52DOPE    HB 6597   7.448   3.997   3.391  0.0448  0.6037 -0.5691
   52DOPE    C2 6598   7.520   4.074   3.578  0.3103  0.4371  0.0890
   52DOPE    HS 6599   7.450   4.160   3.587  0.8487  0.7564  1.4536
   52DOPE   O21 6600   7.645   4.103   3.638 -0.1464  0.0867 -0.2701
   52DOPE   C21 6601   7.657   4.199   3.730 -0.7449  0.4886 -0.8495
   52DOPE   O22 6602   7.566   4.277   3.763  0.5684  0.1876  0.3446
   52DOPE   C22 6603   7.798   4.190   3.793  0.5603 -0.2695  0.3633
   52DOPE   H2R 6604   7.863   4.121   3.734 -1.3454 -1.9014  0.0455
   52DOPE   H2S 6605   7.772   4.144   3.891  0.6607 -1.6161 -0.2168
   52DOPE    C3 6606   7.467   3.953   3.661  0.1791 -0.1365 -0.1091
   52DOPE    HX 6607   7.542   3.872   3.674  0.6331  0.6306  2.7762
   52DOPE    HY 6608   7.382   3.911   3.604  0.7108  0.5017 -1.4469
   52DOPE   O31 6609   7.439   3.998   3.792 -0.0517  0.0338  0.2128
   52DOPE   C31 6610   7.324   4.049   3.824 -0.4375 -0.2424 -0.3337
   52DOPE   O32 6611   7.220   4.050   3.756 -0.9512  0.2709 -0.5533
   52DOPE   C32 6612   7.339   4.102   3.966 -0.0544 -0.9147  0.6927
   52DOPE   H2X 6613   7.369   4.018   4.032 -1.2001 -0.2417  2.1265
   52DOPE   H2Y 6614   7.424   4.175   3.966  1.1505 -2.2233  2.4970
   52DOPE   C23 6615   7.872   4.329   3.821  0.1879 -0.7066  0.0533
   52DOPE   H3R 6616   7.817   4.386   3.899 -1.1753 -2.0229  0.1095
   52DOPE   H3S 6617   7.874   4.399   3.734 -1.0455  0.4607  0.9369
   52DOPE   C24 6618   8.018   4.307   3.863 -0.7678 -0.4149 -0.2675
   52DOPE   H4R 6619   8.066   4.230   3.798 -0.0194 -0.6279  0.5230
   52DOPE   H4S 6620   8.006   4.245   3.955 -2.2625 -0.3598 -0.4047
   52DOPE   C25 6621   8.105   4.430   3.860  0.2032 -0.0471  0.1727
   52DOPE   H5R 6622   8.109   4.472   3.757 -1.3660  1.2728  0.6025
   52DOPE   H5S 6623   8.207   4.396   3.887 -0.6617 -2.0536  1.1040
   52DOPE   C26 6624   8.046   4.554   3.937 -0.2006 -0.3789 -0.7286
   52DOPE   H6R 6625   7.951   4.570   3.881  0.2736  0.3191 -1.3577
   52DOPE   H6S 6626   8.126   4.627   3.912  0.6778 -1.0013  0.2022
   52DOPE   C27 6627   8.026   4.540   4.093  0.5126  0.0355  0.4952
   52DOPE   H7R 6628   8.124   4.514   4.138  0.3241  0.3781  1.1142
   52DOPE   H7S 6629   7.962   4.450   4.104 -1.0158  1.1863  1.4570
   52DOPE   C28 6630   7.980   4.676   4.160  0.2716  0.2647 -0.7953
   52DOPE   H8R 6631   7.931   4.663   4.259 -1.1746  2.4083 -1.1491
   52DOPE   H8S 6632   7.896   4.718   4.100 -0.6956  0.6222  0.7440
   52DOPE   C29 6633   8.088   4.775   4.166  0.0812 -0.1884 -0.0852
   52DOPE   H9R 6634   8.099   4.840   4.078 -1.9401  0.3835  0.0222
   52DOPE  C210 6635   8.168   4.790   4.274 -0.1843  0.0484  0.6461
   52DOPE  H10R 6636   8.251   4.862   4.271 -0.2452  0.1367  1.0390
   52DOPE  C211 6637   8.163   4.707   4.401  0.1950  0.5962 -0.3390
   52DOPE  H11R 6638   8.263   4.658   4.403  0.0339  0.1206 -2.0373
   52DOPE  H11S 6639   8.086   4.627   4.412  1.6157 -0.8105 -0.2688
   52DOPE  C212 6640   8.158   4.794   4.527 -0.0760 -0.0762  0.0389
   52DOPE  H12R 6641   8.114   4.726   4.602  0.1270 -0.5550 -0.2752
   52DOPE  H12S 6642   8.098   4.885   4.501  1.0156  0.1493 -1.8853
   52DOPE  C213 6643   8.300   4.821   4.590  0.0668 -0.6012 -0.2480
   52DOPE  H13R 6644   8.360   4.890   4.526  2.2988 -2.1090  0.1297
   52DOPE  H13S 6645   8.360   4.729   4.602 -2.1872 -1.8747  2.1025
   52DOPE  C214 6646   8.304   4.887   4.730  0.0206  0.4997  0.7126
   52DOPE  H14R 6647   8.411   4.902   4.756 -0.0331 -0.8274  1.7434
   52DOPE  H14S 6648   8.243   4.818   4.792  1.7956 -1.2624  0.5850
   52DOPE  C215 6649   8.211   5.008   4.731 -0.1992 -0.5511 -0.2328
   52DOPE  H15R 6650   8.121   4.985   4.669  0.2962  1.2705 -1.7013
   52DOPE  H15S 6651   8.256   5.090   4.673 -2.4804  0.7497 -0.2962
   52DOPE  C216 6652   8.185   5.051   4.878 -0.4112  0.0578  0.3425
   52DOPE  H16R 6653   8.289   5.041   4.917  0.7248 -1.4167 -2.7096
   52DOPE  H16S 6654   8.135   4.961   4.921 -1.3895  0.6334  0.4334
   52DOPE  C217 6655   8.111   5.178   4.904  0.2028  0.0435 -0.3190
   52DOPE  H17R 6656   8.006   5.171   4.868  0.1133  0.5295 -0.1670
   52DOPE  H17S 6657   8.169   5.261   4.856 -1.4301  2.5312  1.7163
   52DOPE  C218 6658   8.109   5.208   5.056 -0.0559  0.0009  0.1264
   52DOPE  H18R 6659   8.044   5.143   5.118 -0.0917  1.3919  1.6211
   52DOPE  H18S 6660   8.214   5.190   5.087  0.1024 -2.6231 -1.6460
   52DOPE  H18T 6661   8.068   5.311   5.065 -0.4448  0.1129 -2.3425
   52DOPE   C33 6662   7.206   4.165   4.023 -0.8020  0.2591 -0.1751
   52DOPE   H3X 6663   7.215   4.172   4.133 -1.8535 -0.0576 -0.0556
   52DOPE   H3Y 6664   7.121   4.093   4.021 -0.6050 -0.0545  1.3434
   52DOPE   C34 6665   7.168   4.307   3.972 -0.4911 -0.1805  0.4089
   52DOPE   H4X 6666   7.264   4.361   3.957 -0.1880 -0.7396  0.3102
   52DOPE   H4Y 6667   7.116   4.304   3.874  0.5908  1.1470 -0.2373
   52DOPE   C35 6668   7.090   4.391   4.075  0.3519 -0.2889  0.1864
   52DOPE   H5X 6669   7.086   4.493   4.032  1.8053 -0.9689 -1.7558
   52DOPE   H5Y 6670   7.151   4.412   4.166 -0.1332  1.5612  0.1214
   52DOPE   C36 6671   6.945   4.339   4.095 -0.1043 -0.4464 -0.5990
   52DOPE   H6X 6672   6.940   4.250   4.161 -0.7830 -0.2928 -0.4330
   52DOPE   H6Y 6673   6.905   4.307   3.997  2.5209  0.4983 -2.0868
   52DOPE   C37 6674   6.851   4.445   4.150  0.0409  0.5008  0.5328
   52DOPE   H7X 6675   6.852   4.526   4.073  1.1768 -1.5793 -1.7650
   52DOPE   H7Y 6676   6.742   4.423   4.152  0.1479 -0.2480 -0.9061
   52DOPE   C38 6677   6.881   4.506   4.285  0.4846  0.3877 -0.5175
   52DOPE   H8X 6678   6.797   4.574   4.315 -0.6864 -0.9632 -0.6260
   52DOPE   H8Y 6679   6.971   4.570   4.280  1.2289 -0.7269 -1.8269
   52DOPE   C39 6680   6.899   4.402   4.396  0.2283  0.0910  0.3597
   52DOPE   H9X 6681   6.949   4.306   4.371  0.1618  0.4406 -1.1781
   52DOPE  C310 6682   6.861   4.417   4.522  0.8347  0.1412  0.2349
   52DOPE  H10X 6683   6.888   4.334   4.589  0.6309  0.6535  0.9661
   52DOPE  C311 6684   6.775   4.524   4.579 -0.6938 -0.5547 -0.0987
   52DOPE  H11X 6685   6.773   4.618   4.520  4.4016 -0.4821 -0.5887
   52DOPE  H11Y 6686   6.672   4.487   4.595 -0.2330 -2.2092 -0.6304
   52DOPE  C312 6687   6.824   4.551   4.721 -0.2916 -0.1628 -0.6404
   52DOPE  H12X 6688   6.934   4.566   4.719 -0.3848  0.5374 -0.7067
   52DOPE  H12Y 6689   6.800   4.463   4.784  0.0804  0.4994  0.4505
   52DOPE  C313 6690   6.759   4.678   4.788  0.2835  0.3724  0.3187
   52DOPE  H13X 6691   6.773   4.776   4.738 -3.7817  0.3022 -1.3146
   52DOPE  H13Y 6692   6.649   4.664   4.780  0.3071  0.7263 -0.6706
   52DOPE  C314 6693   6.782   4.687   4.943 -0.1003  0.9102 -0.2108
   52DOPE  H14X 6694   6.892   4.689   4.959  0.1124 -1.3988 -1.0506
   52DOPE  H14Y 6695   6.740   4.598   4.994 -0.8047  1.7502  0.7183
   52DOPE  C315 6696   6.726   4.812   5.016  0.0385  0.2340 -0.1163
   52DOPE  H15X 6697   6.771   4.899   4.963 -1.0250  0.1212 -1.2463
   52DOPE  H15Y 6698   6.767   4.806   5.119  0.3936  0.0780 -0.2635
   52DOPE  C316 6699   6.572   4.817   5.007 -0.3611  0.2343  0.5109
   52DOPE  H16X 6700   6.556   4.843   4.900  0.4744  2.0096  0.7669
   52DOPE  H16Y 6701   6.535   4.904   5.065 -1.0281  0.4598 -0.2355
   52DOPE  C317 6702   6.496   4.686   5.047 -0.1252  0.0906  0.9774
   52DOPE  H17X 6703   6.540   4.594   5.002 -1.1077  0.1007 -0.0505
   52DOPE  H17Y 6704   6.483   4.677   5.157 -2.8800 -0.2114  0.6721
   52DOPE  C318 6705   6.352   4.699   5.001  0.1173 -0.1322  0.9309
   52DOPE  H18X 6706   6.307   4.796   5.033  0.2150  0.1463  0.2478
   52DOPE  H18Y 6707   6.349   4.704   4.890 -0.5936  0.5136  0.9689
   52DOPE  H18Z 6708   6.287   4.618   5.042  1.1517 -1.2713  0.3532
   53DOPE     N 6709   6.517   5.807   3.569 -0.0500 -0.1546  0.3782
   53DOPE   HN1 6710   6.436   5.819   3.505 -0.2505 -0.1248  0.6325
   53DOPE   HN2 6711   6.517   5.882   3.641 -1.4332  0.9168 -0.6934
   53DOPE   HN3 6712   6.605   5.803   3.515  0.4048 -0.0342  1.0900
   53DOPE   C12 6713   6.496   5.672   3.625 -0.0528  0.6218 -0.3435
   53DOPE  H12A 6714   6.428   5.685   3.712  1.2131  2.0477  0.4850
   53DOPE  H12B 6715   6.593   5.638   3.668  0.9964  2.2570 -1.2808
   53DOPE   C11 6716   6.440   5.586   3.514  0.6287 -0.5009  0.4084
   53DOPE  H11A 6717   6.337   5.622   3.493  0.7953  0.3664  1.0110
   53DOPE  H11B 6718   6.427   5.484   3.556 -0.0755 -0.6241 -0.0953
   53DOPE     P 6719   6.600   5.454   3.354  0.3710  0.0278  0.0071
   53DOPE   O13 6720   6.722   5.486   3.269 -0.0270  0.5096  0.1095
   53DOPE   O14 6721   6.508   5.353   3.293  0.2150  0.5852 -0.2397
   53DOPE   O11 6722   6.651   5.391   3.493  0.1311  0.4297  0.2853
   53DOPE   O12 6723   6.510   5.580   3.387 -0.2934 -0.1043 -0.0719
   53DOPE    C1 6724   6.756   5.448   3.569  0.4711  0.0824  0.3120
   53DOPE    HA 6725   6.740   5.418   3.675  0.6183  0.1820  0.3635
   53DOPE    HB 6726   6.752   5.559   3.573 -0.4654  0.1190 -1.0061
   53DOPE    C2 6727   6.893   5.386   3.533 -0.0584  0.6667  0.0981
   53DOPE    HS 6728   6.909   5.426   3.430 -2.0049  0.8991 -0.1423
   53DOPE   O21 6729   6.896   5.246   3.525  0.9445 -0.1987 -0.1500
   53DOPE   C21 6730   6.986   5.184   3.450 -0.9618  1.0916 -1.2154
   53DOPE   O22 6731   7.074   5.236   3.382  0.5773 -0.1734  0.4992
   53DOPE   C22 6732   6.986   5.038   3.483  0.5677  0.3048 -0.6904
   53DOPE   H2R 6733   7.057   4.989   3.414  1.3320 -0.8146  0.8289
   53DOPE   H2S 6734   6.882   5.003   3.465  0.5866  0.1502 -0.4937
   53DOPE    C3 6735   7.010   5.434   3.625 -0.1174  0.0455 -0.3352
   53DOPE    HX 6736   7.010   5.539   3.590 -3.0387  0.0697 -0.5008
   53DOPE    HY 6737   7.096   5.372   3.593  1.1420  0.0462  2.6653
   53DOPE   O31 6738   6.982   5.430   3.770 -0.8466 -0.0237 -0.2820
   53DOPE   C31 6739   7.090   5.430   3.849 -0.8974 -0.4156  0.4256
   53DOPE   O32 6740   7.209   5.428   3.807  0.2769  0.3174  0.2509
   53DOPE   C32 6741   7.047   5.446   3.994 -0.0816 -0.8610  0.4306
   53DOPE   H2X 6742   7.059   5.553   4.019  2.4410 -0.8100 -0.7055
   53DOPE   H2Y 6743   6.938   5.425   4.003 -0.1985 -1.0711 -1.1638
   53DOPE   C23 6744   7.041   5.000   3.622  0.2882  0.4468 -0.1599
   53DOPE   H3R 6745   7.135   5.053   3.651  1.2887  0.9073 -3.6830
   53DOPE   H3S 6746   7.076   4.895   3.611  0.4786  0.4270  0.5940
   53DOPE   C24 6747   6.932   5.025   3.723  0.4828  0.3435 -0.4439
   53DOPE   H4R 6748   6.846   4.976   3.674  1.4720 -0.5410 -1.3364
   53DOPE   H4S 6749   6.914   5.130   3.754 -2.3293 -0.5801  1.4803
   53DOPE   C25 6750   6.958   4.950   3.854  0.7684 -0.3418  0.7217
   53DOPE   H5R 6751   6.989   4.846   3.830  1.1791  0.0700 -0.5931
   53DOPE   H5S 6752   6.856   4.923   3.891 -0.1760 -0.7116 -1.8933
   53DOPE   C26 6753   7.052   5.025   3.953  0.2253  1.0170  0.0357
   53DOPE   H6R 6754   6.989   5.107   3.995  0.2583  0.8042  0.5067
   53DOPE   H6S 6755   7.146   5.062   3.908 -0.3385  1.3846 -0.8802
   53DOPE   C27 6756   7.107   4.939   4.070  0.2952  1.0896 -0.0456
   53DOPE   H7R 6757   7.184   4.982   4.138  0.2938  0.0458  0.6390
   53DOPE   H7S 6758   7.159   4.854   4.021  1.2820  1.7096 -0.1040
   53DOPE   C28 6759   6.997   4.868   4.149 -0.3817 -0.7752  0.2168
   53DOPE   H8R 6760   7.031   4.780   4.207 -0.8901 -0.2091  1.4154
   53DOPE   H8S 6761   6.924   4.822   4.079  1.4150 -0.5071 -1.9623
   53DOPE   C29 6762   6.943   4.985   4.234  0.0051  0.2983  0.4113
   53DOPE   H9R 6763   6.903   5.073   4.181  1.4148  0.3654 -0.6079
   53DOPE  C210 6764   6.930   4.975   4.369 -0.0023 -0.3672  0.8078
   53DOPE  H10R 6765   6.903   5.067   4.423 -1.4898 -0.0863 -0.3328
   53DOPE  C211 6766   6.969   4.866   4.465  0.1044  0.6448 -0.2347
   53DOPE  H11R 6767   7.010   4.772   4.422 -0.4558  0.3029 -0.0279
   53DOPE  H11S 6768   6.881   4.821   4.516 -0.6242  0.6494 -1.4312
   53DOPE  C212 6769   7.080   4.907   4.561  0.9188 -0.1204 -1.1066
   53DOPE  H12R 6770   7.048   4.992   4.626 -0.0904 -0.3977 -1.2303
   53DOPE  H12S 6771   7.163   4.954   4.503  0.5891  1.5107 -0.3326
   53DOPE  C213 6772   7.117   4.791   4.650  0.2477 -0.6124 -0.3014
   53DOPE  H13R 6773   7.117   4.700   4.586  2.3356 -0.1847 -0.9888
   53DOPE  H13S 6774   7.038   4.769   4.726 -1.9822  0.5713 -2.1679
   53DOPE  C214 6775   7.257   4.815   4.706 -0.3388  0.2451  0.1390
   53DOPE  H14R 6776   7.279   4.924   4.713  0.2850  0.1695 -0.5096
   53DOPE  H14S 6777   7.340   4.783   4.640  0.4123 -1.9272  2.0215
   53DOPE  C215 6778   7.283   4.748   4.840 -0.7439 -0.4259  0.7246
   53DOPE  H15R 6779   7.200   4.760   4.913 -0.9051 -1.2204  0.6791
   53DOPE  H15S 6780   7.367   4.810   4.879 -1.0471 -0.0184  0.7324
   53DOPE  C216 6781   7.331   4.598   4.825 -0.0960 -0.6032  0.2796
   53DOPE  H16R 6782   7.425   4.591   4.767 -0.6244 -0.0871 -0.6568
   53DOPE  H16S 6783   7.259   4.550   4.756 -0.0278 -0.8682  0.3894
   53DOPE  C217 6784   7.341   4.527   4.951  0.6413  0.0300  0.2942
   53DOPE  H17R 6785   7.416   4.589   5.006 -0.1929  0.2927  1.1598
   53DOPE  H17S 6786   7.384   4.425   4.944  2.3105  0.7263 -0.2308
   53DOPE  C218 6787   7.210   4.512   5.030  0.4722  0.0871 -0.6332
   53DOPE  H18R 6788   7.149   4.448   4.963  1.9938  0.5636 -2.5822
   53DOPE  H18S 6789   7.171   4.614   5.046 -0.8621 -0.6123  0.9222
   53DOPE  H18T 6790   7.229   4.469   5.131  0.6861  1.2843 -0.1508
   53DOPE   C33 6791   7.126   5.366   4.097 -0.2385 -0.0844 -0.3918
   53DOPE   H3X 6792   7.223   5.414   4.120  0.1705 -0.7252 -0.7339
   53DOPE   H3Y 6793   7.153   5.266   4.057 -0.6169 -1.0826  1.6948
   53DOPE   C34 6794   7.056   5.356   4.234 -0.4215 -0.4374  0.4000
   53DOPE   H4X 6795   7.021   5.460   4.248 -0.9662 -0.4846 -0.5181
   53DOPE   H4Y 6796   6.967   5.289   4.223 -0.9941  0.5118 -1.0079
   53DOPE   C35 6797   7.144   5.311   4.352  0.1299  0.1407 -0.4685
   53DOPE   H5X 6798   7.239   5.369   4.355 -0.5275  1.2177  0.3720
   53DOPE   H5Y 6799   7.168   5.203   4.342  1.2315  0.0515  2.2639
   53DOPE   C36 6800   7.078   5.324   4.491 -0.0642 -0.3134  0.1925
   53DOPE   H6X 6801   7.008   5.238   4.505  1.0361 -1.3013 -0.2078
   53DOPE   H6Y 6802   7.012   5.411   4.509  1.4601  0.8049  0.5556
   53DOPE   C37 6803   7.180   5.331   4.603  1.0337 -0.6488 -0.4510
   53DOPE   H7X 6804   7.232   5.233   4.597 -1.8109 -2.4265  1.2319
   53DOPE   H7Y 6805   7.246   5.420   4.593  0.7295 -0.2717  0.7980
   53DOPE   C38 6806   7.129   5.324   4.752 -0.2329  0.5125  0.5327
   53DOPE   H8X 6807   7.055   5.241   4.755  0.6561 -0.3357 -0.3779
   53DOPE   H8Y 6808   7.081   5.420   4.780 -0.7490  0.0729  1.1993
   53DOPE   C39 6809   7.242   5.314   4.853 -0.4996 -0.0433  0.2429
   53DOPE   H9X 6810   7.323   5.385   4.834  0.5681 -1.8595 -2.6087
   53DOPE  C310 6811   7.268   5.208   4.940 -0.5792  0.8545 -0.1417
   53DOPE  H10X 6812   7.340   5.209   5.024 -1.8619 -1.7672  1.1006
   53DOPE  C311 6813   7.174   5.095   4.966  0.2225 -0.4969  0.4990
   53DOPE  H11X 6814   7.120   5.066   4.874  0.5387  0.7267 -0.0862
   53DOPE  H11Y 6815   7.231   5.005   4.998 -0.4262 -0.9081  0.5292
   53DOPE  C312 6816   7.072   5.123   5.078  0.0169 -1.0583 -0.5121
   53DOPE  H12X 6817   7.125   5.161   5.168 -0.5437 -0.6253 -0.3613
   53DOPE  H12Y 6818   7.034   5.024   5.112  3.3850 -1.7421  1.7986
   53DOPE  C313 6819   6.958   5.220   5.045 -0.7216 -0.5772  0.1890
   53DOPE  H13X 6820   6.990   5.325   5.026  1.0804 -1.4018 -1.7232
   53DOPE  H13Y 6821   6.912   5.188   4.949 -0.3213  2.0515 -0.9555
   53DOPE  C314 6822   6.838   5.200   5.141 -0.0369  0.1168 -1.0629
   53DOPE  H14X 6823   6.869   5.223   5.245 -0.9740 -0.0195 -0.7384
   53DOPE  H14Y 6824   6.810   5.093   5.132  1.5027 -0.3397 -0.7632
   53DOPE  C315 6825   6.717   5.278   5.093 -0.0861  0.5030 -0.0546
   53DOPE  H15X 6826   6.694   5.283   4.984 -3.5877  2.0737  0.6102
   53DOPE  H15Y 6827   6.731   5.387   5.111 -1.8386  0.7729 -0.1705
   53DOPE  C316 6828   6.593   5.228   5.161  0.2661 -0.1803 -0.0265
   53DOPE  H16X 6829   6.609   5.213   5.270 -1.4409 -1.2825  0.1248
   53DOPE  H16Y 6830   6.581   5.126   5.119  0.1150 -0.3037  0.3135
   53DOPE  C317 6831   6.468   5.299   5.123 -0.1903 -0.7397  0.1623
   53DOPE  H17X 6832   6.485   5.406   5.149 -1.0633 -0.0516 -1.9187
   53DOPE  H17Y 6833   6.473   5.293   5.012  0.7744 -2.5196  0.2555
   53DOPE  C318 6834   6.340   5.248   5.191  0.4929 -0.0218 -0.1410
   53DOPE  H18X 6835   6.311   5.148   5.151 -0.7412  0.4410 -0.4432
   53DOPE  H18Y 6836   6.361   5.233   5.299  1.1500 -1.3041 -0.4230
   53DOPE  H18Z 6837   6.258   5.322   5.182 -0.3982 -0.6245  2.3012
   54DOPE     N 6838   0.382   5.684   2.995 -0.8706 -0.1940 -0.2623
   54DOPE   HN1 6839   0.378   5.621   2.913 -0.2210 -1.5420  0.6935
   54DOPE   HN2 6840   0.288   5.696   3.038 -0.4734 -0.1741  0.6269
   54DOPE   HN3 6841   0.413   5.776   2.959  0.1549 -0.3978  0.0630
   54DOPE   C12 6842   0.479   5.625   3.096 -0.7922 -0.6054  0.8979
   54DOPE  H12A 6843   0.524   5.703   3.162 -2.4432  0.0271  1.3209
   54DOPE  H12B 6844   0.561   5.582   3.035 -1.6389 -0.2471 -0.5318
   54DOPE   C11 6845   0.421   5.520   3.193 -0.1444  0.0213  0.0952
   54DOPE  H11A 6846   0.490   5.508   3.279  0.2994  1.6318 -0.0152
   54DOPE  H11B 6847   0.419   5.428   3.130  0.8664 -0.6872  1.0555
   54DOPE     P 6848   0.180   5.448   3.242 -0.1439 -0.6025  0.4461
   54DOPE   O13 6849   0.187   5.368   3.115  0.0761  0.1089  0.1973
   54DOPE   O14 6850   0.042   5.504   3.271 -0.1495  0.5694  0.8620
   54DOPE   O11 6851   0.222   5.359   3.363 -0.5897 -0.0553 -0.2474
   54DOPE   O12 6852   0.290   5.563   3.251 -0.1005  0.8147  0.2141
   54DOPE    C1 6853   0.229   5.424   3.497  0.1479  0.2849  0.3183
   54DOPE    HA 6854   0.126   5.451   3.528 -0.3079  0.6560 -1.3928
   54DOPE    HB 6855   0.301   5.508   3.493 -1.2009  1.4401 -1.4066
   54DOPE    C2 6856   0.293   5.326   3.601  0.3253 -0.0778  0.0606
   54DOPE    HS 6857   0.276   5.366   3.703  0.7694  1.8029 -0.5744
   54DOPE   O21 6858   0.432   5.320   3.573 -0.0707 -0.0469 -0.3264
   54DOPE   C21 6859   0.514   5.292   3.677  0.2081  0.6267  0.3977
   54DOPE   O22 6860   0.476   5.258   3.789  0.2666  0.2989  0.0162
   54DOPE   C22 6861   0.659   5.302   3.634 -1.2129 -0.3594 -0.5704
   54DOPE   H2R 6862   0.657   5.297   3.523 -1.2767 -1.2033 -0.5441
   54DOPE   H2S 6863   0.711   5.206   3.658 -1.5875 -0.9695 -2.0679
   54DOPE    C3 6864   0.230   5.185   3.605  0.7295 -0.3795  0.5226
   54DOPE    HX 6865   0.291   5.120   3.671  0.9818 -0.9496 -0.2520
   54DOPE    HY 6866   0.237   5.142   3.503 -2.8223 -0.8060  0.3447
   54DOPE   O31 6867   0.085   5.191   3.619  0.2374 -0.5097  0.1452
   54DOPE   C31 6868   0.043   5.166   3.737  0.4872 -0.2699 -0.1286
   54DOPE   O32 6869   0.117   5.157   3.835  0.3750 -0.3015 -0.7282
   54DOPE   C32 6870  -0.110   5.156   3.740 -0.2950 -0.0090  0.0352
   54DOPE   H2X 6871  -0.155   5.244   3.689 -0.1456 -0.3432 -0.6922
   54DOPE   H2Y 6872  -0.139   5.065   3.682 -1.5101 -1.8099  3.2265
   54DOPE   C23 6873   0.750   5.410   3.702  0.9070 -0.1684 -0.0984
   54DOPE   H3R 6874   0.854   5.398   3.666  0.7995  0.7715 -0.7669
   54DOPE   H3S 6875   0.751   5.398   3.813 -0.3566  0.6900  0.0428
   54DOPE   C24 6876   0.711   5.549   3.663 -0.6714 -0.8577  0.0351
   54DOPE   H4R 6877   0.756   5.617   3.739 -1.3315 -1.0075  0.5659
   54DOPE   H4S 6878   0.601   5.561   3.663 -0.7270 -1.3007  1.0674
   54DOPE   C25 6879   0.768   5.593   3.525  0.3837 -0.2287 -0.6019
   54DOPE   H5R 6880   0.718   5.525   3.453 -1.5635  0.1948  0.2754
   54DOPE   H5S 6881   0.877   5.578   3.508  0.2604 -1.9297 -0.0546
   54DOPE   C26 6882   0.740   5.739   3.490  0.1604  0.5122  0.9723
   54DOPE   H6R 6883   0.769   5.805   3.575  0.6752 -1.1667  2.1705
   54DOPE   H6S 6884   0.632   5.743   3.467  0.8921  1.5520 -2.9437
   54DOPE   C27 6885   0.825   5.807   3.377  0.2442  0.0486 -0.0220
   54DOPE   H7R 6886   0.816   5.747   3.283 -3.0737 -0.5101  0.5215
   54DOPE   H7S 6887   0.928   5.815   3.416  0.6425 -1.6927 -0.6403
   54DOPE   C28 6888   0.781   5.952   3.341  0.2343  0.1655 -0.1263
   54DOPE   H8R 6889   0.863   5.993   3.278  1.0693 -0.5853  0.4346
   54DOPE   H8S 6890   0.779   6.009   3.437  3.6665 -0.8714  0.7033
   54DOPE   C29 6891   0.651   5.960   3.258 -0.0749  0.2735  0.0095
   54DOPE   H9R 6892   0.667   5.931   3.153 -0.0657  1.3195 -0.2851
   54DOPE  C210 6893   0.522   5.977   3.297 -0.9860 -0.2869 -0.2029
   54DOPE  H10R 6894   0.445   5.970   3.219 -0.5892 -2.3005 -0.4788
   54DOPE  C211 6895   0.462   5.972   3.440 -0.4341 -0.0459  0.0677
   54DOPE  H11R 6896   0.448   6.078   3.472  0.2192 -0.3663  1.4901
   54DOPE  H11S 6897   0.541   5.937   3.510  1.4386  4.7075  0.7050
   54DOPE  C212 6898   0.341   5.877   3.432  0.4585 -0.4161 -0.2993
   54DOPE  H12R 6899   0.375   5.774   3.408  1.4763 -0.6901  2.0372
   54DOPE  H12S 6900   0.268   5.918   3.359  0.0413  0.0141  0.3476
   54DOPE  C213 6901   0.260   5.863   3.565  0.3213  0.1546  0.3808
   54DOPE  H13R 6902   0.179   5.787   3.559  0.7338 -0.2066 -1.8022
   54DOPE  H13S 6903   0.209   5.958   3.589  0.6781  0.3995  0.1799
   54DOPE  C214 6904   0.358   5.832   3.682 -1.1435  0.4326 -0.3887
   54DOPE  H14R 6905   0.420   5.923   3.693  1.7921 -1.2037 -2.0790
   54DOPE  H14S 6906   0.416   5.743   3.649 -0.7158  1.2188 -1.8356
   54DOPE  C215 6907   0.296   5.807   3.816  0.5264  0.2065  0.2419
   54DOPE  H15R 6908   0.241   5.900   3.842  2.1680  1.3363 -0.1741
   54DOPE  H15S 6909   0.376   5.799   3.893  1.1206  2.0574 -0.1359
   54DOPE  C216 6910   0.216   5.683   3.814  0.2562  0.5638  1.1408
   54DOPE  H16R 6911   0.270   5.603   3.760 -0.4045  0.8603 -0.0001
   54DOPE  H16S 6912   0.130   5.695   3.744  0.7167 -1.7133  0.0880
   54DOPE  C217 6913   0.176   5.638   3.959 -0.4370  0.7972 -0.0150
   54DOPE  H17R 6914   0.121   5.727   3.995  2.6051  1.9331  2.2652
   54DOPE  H17S 6915   0.272   5.629   4.014 -1.9083 -0.7937  2.4914
   54DOPE  C218 6916   0.087   5.518   3.969 -0.4272  0.6818  0.2693
   54DOPE  H18R 6917   0.003   5.523   3.896 -0.8433  0.7509  0.7438
   54DOPE  H18S 6918   0.034   5.507   4.067  1.8051 -0.0067  1.4797
   54DOPE  H18T 6919   0.142   5.422   3.961 -1.4661  0.1564 -0.7265
   54DOPE   C33 6920  -0.169   5.139   3.877  0.3192 -0.1383 -0.7024
   54DOPE   H3X 6921  -0.125   5.051   3.927 -0.1506  1.2013  2.2964
   54DOPE   H3Y 6922  -0.277   5.121   3.858 -0.0754  2.8837 -2.0583
   54DOPE   C34 6923  -0.161   5.262   3.969 -0.1258  0.1051 -0.3472
   54DOPE   H4X 6924  -0.056   5.300   3.971 -0.4201  0.9277 -0.1437
   54DOPE   H4Y 6925  -0.217   5.343   3.918 -1.7929 -0.9912 -0.3288
   54DOPE   C35 6926  -0.221   5.245   4.113 -0.5767  0.2267 -0.5669
   54DOPE   H5X 6927  -0.331   5.243   4.122 -0.4803 -1.7498  0.6638
   54DOPE   H5Y 6928  -0.190   5.333   4.174 -0.2088 -0.1350 -0.2270
   54DOPE   C36 6929  -0.178   5.109   4.180  0.0220  1.0035 -1.0570
   54DOPE   H6X 6930  -0.068   5.103   4.167 -0.0399  0.3270 -1.3040
   54DOPE   H6Y 6931  -0.226   5.035   4.112  0.3239 -1.2272  1.0256
   54DOPE   C37 6932  -0.211   5.102   4.327 -0.2017 -0.0839  0.3666
   54DOPE   H7X 6933  -0.161   5.192   4.370 -1.1867  0.1867  0.9684
   54DOPE   H7Y 6934  -0.320   5.115   4.346 -0.1333 -0.5206  1.1019
   54DOPE   C38 6935  -0.164   4.971   4.386  0.0974  0.0707  0.1337
   54DOPE   H8X 6936  -0.227   4.887   4.350 -0.0854  0.0365  0.5324
   54DOPE   H8Y 6937  -0.183   4.984   4.495 -1.0520  3.9411 -0.3663
   54DOPE   C39 6938  -0.026   4.930   4.354 -0.1325 -0.5705  0.1105
   54DOPE   H9X 6939  -0.014   4.860   4.270 -0.6025  1.4806 -1.7704
   54DOPE  C310 6940   0.089   4.969   4.413  0.5818  0.0841  0.0296
   54DOPE  H10X 6941   0.183   4.928   4.374  0.8507 -1.1474  1.8119
   54DOPE  C311 6942   0.098   5.068   4.522  0.1590 -0.1286 -0.6181
   54DOPE  H11X 6943   0.012   5.135   4.542  0.2993 -0.3810  0.8784
   54DOPE  H11Y 6944   0.100   5.000   4.609  0.3142 -0.6810 -1.0447
   54DOPE  C312 6945   0.216   5.167   4.508  0.3690 -0.7065  0.1362
   54DOPE  H12X 6946   0.297   5.097   4.479 -1.2005 -2.4804 -0.0962
   54DOPE  H12Y 6947   0.243   5.234   4.593 -2.4392 -0.2320  0.7428
   54DOPE  C313 6948   0.197   5.261   4.384  0.5792  0.1956  0.1406
   54DOPE  H13X 6949   0.196   5.191   4.298  0.6938  2.1472 -1.5175
   54DOPE  H13Y 6950   0.101   5.316   4.393  0.1462 -0.5779  0.3340
   54DOPE  C314 6951   0.312   5.356   4.366 -0.1299  0.0758 -0.0195
   54DOPE  H14X 6952   0.333   5.408   4.461  2.4082 -0.9362  0.0387
   54DOPE  H14Y 6953   0.285   5.438   4.296  0.1692  1.6015  1.6006
   54DOPE  C315 6954   0.450   5.298   4.316  0.8846  0.3367 -0.1950
   54DOPE  H15X 6955   0.444   5.218   4.240  0.4497 -1.4827  1.6744
   54DOPE  H15Y 6956   0.503   5.254   4.403  0.6903 -0.3668 -0.4305
   54DOPE  C316 6957   0.543   5.409   4.265  0.8813  0.0516  0.3248
   54DOPE  H16X 6958   0.651   5.381   4.274  0.8420 -1.4900 -2.6124
   54DOPE  H16Y 6959   0.527   5.504   4.320 -1.5800 -1.1000  1.7848
   54DOPE  C317 6960   0.536   5.434   4.114  0.1344 -0.4924  0.5524
   54DOPE  H17X 6961   0.592   5.356   4.059 -0.6544 -0.3626 -0.4577
   54DOPE  H17Y 6962   0.430   5.420   4.086  0.2381 -1.9045  0.7833
   54DOPE  C318 6963   0.571   5.579   4.064  0.7074  0.4669  0.3076
   54DOPE  H18X 6964   0.572   5.589   3.954  2.3348  0.6642  0.3113
   54DOPE  H18Y 6965   0.499   5.643   4.118 -0.0182  0.1259 -0.2404
   54DOPE  H18Z 6966   0.677   5.593   4.095  0.9090 -2.7207  1.5020
   55DOPE     N 6967   0.046   7.010   2.808  0.2824 -0.1769  0.3778
   55DOPE   HN1 6968   0.101   6.991   2.722  2.4381 -1.1495  1.8880
   55DOPE   HN2 6969  -0.015   7.092   2.788  1.5962  0.1590 -2.8703
   55DOPE   HN3 6970   0.120   7.030   2.878  1.7233 -0.7658 -0.9140
   55DOPE   C12 6971  -0.053   6.894   2.827 -0.6677 -0.4864  0.0932
   55DOPE  H12A 6972  -0.134   6.909   2.752  0.1971  1.1033 -0.5858
   55DOPE  H12B 6973  -0.088   6.901   2.932 -0.5903 -1.0605  0.1645
   55DOPE   C11 6974   0.023   6.761   2.792  0.3297 -0.5237  0.1376
   55DOPE  H11A 6975   0.067   6.773   2.690  1.9229 -1.8013  0.6245
   55DOPE  H11B 6976  -0.048   6.676   2.794 -0.0522 -0.1950  1.8320
   55DOPE     P 6977   0.199   6.608   2.914 -0.1637  0.2115  0.0077
   55DOPE   O13 6978   0.343   6.620   2.873  0.3241 -0.3463  0.1352
   55DOPE   O14 6979   0.121   6.504   2.848  0.0114  0.0255 -0.7909
   55DOPE   O11 6980   0.192   6.586   3.073  0.0785 -0.1436 -0.2490
   55DOPE   O12 6981   0.125   6.740   2.890  0.8345 -0.4145 -0.2866
   55DOPE    C1 6982   0.082   6.530   3.153 -0.6798  0.3975 -0.1472
   55DOPE    HA 6983   0.115   6.451   3.224 -0.2182  0.6019 -0.1246
   55DOPE    HB 6984  -0.001   6.488   3.094 -1.7310  0.6453  1.1041
   55DOPE    C2 6985   0.015   6.637   3.247  0.1304  0.2635 -0.2287
   55DOPE    HS 6986  -0.025   6.718   3.182 -1.2516 -1.8283 -2.1197
   55DOPE   O21 6987   0.108   6.674   3.345  0.6714 -0.0994  0.3817
   55DOPE   C21 6988   0.189   6.771   3.307 -0.4794  0.6138  0.1373
   55DOPE   O22 6989   0.175   6.847   3.215  0.7185  0.1249  0.0384
   55DOPE   C22 6990   0.294   6.790   3.421  0.3288 -0.3869 -0.1159
   55DOPE   H2R 6991   0.381   6.730   3.386  1.0763  0.8719 -0.4885
   55DOPE   H2S 6992   0.249   6.754   3.516 -0.8744  1.8456  0.2333
   55DOPE    C3 6993  -0.102   6.575   3.324 -0.0308 -0.5825  0.6034
   55DOPE    HX 6994  -0.060   6.488   3.380 -0.5040 -0.6782  0.8148
   55DOPE    HY 6995  -0.166   6.522   3.250  1.6027  1.3178 -2.3501
   55DOPE   O31 6996  -0.181   6.662   3.404 -0.4380 -0.2751 -0.4660
   55DOPE   C31 6997  -0.284   6.720   3.340  0.9158  0.2749 -0.8422
   55DOPE   O32 6998  -0.308   6.702   3.222  0.0631  0.1060 -0.2299
   55DOPE   C32 6999  -0.365   6.803   3.433  0.3981  0.3014  0.7687
   55DOPE   H2X 7000  -0.391   6.746   3.525 -1.0198 -2.0435 -0.9583
   55DOPE   H2Y 7001  -0.301   6.892   3.454  0.2478  1.0038 -1.4951
   55DOPE   C23 7002   0.340   6.934   3.444  0.1948 -0.1826 -0.2098
   55DOPE   H3R 7003   0.256   7.005   3.462  1.0703  0.7068  0.4547
   55DOPE   H3S 7004   0.383   6.956   3.344  1.9127  0.7701  0.6966
   55DOPE   C24 7005   0.441   6.951   3.559  0.0285  0.9572  0.3770
   55DOPE   H4R 7006   0.471   7.056   3.582  2.8206  0.0205  1.3901
   55DOPE   H4S 7007   0.534   6.902   3.525 -0.4474  1.8552 -2.5190
   55DOPE   C25 7008   0.384   6.892   3.688  1.0351 -0.3588 -0.4718
   55DOPE   H5R 7009   0.355   6.786   3.672 -0.2648 -0.2945  1.2502
   55DOPE   H5S 7010   0.290   6.945   3.712  0.0053 -1.8349 -1.0909
   55DOPE   C26 7011   0.466   6.908   3.818  0.5555 -0.4022 -0.0975
   55DOPE   H6R 7012   0.414   6.865   3.906 -1.5106  1.3946 -0.3511
   55DOPE   H6S 7013   0.474   7.017   3.835  0.3896  0.1872 -3.2122
   55DOPE   C27 7014   0.608   6.857   3.792  0.6726 -0.2916  0.1149
   55DOPE   H7R 7015   0.657   6.901   3.703  3.2852 -1.2406  1.0134
   55DOPE   H7S 7016   0.597   6.748   3.773 -1.5569  0.1863 -1.8936
   55DOPE   C28 7017   0.712   6.889   3.901 -0.4929 -0.3151  0.1407
   55DOPE   H8R 7018   0.656   6.862   3.994  1.4728 -0.1173  1.4319
   55DOPE   H8S 7019   0.730   6.998   3.909 -0.3803 -0.2439 -1.0145
   55DOPE   C29 7020   0.844   6.818   3.892 -0.8116  0.7308 -0.5858
   55DOPE   H9R 7021   0.920   6.876   3.836 -0.8590  0.6600 -0.7249
   55DOPE  C210 7022   0.882   6.695   3.941 -0.3380  0.1705  0.5319
   55DOPE  H10R 7023   0.989   6.667   3.937 -0.0594  0.8129  2.3261
   55DOPE  C211 7024   0.792   6.606   4.022  0.1764 -0.2326  0.2677
   55DOPE  H11R 7025   0.773   6.511   3.969 -1.1208  0.5578 -0.7364
   55DOPE  H11S 7026   0.693   6.652   4.042  1.1230  0.8462  2.9043
   55DOPE  C212 7027   0.859   6.564   4.155 -0.1107  0.5951  0.2927
   55DOPE  H12R 7028   0.875   6.655   4.216 -2.7147  1.6509 -0.4561
   55DOPE  H12S 7029   0.961   6.521   4.136 -0.1352  0.8713 -0.5005
   55DOPE  C213 7030   0.768   6.474   4.242  0.1534 -0.0200  0.3658
   55DOPE  H13R 7031   0.667   6.505   4.274 -0.9509 -2.4892 -0.4685
   55DOPE  H13S 7032   0.816   6.480   4.342 -0.4144  1.0670  0.5887
   55DOPE  C214 7033   0.759   6.324   4.203  0.1264 -0.6245  0.0376
   55DOPE  H14R 7034   0.845   6.290   4.142 -0.3630  1.4902 -1.9872
   55DOPE  H14S 7035   0.671   6.317   4.134 -1.5554  1.7879  1.7545
   55DOPE  C215 7036   0.734   6.225   4.320 -0.1958  0.1424 -0.3252
   55DOPE  H15R 7037   0.831   6.203   4.370 -0.0019 -0.5147 -0.9825
   55DOPE  H15S 7038   0.726   6.125   4.274 -0.8793  0.4541 -0.9102
   55DOPE  C216 7039   0.619   6.269   4.411 -0.0976  0.4435 -0.1456
   55DOPE  H16R 7040   0.549   6.327   4.348  0.9251  1.2080 -0.6026
   55DOPE  H16S 7041   0.645   6.339   4.492 -0.6888  0.8864 -0.3345
   55DOPE  C217 7042   0.544   6.149   4.475 -0.9432  0.3578 -0.3104
   55DOPE  H17R 7043   0.607   6.094   4.547 -4.0166  1.1876  3.3474
   55DOPE  H17S 7044   0.520   6.072   4.398  0.8252 -0.4368 -0.1083
   55DOPE  C218 7045   0.419   6.173   4.552  0.8320 -0.1791  0.1248
   55DOPE  H18R 7046   0.439   6.212   4.654 -0.4185 -1.1455  0.7782
   55DOPE  H18S 7047   0.357   6.084   4.578 -0.5072  1.4110  2.7828
   55DOPE  H18T 7048   0.343   6.235   4.501  0.5695 -0.6351 -0.0484
   55DOPE   C33 7049  -0.496   6.857   3.366 -0.2397  0.1786 -0.7181
   55DOPE   H3X 7050  -0.552   6.765   3.338 -0.3525  0.8643 -2.8949
   55DOPE   H3Y 7051  -0.461   6.909   3.275  3.0698 -0.2099  0.1808
   55DOPE   C34 7052  -0.574   6.953   3.445  0.0745  0.2913  0.5418
   55DOPE   H4X 7053  -0.529   7.051   3.468 -2.1308  1.7347 -0.9109
   55DOPE   H4Y 7054  -0.659   6.984   3.381 -0.5223 -1.1429  0.5896
   55DOPE   C35 7055  -0.641   6.901   3.577 -0.1019 -0.1433  0.4529
   55DOPE   H5X 7056  -0.556   6.868   3.640 -0.7998 -1.5412  0.6992
   55DOPE   H5Y 7057  -0.704   6.811   3.558 -0.6361  0.0378  1.3439
   55DOPE   C36 7058  -0.727   7.011   3.641 -0.4911  0.4180 -0.4396
   55DOPE   H6X 7059  -0.809   7.030   3.569  1.2799  0.8345 -2.4595
   55DOPE   H6Y 7060  -0.660   7.098   3.659  0.0929  0.1497 -1.2867
   55DOPE   C37 7061  -0.800   6.968   3.769 -0.3548  0.4659  0.2071
   55DOPE   H7X 7062  -0.851   6.874   3.739  0.7141 -0.3341  0.8339
   55DOPE   H7Y 7063  -0.721   6.956   3.846 -0.5693  1.9306  0.6801
   55DOPE   C38 7064  -0.902   7.067   3.823 -0.4141  0.8216 -0.0297
   55DOPE   H8X 7065  -0.975   7.012   3.886  0.4312  0.0434  0.2921
   55DOPE   H8Y 7066  -0.949   7.118   3.736  0.9945  0.3938 -1.0675
   55DOPE   C39 7067  -0.839   7.173   3.904 -0.4941  1.0028 -0.1696
   55DOPE   H9X 7068  -0.754   7.218   3.850  0.1078 -0.9787 -0.9598
   55DOPE  C310 7069  -0.875   7.217   4.027 -0.1322 -0.0035  0.0968
   55DOPE  H10X 7070  -0.808   7.294   4.068 -1.0005 -0.0472  1.6925
   55DOPE  C311 7071  -0.994   7.181   4.108  0.3001  0.2033  0.4747
   55DOPE  H11X 7072  -1.067   7.123   4.047  0.6147  0.9518 -0.6501
   55DOPE  H11Y 7073  -0.977   7.122   4.201  2.4962  0.2823  0.1682
   55DOPE  C312 7074  -1.076   7.306   4.135  0.2217  0.0469  0.0152
   55DOPE  H12X 7075  -1.183   7.283   4.151  0.2451  0.2666  0.5083
   55DOPE  H12Y 7076  -1.070   7.379   4.051  4.1602  0.3392  0.3476
   55DOPE  C313 7077  -1.016   7.378   4.257 -0.8721 -0.0505  0.3289
   55DOPE  H13X 7078  -0.979   7.299   4.326  0.7008 -0.9852 -1.5057
   55DOPE  H13Y 7079  -0.934   7.447   4.230 -0.8395  0.1308  0.8741
   55DOPE  C314 7080  -1.131   7.443   4.326  0.0230 -0.5457  0.1744
   55DOPE  H14X 7081  -1.094   7.469   4.427  0.4773  0.8482 -0.3260
   55DOPE  H14Y 7082  -1.215   7.372   4.337  0.2936 -0.7724  0.8171
   55DOPE  C315 7083  -1.191   7.573   4.261  0.3033  0.3878  0.2085
   55DOPE  H15X 7084  -1.220   7.538   4.160 -1.1944 -1.9817  1.3586
   55DOPE  H15Y 7085  -1.115   7.652   4.244 -0.2595  0.6094 -1.4537
   55DOPE  C316 7086  -1.317   7.628   4.326 -0.1635  0.1662  0.0180
   55DOPE  H16X 7087  -1.353   7.542   4.387  0.5366  1.7770  2.8732
   55DOPE  H16Y 7088  -1.389   7.656   4.246 -1.3703  1.7535  1.5798
   55DOPE  C317 7089  -1.305   7.738   4.433 -0.5642 -0.1132 -0.0836
   55DOPE  H17X 7090  -1.227   7.706   4.505 -1.0893 -3.2468 -0.7605
   55DOPE  H17Y 7091  -1.277   7.832   4.381 -0.4716  0.2273  0.5716
   55DOPE  C318 7092  -1.427   7.762   4.519  0.0862  0.3238 -0.0261
   55DOPE  H18X 7093  -1.451   7.665   4.569  0.9967 -0.6133 -1.3377
   55DOPE  H18Y 7094  -1.395   7.838   4.594 -0.4609  1.0764 -0.5457
   55DOPE  H18Z 7095  -1.513   7.798   4.460  0.9684  0.2671 -1.3990
   56DOPE     N 7096   0.146   5.995   2.893 -0.2610  0.2431 -0.0585
   56DOPE   HN1 7097   0.224   5.926   2.892 -0.4038  0.0793  0.0753
   56DOPE   HN2 7098   0.146   6.053   2.979 -1.0889 -0.5366  0.4879
   56DOPE   HN3 7099   0.067   5.928   2.889  0.2458 -0.3424 -0.5430
   56DOPE   C12 7100   0.157   6.084   2.777  0.8653  0.4138  0.1668
   56DOPE  H12A 7101   0.065   6.147   2.779 -0.3786 -1.3397  1.1606
   56DOPE  H12B 7102   0.165   6.026   2.683 -1.1105  0.4919 -0.1091
   56DOPE   C11 7103   0.281   6.177   2.776 -0.7496 -0.0698 -0.3484
   56DOPE  H11A 7104   0.277   6.250   2.859  2.1903 -0.2869  0.0862
   56DOPE  H11B 7105   0.279   6.237   2.682  0.2693 -1.5510 -1.3762
   56DOPE     P 7106   0.493   6.068   2.896  0.2158  0.2996  0.3475
   56DOPE   O13 7107   0.640   6.072   2.865 -0.5713 -0.0144  0.5313
   56DOPE   O14 7108   0.434   5.943   2.948 -0.2540  0.5067 -0.3783
   56DOPE   O11 7109   0.463   6.195   2.989  0.1555  0.1890 -0.3206
   56DOPE   O12 7110   0.405   6.106   2.765 -0.3306  0.0370  0.0222
   56DOPE    C1 7111   0.511   6.323   2.946  0.0991 -0.3667  0.3582
   56DOPE    HA 7112   0.442   6.405   2.979  0.5038  0.1487 -0.0528
   56DOPE    HB 7113   0.515   6.352   2.839 -0.4280  3.8022  1.2726
   56DOPE    C2 7114   0.648   6.366   3.016  0.0129 -0.2851  0.1614
   56DOPE    HS 7115   0.720   6.300   2.964  1.4832  0.4503  1.1829
   56DOPE   O21 7116   0.636   6.339   3.156  0.2152 -0.4658 -0.2274
   56DOPE   C21 7117   0.743   6.310   3.234  0.3646 -0.3043 -0.2227
   56DOPE   O22 7118   0.856   6.301   3.190  0.3248 -0.2874 -0.0897
   56DOPE   C22 7119   0.716   6.292   3.375  0.1476 -0.0032  0.6373
   56DOPE   H2R 7120   0.797   6.234   3.425  0.0403  0.6912  1.6414
   56DOPE   H2S 7121   0.626   6.228   3.388 -1.1846  1.5908 -0.4787
   56DOPE    C3 7122   0.701   6.506   2.989 -0.1992  0.1329  0.2024
   56DOPE    HX 7123   0.709   6.516   2.879  0.1429  1.8999  0.3490
   56DOPE    HY 7124   0.800   6.517   3.039 -0.1014  1.1901 -0.1912
   56DOPE   O31 7125   0.605   6.603   3.046 -0.0669  0.3213 -0.6251
   56DOPE   C31 7126   0.637   6.730   3.013 -0.3343  0.0290  0.0262
   56DOPE   O32 7127   0.726   6.760   2.936  0.1405 -0.2125  0.6085
   56DOPE   C32 7128   0.543   6.822   3.111  0.3523 -0.1114  0.3762
   56DOPE   H2X 7129   0.443   6.822   3.062  0.7144 -0.9665 -0.3934
   56DOPE   H2Y 7130   0.540   6.769   3.209  0.3592  1.3469  1.1910
   56DOPE   C23 7131   0.691   6.419   3.455  0.1917  0.2351  1.1564
   56DOPE   H3R 7132   0.676   6.383   3.560 -1.5155 -1.6891  0.3285
   56DOPE   H3S 7133   0.595   6.472   3.436 -0.5377 -1.0966  0.9960
   56DOPE   C24 7134   0.810   6.516   3.436 -0.1847 -0.3824  0.1945
   56DOPE   H4R 7135   0.828   6.530   3.327  0.8331 -0.6880  0.3166
   56DOPE   H4S 7136   0.903   6.464   3.469 -0.2780  0.7581  2.4107
   56DOPE   C25 7137   0.791   6.649   3.507  0.2582  0.0906  0.4027
   56DOPE   H5R 7138   0.784   6.644   3.618  0.2998 -1.1195  0.3674
   56DOPE   H5S 7139   0.693   6.695   3.482  0.5561  0.0065 -0.9797
   56DOPE   C26 7140   0.894   6.759   3.456  0.3140  0.0338 -0.5830
   56DOPE   H6R 7141   0.847   6.856   3.482 -1.9150 -1.0009 -0.5513
   56DOPE   H6S 7142   0.906   6.758   3.345 -0.5224 -3.3762 -0.7615
   56DOPE   C27 7143   1.032   6.748   3.530  0.3031 -0.3742  0.2366
   56DOPE   H7R 7144   1.076   6.651   3.497  0.6226  0.1154 -0.8158
   56DOPE   H7S 7145   1.019   6.745   3.641  1.2116 -2.3234  0.3440
   56DOPE   C28 7146   1.137   6.859   3.494 -0.3679 -0.0479 -1.0439
   56DOPE   H8R 7147   1.097   6.950   3.544  0.8459  0.6210 -1.2574
   56DOPE   H8S 7148   1.128   6.879   3.385 -1.3320  2.5982 -0.5550
   56DOPE   C29 7149   1.274   6.833   3.551 -0.3580  0.9126 -0.2321
   56DOPE   H9R 7150   1.339   6.767   3.491  1.7838  1.7364  1.0592
   56DOPE  C210 7151   1.315   6.863   3.674  0.2491 -0.2494 -0.6076
   56DOPE  H10R 7152   1.422   6.856   3.696 -0.1071  0.7837  1.8334
   56DOPE  C211 7153   1.249   6.961   3.770  0.1026 -0.2960 -0.3873
   56DOPE  H11R 7154   1.140   6.976   3.756  0.2153  0.8290 -0.1523
   56DOPE  H11S 7155   1.291   7.063   3.753  0.2100 -0.2203  0.2846
   56DOPE  C212 7156   1.255   6.916   3.918 -0.0070  0.2528 -0.3329
   56DOPE  H12R 7157   1.362   6.903   3.945  0.5058 -1.0967 -2.6885
   56DOPE  H12S 7158   1.213   6.813   3.922 -0.0243  0.2916  1.2303
   56DOPE  C213 7159   1.175   7.022   4.001  0.1262 -0.0365  0.9638
   56DOPE  H13R 7160   1.067   7.020   3.976  0.4383 -0.8569 -0.4327
   56DOPE  H13S 7161   1.204   7.124   3.967  0.7615 -0.9927 -1.5652
   56DOPE  C214 7162   1.185   7.004   4.149  0.2622 -0.2461  0.1110
   56DOPE  H14R 7163   1.120   7.075   4.205 -0.6632 -0.9180 -0.0749
   56DOPE  H14S 7164   1.289   7.031   4.173  0.3628  0.6205 -1.1890
   56DOPE  C215 7165   1.161   6.858   4.186  0.8703  0.2693  0.8415
   56DOPE  H15R 7166   1.233   6.780   4.153  2.0834  0.8279  2.0632
   56DOPE  H15S 7167   1.058   6.830   4.154  1.1805 -0.6355  0.5930
   56DOPE  C216 7168   1.179   6.850   4.337 -0.1965 -0.2912 -0.7335
   56DOPE  H16R 7169   1.098   6.913   4.381  0.4994 -1.2322  2.0992
   56DOPE  H16S 7170   1.277   6.891   4.370 -0.7312  0.7524 -0.3824
   56DOPE  C217 7171   1.154   6.707   4.376  0.5244 -0.4469  0.0132
   56DOPE  H17R 7172   1.233   6.646   4.326 -0.8620 -2.7339  0.4819
   56DOPE  H17S 7173   1.051   6.680   4.344  0.6833  0.8591 -1.7614
   56DOPE  C218 7174   1.175   6.674   4.522 -0.1854  0.1244 -0.3963
   56DOPE  H18R 7175   1.279   6.673   4.562 -0.3009  1.6568  0.0234
   56DOPE  H18S 7176   1.132   6.573   4.541 -1.7310  0.3549 -2.3619
   56DOPE  H18T 7177   1.110   6.747   4.577  0.3805  0.1832  0.2107
   56DOPE   C33 7178   0.584   6.972   3.111  0.5710 -0.1885  1.1246
   56DOPE   H3X 7179   0.506   7.049   3.125 -1.3566 -1.9962  0.8728
   56DOPE   H3Y 7180   0.635   6.996   3.015 -0.3394 -0.1838  0.6338
   56DOPE   C34 7181   0.684   6.997   3.234  0.5236  0.1629  0.7620
   56DOPE   H4X 7182   0.636   6.954   3.324 -0.4616 -0.6215 -0.1137
   56DOPE   H4Y 7183   0.773   6.931   3.223 -0.4576 -0.7868 -2.7443
   56DOPE   C35 7184   0.737   7.140   3.259 -0.3019  0.7183  0.1476
   56DOPE   H5X 7185   0.653   7.212   3.260 -0.8452  0.0911  1.1569
   56DOPE   H5Y 7186   0.807   7.162   3.175  0.1950 -1.4796 -0.0738
   56DOPE   C36 7187   0.820   7.160   3.387  0.0263 -0.9261  0.3714
   56DOPE   H6X 7188   0.853   7.265   3.404 -0.3559 -1.3938  5.6597
   56DOPE   H6Y 7189   0.913   7.100   3.382 -0.1210 -1.4899  3.0904
   56DOPE   C37 7190   0.745   7.131   3.517  0.3244  0.7121  0.6549
   56DOPE   H7X 7191   0.649   7.182   3.496  0.3902 -0.1833 -2.3693
   56DOPE   H7Y 7192   0.736   7.021   3.530 -1.5979  0.9190  1.4135
   56DOPE   C38 7193   0.808   7.186   3.648  0.0175 -0.3487  0.4919
   56DOPE   H8X 7194   0.912   7.149   3.639  1.2439  2.3272  2.5562
   56DOPE   H8Y 7195   0.748   7.140   3.729  0.6470 -0.7640  0.7260
   56DOPE   C39 7196   0.814   7.337   3.677 -0.3403 -0.0203 -0.1453
   56DOPE   H9X 7197   0.875   7.396   3.607  1.2784  0.6754  1.7658
   56DOPE  C310 7198   0.741   7.411   3.767 -0.3431  0.1395  0.3556
   56DOPE  H10X 7199   0.761   7.519   3.776 -0.2035  0.1492 -0.0578
   56DOPE  C311 7200   0.650   7.361   3.876 -0.3517  1.0482 -0.5012
   56DOPE  H11X 7201   0.582   7.445   3.904 -1.0178  0.0710  0.9363
   56DOPE  H11Y 7202   0.606   7.263   3.849 -2.2703  1.7604 -0.1306
   56DOPE  C312 7203   0.731   7.326   4.002  0.7388  0.0146 -0.2200
   56DOPE  H12X 7204   0.778   7.421   4.035  1.0759  0.0336 -0.7401
   56DOPE  H12Y 7205   0.810   7.251   3.979  0.4448 -0.6173  0.7758
   56DOPE  C313 7206   0.634   7.266   4.100  1.0306 -0.2136 -0.1677
   56DOPE  H13X 7207   0.561   7.343   4.133 -0.7576 -1.4256 -1.1058
   56DOPE  H13Y 7208   0.573   7.191   4.045  0.5088  0.2792 -0.2773
   56DOPE  C314 7209   0.705   7.199   4.215 -0.9560 -0.2716  0.0108
   56DOPE  H14X 7210   0.762   7.284   4.256 -1.9236 -0.4678  1.8966
   56DOPE  H14Y 7211   0.774   7.128   4.165 -0.3424 -0.1169  0.6298
   56DOPE  C315 7212   0.617   7.140   4.324 -0.2429 -0.3279  0.1954
   56DOPE  H15X 7213   0.553   7.066   4.270 -1.3818  0.4130  0.4972
   56DOPE  H15Y 7214   0.552   7.222   4.361 -1.2400 -1.5222  1.1928
   56DOPE  C316 7215   0.694   7.076   4.446  0.2101  0.0138 -1.1347
   56DOPE  H16X 7216   0.734   6.976   4.418 -1.1245 -0.8509 -0.0587
   56DOPE  H16Y 7217   0.617   7.060   4.524  0.4816  0.4567 -0.7696
   56DOPE  C317 7218   0.801   7.158   4.518 -0.4837 -0.2293  0.2673
   56DOPE  H17X 7219   0.836   7.107   4.610 -2.1131 -1.5283  0.2142
   56DOPE  H17Y 7220   0.888   7.169   4.450  0.4869 -2.6714  0.9967
   56DOPE  C318 7221   0.756   7.300   4.570 -0.5338 -0.2443  0.0410
   56DOPE  H18X 7222   0.682   7.295   4.653 -0.0934  2.5317  0.7100
   56DOPE  H18Y 7223   0.843   7.367   4.590  1.2318 -2.6281  0.8585
   56DOPE  H18Z 7224   0.703   7.351   4.487  2.9749  1.3475 -1.4032
   57DOPE     N 7225   0.967   2.735   3.100  0.0631 -0.2182  0.3050
   57DOPE   HN1 7226   0.885   2.749   3.037 -0.5070 -0.1566  1.0476
   57DOPE   HN2 7227   1.050   2.751   3.040 -0.9782  0.6769 -0.9700
   57DOPE   HN3 7228   0.953   2.638   3.133 -0.6740 -0.3361 -0.3048
   57DOPE   C12 7229   0.970   2.835   3.211 -0.1880 -0.6498 -0.3752
   57DOPE  H12A 7230   0.978   2.941   3.178  2.0569 -0.8408 -0.6128
   57DOPE  H12B 7231   1.060   2.814   3.273  0.3746 -2.2310 -1.6702
   57DOPE   C11 7232   0.844   2.819   3.304 -0.3096  0.1935  0.0384
   57DOPE  H11A 7233   0.750   2.837   3.247 -0.7505  0.1009  0.7298
   57DOPE  H11B 7234   0.849   2.894   3.386  0.7950 -2.7134  2.8499
   57DOPE     P 7235   0.723   2.618   3.429  0.1582 -0.1789  0.5167
   57DOPE   O13 7236   0.722   2.476   3.389 -0.0400  0.1847  0.1877
   57DOPE   O14 7237   0.597   2.696   3.401 -0.2428 -0.5081  0.0432
   57DOPE   O11 7238   0.766   2.639   3.580  0.2147 -0.1242  0.1097
   57DOPE   O12 7239   0.844   2.687   3.355 -0.2279  0.2743  0.6680
   57DOPE    C1 7240   0.903   2.664   3.614  0.4807 -0.1012  0.1516
   57DOPE    HA 7241   0.915   2.691   3.721  0.4410 -1.0190  0.4000
   57DOPE    HB 7242   0.947   2.747   3.554  1.2865  1.0471  2.2231
   57DOPE    C2 7243   0.995   2.534   3.620 -0.5970 -0.7003 -0.0681
   57DOPE    HS 7244   0.973   2.472   3.531 -3.4232  0.5762 -0.3584
   57DOPE   O21 7245   0.956   2.460   3.739  0.9168  0.2576 -0.3604
   57DOPE   C21 7246   1.017   2.336   3.750 -0.0475 -0.0794 -0.1443
   57DOPE   O22 7247   1.080   2.282   3.659 -0.0095  0.2964 -0.3420
   57DOPE   C22 7248   0.966   2.265   3.879 -0.2980  0.3052 -0.2300
   57DOPE   H2R 7249   1.008   2.164   3.897 -1.6228  0.1251  2.2111
   57DOPE   H2S 7250   0.855   2.266   3.869 -0.1879  0.0721 -1.7844
   57DOPE    C3 7251   1.148   2.580   3.623  0.3288  0.2663  0.0759
   57DOPE    HX 7252   1.162   2.649   3.537  1.3947 -0.6128 -0.4849
   57DOPE    HY 7253   1.219   2.497   3.605 -0.1886 -0.2322  0.3192
   57DOPE   O31 7254   1.183   2.634   3.750 -0.4614  1.0763 -0.3685
   57DOPE   C31 7255   1.169   2.764   3.767 -0.5452  0.2102  0.2789
   57DOPE   O32 7256   1.130   2.850   3.693 -0.0822  0.6073  0.4325
   57DOPE   C32 7257   1.219   2.800   3.907  0.2187  0.6631  1.2787
   57DOPE   H2X 7258   1.329   2.807   3.910  0.2834 -0.2025  1.1833
   57DOPE   H2Y 7259   1.176   2.899   3.932  0.4470  0.7823  1.1901
   57DOPE   C23 7260   1.011   2.351   4.003  0.1871 -0.2339  0.5836
   57DOPE   H3R 7261   0.942   2.436   4.019  0.1273 -0.3479  0.9627
   57DOPE   H3S 7262   1.102   2.403   3.968  1.3107 -2.1043  0.5801
   57DOPE   C24 7263   1.028   2.275   4.136 -0.6420 -0.5588 -0.0186
   57DOPE   H4R 7264   0.938   2.217   4.165 -0.7666  0.1406  1.0465
   57DOPE   H4S 7265   1.046   2.349   4.216 -0.9642  0.0991 -0.5475
   57DOPE   C25 7266   1.149   2.182   4.131 -0.1019 -1.1229 -0.2872
   57DOPE   H5R 7267   1.237   2.251   4.128 -0.1330 -0.8629  2.3308
   57DOPE   H5S 7268   1.161   2.114   4.044  0.3386  0.5995 -1.6300
   57DOPE   C26 7269   1.162   2.103   4.264  0.1193 -0.2929 -0.3762
   57DOPE   H6R 7270   1.069   2.060   4.305 -1.2109  0.5233 -2.3988
   57DOPE   H6S 7271   1.197   2.178   4.338 -0.4229 -0.1744 -0.2394
   57DOPE   C27 7272   1.273   2.005   4.251  0.0469 -0.0050 -0.2154
   57DOPE   H7R 7273   1.362   2.066   4.223 -0.8256  1.4373  0.0580
   57DOPE   H7S 7274   1.251   1.943   4.162 -0.5475 -0.3765  0.1852
   57DOPE   C28 7275   1.317   1.922   4.371  0.4594  0.4829  0.0485
   57DOPE   H8R 7276   1.368   1.833   4.328 -1.1646  0.5723 -2.2923
   57DOPE   H8S 7277   1.225   1.894   4.427  0.3996  1.6042  0.5508
   57DOPE   C29 7278   1.400   2.010   4.463  0.3910  0.2081  0.2284
   57DOPE   H9R 7279   1.362   2.111   4.483 -0.6417 -0.1588  0.1612
   57DOPE  C210 7280   1.511   1.974   4.528 -0.5261 -0.1920  0.2230
   57DOPE  H10R 7281   1.553   2.042   4.604  0.6733 -1.5067  0.7714
   57DOPE  C211 7282   1.592   1.842   4.535  0.1920  0.0936  0.3560
   57DOPE  H11R 7283   1.692   1.854   4.489 -0.8460  0.0826 -2.0894
   57DOPE  H11S 7284   1.543   1.761   4.477  0.8759 -1.8856  2.4447
   57DOPE  C212 7285   1.597   1.783   4.681 -0.0109 -0.1514 -0.5538
   57DOPE  H12R 7286   1.635   1.679   4.680 -2.1153 -0.9899  0.5789
   57DOPE  H12S 7287   1.494   1.779   4.723  0.5464  0.3469  0.9083
   57DOPE  C213 7288   1.675   1.873   4.778 -0.3465  0.4830  0.3208
   57DOPE  H13R 7289   1.638   1.978   4.782 -1.0577  0.3519 -1.7164
   57DOPE  H13S 7290   1.780   1.870   4.742 -0.8280 -1.0615 -1.0531
   57DOPE  C214 7291   1.671   1.835   4.932  0.3864 -0.5066  0.2865
   57DOPE  H14R 7292   1.563   1.826   4.959  0.0435 -1.9555 -1.4575
   57DOPE  H14S 7293   1.710   1.923   4.989  1.3017 -2.2558  2.4957
   57DOPE  C215 7294   1.759   1.716   4.966 -0.2514  0.7384  0.2347
   57DOPE  H15R 7295   1.865   1.742   4.948 -0.0592 -0.4301 -0.3638
   57DOPE  H15S 7296   1.722   1.636   4.899  1.2248  0.0390  0.2224
   57DOPE  C216 7297   1.731   1.681   5.115 -0.3745 -0.2520 -0.1847
   57DOPE  H16R 7298   1.621   1.683   5.132 -0.1216  0.4158  1.6173
   57DOPE  H16S 7299   1.784   1.756   5.177 -1.7007  0.1830  0.4709
   57DOPE  C217 7300   1.777   1.542   5.163  0.4390  0.8505  0.5289
   57DOPE  H17R 7301   1.771   1.537   5.274 -0.1747 -1.7047  0.4413
   57DOPE  H17S 7302   1.887   1.531   5.150  0.3025 -0.2989  0.2649
   57DOPE  C218 7303   1.703   1.425   5.103 -0.1700  0.7839  0.3555
   57DOPE  H18R 7304   1.738   1.333   5.153  1.4474  0.8263 -0.6461
   57DOPE  H18S 7305   1.730   1.424   4.996 -1.1748 -2.3367  0.0249
   57DOPE  H18T 7306   1.593   1.436   5.114 -0.0182  0.9755  1.9100
   57DOPE   C33 7307   1.158   2.706   4.021 -0.6133  0.3042 -0.3535
   57DOPE   H3X 7308   1.190   2.601   4.002 -0.6812  0.0171  1.0349
   57DOPE   H3Y 7309   1.047   2.700   4.020 -0.6885  0.5694 -3.2798
   57DOPE   C34 7310   1.210   2.735   4.157  0.9242 -0.3756 -0.1185
   57DOPE   H4X 7311   1.173   2.674   4.242 -0.8755 -1.7949 -1.8398
   57DOPE   H4Y 7312   1.317   2.706   4.159  1.0158 -0.2330 -1.8994
   57DOPE   C35 7313   1.200   2.887   4.207 -0.2758  0.0009  0.7905
   57DOPE   H5X 7314   1.095   2.923   4.201 -0.4006 -0.1513  1.8129
   57DOPE   H5Y 7315   1.262   2.942   4.133 -0.7314  0.2935  0.6186
   57DOPE   C36 7316   1.252   2.910   4.353  0.0429 -0.4646  0.0001
   57DOPE   H6X 7317   1.354   2.865   4.358 -0.4681 -1.9842 -1.9670
   57DOPE   H6Y 7318   1.194   2.844   4.421  1.0427  0.5103  1.8767
   57DOPE   C37 7319   1.248   3.058   4.406  0.1578  0.2927 -0.5242
   57DOPE   H7X 7320   1.140   3.077   4.423 -0.5545 -3.2456 -0.2041
   57DOPE   H7Y 7321   1.297   3.063   4.506 -1.5166 -0.1881  0.3647
   57DOPE   C38 7322   1.321   3.156   4.312  0.2054  0.4339 -0.2361
   57DOPE   H8X 7323   1.265   3.135   4.218 -0.4108 -0.5193  0.3251
   57DOPE   H8Y 7324   1.430   3.135   4.307  0.1044 -0.8546  1.6951
   57DOPE   C39 7325   1.297   3.296   4.361 -0.0990  0.3738  0.2837
   57DOPE   H9X 7326   1.380   3.329   4.425  1.5053 -2.9761  0.1551
   57DOPE  C310 7327   1.188   3.377   4.327 -0.1789 -0.1735 -0.2406
   57DOPE  H10X 7328   1.188   3.479   4.369 -0.4151 -1.0881  2.1499
   57DOPE  C311 7329   1.071   3.344   4.240  0.4072 -0.2617  0.7394
   57DOPE  H11X 7330   1.057   3.419   4.159 -1.0829 -2.1440 -0.8457
   57DOPE  H11Y 7331   1.087   3.244   4.194  0.7901  0.9559 -1.9535
   57DOPE  C312 7332   0.943   3.338   4.323  0.3891  0.3960 -0.3043
   57DOPE  H12X 7333   0.952   3.432   4.381  2.3577  0.8852 -1.3167
   57DOPE  H12Y 7334   0.944   3.259   4.402 -0.6723  1.2506  0.5933
   57DOPE  C313 7335   0.819   3.326   4.238  0.2883 -0.6708 -0.0710
   57DOPE  H13X 7336   0.808   3.410   4.166 -0.8629  0.1557  1.0284
   57DOPE  H13Y 7337   0.824   3.236   4.173  1.1225 -1.0579  0.5100
   57DOPE  C314 7338   0.687   3.314   4.313 -0.0600  0.6499 -0.0899
   57DOPE  H14X 7339   0.678   3.404   4.376  1.7633 -0.1357  1.3790
   57DOPE  H14Y 7340   0.686   3.227   4.382 -2.1350 -0.9725 -1.9816
   57DOPE  C315 7341   0.559   3.299   4.233 -0.4747 -0.6890 -0.0187
   57DOPE  H15X 7342   0.559   3.208   4.169 -1.5274 -0.4073 -0.4489
   57DOPE  H15Y 7343   0.554   3.391   4.170  3.1798 -0.5532 -0.3343
   57DOPE  C316 7344   0.439   3.312   4.333  0.1658  0.0620 -0.0280
   57DOPE  H16X 7345   0.352   3.347   4.274 -1.0201 -0.6577  1.2232
   57DOPE  H16Y 7346   0.462   3.380   4.417  1.8248  1.3801 -1.4766
   57DOPE  C317 7347   0.410   3.166   4.379 -0.7652  0.3904 -0.8271
   57DOPE  H17X 7348   0.418   3.094   4.295  0.2341  2.4675 -2.6196
   57DOPE  H17Y 7349   0.502   3.146   4.438 -1.2007  0.4632 -0.1019
   57DOPE  C318 7350   0.292   3.163   4.462 -0.3802  0.6575 -0.2757
   57DOPE  H18X 7351   0.321   3.211   4.558 -0.9315 -1.9899  1.3204
   57DOPE  H18Y 7352   0.209   3.211   4.407  0.0756 -2.5025 -4.2009
   57DOPE  H18Z 7353   0.270   3.057   4.483  2.1980 -0.2281 -1.5705
   58DOPE     N 7354   6.605   6.292   2.945 -0.6937 -0.2123 -0.1112
   58DOPE   HN1 7355   6.671   6.371   2.929  0.4432 -1.1013  0.0753
   58DOPE   HN2 7356   6.631   6.228   2.868 -2.4056 -1.2257  0.1074
   58DOPE   HN3 7357   6.513   6.339   2.931  0.2005  0.9760 -2.6974
   58DOPE   C12 7358   6.609   6.226   3.081 -0.2155  0.4807  0.4767
   58DOPE  H12A 7359   6.704   6.168   3.085 -0.0977  0.6554  0.2632
   58DOPE  H12B 7360   6.526   6.152   3.076 -0.9706  1.3389  0.1451
   58DOPE   C11 7361   6.599   6.329   3.192 -0.1919 -0.0663  0.8143
   58DOPE  H11A 7362   6.654   6.422   3.165  1.1432 -1.1821 -0.4456
   58DOPE  H11B 7363   6.658   6.290   3.278 -0.5287 -0.2606  0.9614
   58DOPE     P 7364   6.421   6.427   3.357  0.3175 -0.0737 -0.2350
   58DOPE   O13 7365   6.428   6.330   3.469  0.3600  0.2326  0.1356
   58DOPE   O14 7366   6.286   6.483   3.325 -0.0735  0.2720 -0.0498
   58DOPE   O11 7367   6.525   6.546   3.361  0.9796 -0.1824  0.0317
   58DOPE   O12 7368   6.464   6.351   3.226 -0.1518 -0.4106 -0.6132
   58DOPE    C1 7369   6.512   6.656   3.455  0.6097 -0.0216 -0.0262
   58DOPE    HA 7370   6.405   6.678   3.475  0.4059  0.5464 -1.6049
   58DOPE    HB 7371   6.536   6.751   3.403 -1.4152  0.8182  0.4748
   58DOPE    C2 7372   6.583   6.623   3.582  0.1387 -0.5913 -0.4090
   58DOPE    HS 7373   6.570   6.514   3.598 -1.5617 -0.5660 -1.4147
   58DOPE   O21 7374   6.532   6.707   3.688 -0.3249  0.3230 -0.1833
   58DOPE   C21 7375   6.515   6.650   3.807  0.2462  0.5630 -0.0195
   58DOPE   O22 7376   6.526   6.530   3.828 -0.4244 -0.0486  0.3029
   58DOPE   C22 7377   6.476   6.746   3.917 -0.1421 -0.1151 -0.5072
   58DOPE   H2R 7378   6.366   6.757   3.919 -0.0582  0.8887 -0.6505
   58DOPE   H2S 7379   6.510   6.850   3.895 -0.8057  0.3938  0.8024
   58DOPE    C3 7380   6.741   6.631   3.572 -0.5598 -0.6059 -0.9410
   58DOPE    HX 7381   6.768   6.736   3.551  0.2391 -0.8499 -1.1480
   58DOPE    HY 7382   6.766   6.571   3.482 -0.1818 -0.9388 -0.6189
   58DOPE   O31 7383   6.801   6.576   3.686 -0.5205 -0.4658  0.8089
   58DOPE   C31 7384   6.842   6.454   3.688 -0.4028  0.3366 -0.5713
   58DOPE   O32 7385   6.805   6.357   3.627 -0.0311  0.4986  0.1972
   58DOPE   C32 7386   6.951   6.441   3.799 -0.0650 -0.1542 -0.1721
   58DOPE   H2X 7387   6.990   6.336   3.803  1.2962  0.2845 -1.1207
   58DOPE   H2Y 7388   7.033   6.513   3.777 -1.2044  1.3370  0.3329
   58DOPE   C23 7389   6.523   6.699   4.051 -0.4883  0.3864 -0.6604
   58DOPE   H3R 7390   6.630   6.672   4.036 -0.5887  1.6178 -4.4452
   58DOPE   H3S 7391   6.471   6.610   4.091 -0.5735 -0.2022 -2.0386
   58DOPE   C24 7392   6.532   6.811   4.152 -0.2666 -0.0370 -0.1071
   58DOPE   H4R 7393   6.433   6.855   4.175 -0.3612 -0.6288  0.6563
   58DOPE   H4S 7394   6.595   6.895   4.116  0.9488 -0.4474  0.9877
   58DOPE   C25 7395   6.600   6.779   4.293 -0.0013  1.0734  0.1837
   58DOPE   H5R 7396   6.701   6.737   4.274 -0.2556  1.1726 -1.5011
   58DOPE   H5S 7397   6.545   6.699   4.347  1.6145  0.3350  0.8046
   58DOPE   C26 7398   6.612   6.907   4.380  0.5016 -0.4393 -0.3557
   58DOPE   H6R 7399   6.511   6.953   4.384 -0.4395 -2.4435  0.3457
   58DOPE   H6S 7400   6.693   6.972   4.340 -0.6014  1.1197 -0.1690
   58DOPE   C27 7401   6.655   6.888   4.527  0.1650 -0.4641  0.4010
   58DOPE   H7R 7402   6.764   6.869   4.524  0.4486  1.1323 -2.7233
   58DOPE   H7S 7403   6.605   6.797   4.568  1.4249 -0.9307  0.9529
   58DOPE   C28 7404   6.627   7.010   4.619  0.3250  0.2366 -0.0729
   58DOPE   H8R 7405   6.645   6.968   4.720  0.1731  1.2524  0.3844
   58DOPE   H8S 7406   6.518   7.028   4.619  0.6795  2.7179  0.2903
   58DOPE   C29 7407   6.708   7.132   4.597 -1.1695  0.0059  0.1510
   58DOPE   H9R 7408   6.690   7.184   4.502  1.5882 -0.8524 -0.9648
   58DOPE  C210 7409   6.796   7.182   4.687 -0.4879  0.2259  0.5003
   58DOPE  H10R 7410   6.821   7.289   4.678 -1.9268  0.4717 -1.0596
   58DOPE  C211 7411   6.826   7.124   4.823 -0.5263  0.4374  0.2948
   58DOPE  H11R 7412   6.920   7.173   4.857  0.5624 -2.1403  1.2674
   58DOPE  H11S 7413   6.853   7.016   4.818 -0.1145  0.5025  0.9225
   58DOPE  C212 7414   6.720   7.135   4.933 -0.6178  0.3220 -0.1373
   58DOPE  H12R 7415   6.769   7.096   5.024  0.2856 -0.1592 -0.8088
   58DOPE  H12S 7416   6.635   7.066   4.914  0.0965 -0.3002 -1.1616
   58DOPE  C213 7417   6.668   7.283   4.959  0.5231 -0.3866  0.1685
   58DOPE  H13R 7418   6.651   7.329   4.859  0.0671 -1.5683 -0.3116
   58DOPE  H13S 7419   6.743   7.344   5.014 -0.4496  0.8468  0.1896
   58DOPE  C214 7420   6.523   7.286   5.036  0.4999 -0.2085  0.0409
   58DOPE  H14R 7421   6.458   7.224   4.971  2.4129 -0.9074 -1.2978
   58DOPE  H14S 7422   6.481   7.389   5.031  3.0946  0.9146 -0.4261
   58DOPE  C215 7423   6.529   7.221   5.176  0.2210 -0.8555  0.3641
   58DOPE  H15R 7424   6.591   7.128   5.173  0.5339 -0.7097  1.5385
   58DOPE  H15S 7425   6.425   7.203   5.211 -1.3716  2.5225 -2.1452
   58DOPE  C216 7426   6.590   7.323   5.268  0.1530  0.4045 -0.1994
   58DOPE  H16R 7427   6.526   7.412   5.261 -1.8356 -1.0631 -1.9260
   58DOPE  H16S 7428   6.691   7.356   5.235  0.0939 -0.5168 -1.3699
   58DOPE  C217 7429   6.596   7.291   5.421 -0.0010  0.3694 -0.0511
   58DOPE  H17R 7430   6.662   7.204   5.441  0.6176  0.5935 -1.0526
   58DOPE  H17S 7431   6.491   7.263   5.445 -0.6405  2.4060 -0.2893
   58DOPE  C218 7432   6.634   7.415   5.496  0.6947 -0.3349 -1.0378
   58DOPE  H18R 7433   6.729   7.459   5.461  0.7470  0.7189  0.3280
   58DOPE  H18S 7434   6.655   7.400   5.604 -0.1630  0.2790 -0.7674
   58DOPE  H18T 7435   6.568   7.503   5.481  1.0720  0.4205  1.2524
   58DOPE   C33 7436   6.905   6.459   3.944 -0.1939 -0.5425 -0.0250
   58DOPE   H3X 7437   6.870   6.562   3.961 -0.4399 -0.2313 -2.1346
   58DOPE   H3Y 7438   6.992   6.446   4.012 -0.9669 -2.3824  0.6694
   58DOPE   C34 7439   6.800   6.352   3.986  0.3825  0.1254 -0.0631
   58DOPE   H4X 7440   6.756   6.380   4.085  1.3086 -0.3437  0.4979
   58DOPE   H4Y 7441   6.710   6.348   3.922 -0.6051 -2.6543  1.3630
   58DOPE   C35 7442   6.849   6.211   3.989  0.4729 -0.3484 -0.6053
   58DOPE   H5X 7443   6.941   6.195   4.050  0.7965  1.0451 -0.6793
   58DOPE   H5Y 7444   6.881   6.173   3.890  0.8264  2.8581 -1.8369
   58DOPE   C36 7445   6.743   6.112   4.044  0.2419  0.3628 -0.0348
   58DOPE   H6X 7446   6.642   6.126   4.000  0.9312 -0.0517 -1.8526
   58DOPE   H6Y 7447   6.751   6.132   4.153 -0.0256 -1.4927  0.3656
   58DOPE   C37 7448   6.788   5.965   4.024 -0.0333  0.0005  0.4828
   58DOPE   H7X 7449   6.812   5.944   3.918 -0.8192 -0.6548  0.4215
   58DOPE   H7Y 7450   6.878   5.956   4.088 -0.7279  0.3705  1.5379
   58DOPE   C38 7451   6.675   5.868   4.067  0.4805 -0.0063  0.1039
   58DOPE   H8X 7452   6.581   5.894   4.013  1.0490  0.8680 -0.5060
   58DOPE   H8Y 7453   6.646   5.903   4.168 -2.1700  2.0359 -1.2117
   58DOPE   C39 7454   6.711   5.715   4.056 -0.4208 -1.2515  0.7665
   58DOPE   H9X 7455   6.687   5.683   3.953 -0.0096  1.6359 -0.3223
   58DOPE  C310 7456   6.773   5.643   4.149  0.4954 -0.9522  0.2056
   58DOPE  H10X 7457   6.807   5.540   4.129  1.1827 -0.6524 -0.2500
   58DOPE  C311 7458   6.834   5.696   4.273  0.0032 -0.5185  0.4013
   58DOPE  H11X 7459   6.944   5.692   4.257  0.3888 -1.7326  2.9204
   58DOPE  H11Y 7460   6.815   5.804   4.289 -0.3843 -0.0821 -2.4064
   58DOPE  C312 7461   6.784   5.623   4.395 -0.1136 -0.7131 -0.7930
   58DOPE  H12X 7462   6.805   5.515   4.389 -2.7081 -1.4096  1.0181
   58DOPE  H12Y 7463   6.673   5.627   4.409  0.0995 -2.6683  2.1892
   58DOPE  C313 7464   6.846   5.684   4.527  0.2470  0.0665 -0.2638
   58DOPE  H13X 7465   6.956   5.683   4.512  0.3601  1.5307  0.3778
   58DOPE  H13Y 7466   6.828   5.793   4.530  1.1585  0.2118  0.5732
   58DOPE  C314 7467   6.817   5.607   4.658  0.1147 -0.4675 -0.5835
   58DOPE  H14X 7468   6.864   5.507   4.670 -0.2823 -0.5224  0.5538
   58DOPE  H14Y 7469   6.708   5.590   4.671  0.4035 -2.6167 -0.5987
   58DOPE  C315 7470   6.855   5.697   4.771 -0.5026 -0.1684 -0.0533
   58DOPE  H15X 7471   6.789   5.787   4.772 -1.8985 -1.1651  0.5463
   58DOPE  H15Y 7472   6.961   5.723   4.747 -0.4844 -1.6550 -1.8470
   58DOPE  C316 7473   6.859   5.643   4.911  0.2443 -0.1257 -0.0591
   58DOPE  H16X 7474   6.932   5.561   4.928  0.7893  0.7480  2.1977
   58DOPE  H16Y 7475   6.763   5.599   4.945 -0.5714  1.2302 -0.5286
   58DOPE  C317 7476   6.883   5.749   5.025  0.0404 -0.5858 -0.1808
   58DOPE  H17X 7477   6.904   5.683   5.112 -4.4411 -0.3049  1.3720
   58DOPE  H17Y 7478   6.971   5.814   5.005 -0.9748  0.3585 -1.7497
   58DOPE  C318 7479   6.762   5.840   5.057  0.0598 -0.5526  0.2223
   58DOPE  H18X 7480   6.776   5.910   5.142  0.5775 -0.4499  0.0606
   58DOPE  H18Y 7481   6.759   5.902   4.965  1.2274 -1.5495 -0.5332
   58DOPE  H18Z 7482   6.666   5.784   5.062 -0.2641  0.1349  3.5418
   59DOPE     N 7483   0.364   1.480   2.840 -0.3946  0.0128 -0.5881
   59DOPE   HN1 7484   0.285   1.525   2.787 -1.4123 -2.2555 -1.1113
   59DOPE   HN2 7485   0.448   1.483   2.779 -0.0138 -1.2306 -0.1475
   59DOPE   HN3 7486   0.344   1.378   2.845  0.1039 -0.0172  1.0589
   59DOPE   C12 7487   0.384   1.558   2.966  0.6702 -0.2216  0.1345
   59DOPE  H12A 7488   0.299   1.532   3.032 -0.8469  1.2245 -1.1439
   59DOPE  H12B 7489   0.387   1.667   2.944  0.7806 -0.2487  0.0127
   59DOPE   C11 7490   0.516   1.518   3.033  0.5964  0.9239  0.2441
   59DOPE  H11A 7491   0.524   1.593   3.115  0.3168  1.8606 -0.5579
   59DOPE  H11B 7492   0.594   1.541   2.957  0.7759  0.7176  0.3639
   59DOPE     P 7493   0.643   1.332   3.165  0.0696 -0.3296 -0.1140
   59DOPE   O13 7494   0.727   1.452   3.195  0.0796 -0.0665  0.0208
   59DOPE   O14 7495   0.699   1.223   3.082 -0.2767  0.4158 -0.0776
   59DOPE   O11 7496   0.579   1.273   3.295  0.1891  0.0518 -0.0251
   59DOPE   O12 7497   0.514   1.379   3.081  0.3306 -0.0222 -0.1125
   59DOPE    C1 7498   0.457   1.322   3.362  0.4720  0.3149 -0.8332
   59DOPE    HA 7499   0.368   1.315   3.296  0.7249  2.3998 -1.4818
   59DOPE    HB 7500   0.466   1.431   3.385 -1.0303  0.4891 -1.0095
   59DOPE    C2 7501   0.428   1.242   3.498  0.2821  0.3846 -0.0382
   59DOPE    HS 7502   0.354   1.305   3.553  0.6646  1.4399 -0.6899
   59DOPE   O21 7503   0.551   1.219   3.575 -1.0354 -0.5255  0.2522
   59DOPE   C21 7504   0.627   1.333   3.597 -0.0509 -0.9968  1.0096
   59DOPE   O22 7505   0.573   1.447   3.585 -0.2118  0.5723  0.2210
   59DOPE   C22 7506   0.770   1.306   3.636  0.0206 -0.2942 -0.6167
   59DOPE   H2R 7507   0.833   1.316   3.545 -0.7402 -0.1819 -1.1429
   59DOPE   H2S 7508   0.784   1.197   3.654  1.2795  0.0350  0.5490
   59DOPE    C3 7509   0.357   1.101   3.470  0.6064  0.1498  0.2391
   59DOPE    HX 7510   0.314   1.067   3.566  2.9303 -1.0143  0.9478
   59DOPE    HY 7511   0.442   1.030   3.457  0.2358 -0.5202  1.3652
   59DOPE   O31 7512   0.270   1.109   3.353 -0.4123 -0.2277 -0.6253
   59DOPE   C31 7513   0.144   1.133   3.381  0.3124  0.1803 -0.4214
   59DOPE   O32 7514   0.102   1.166   3.496  0.0770  0.1850  0.8347
   59DOPE   C32 7515   0.057   1.124   3.260  0.5340  0.5005 -0.5575
   59DOPE   H2X 7516  -0.040   1.159   3.301 -0.5925 -2.2388 -0.6288
   59DOPE   H2Y 7517   0.106   1.173   3.173  3.4570 -1.2930 -0.0530
   59DOPE   C23 7518   0.825   1.402   3.749  0.1738 -0.6938 -0.5241
   59DOPE   H3R 7519   0.809   1.512   3.735  3.7651  0.3555  2.1088
   59DOPE   H3S 7520   0.934   1.382   3.751  0.0681 -1.4089  2.3412
   59DOPE   C24 7521   0.758   1.372   3.881  0.3339 -0.8067 -0.1348
   59DOPE   H4R 7522   0.708   1.273   3.887 -0.3492 -0.4755 -0.2954
   59DOPE   H4S 7523   0.689   1.454   3.910  1.1505 -0.4887  0.9661
   59DOPE   C25 7524   0.865   1.364   3.997 -0.0904  0.3397 -0.3550
   59DOPE   H5R 7525   0.921   1.460   4.004 -1.1688  1.3651 -3.8892
   59DOPE   H5S 7526   0.946   1.289   3.983 -0.2659  0.2252 -0.7650
   59DOPE   C26 7527   0.808   1.321   4.135 -0.2092 -0.2148 -0.4393
   59DOPE   H6R 7528   0.757   1.224   4.115  1.3939 -1.0235 -0.8766
   59DOPE   H6S 7529   0.735   1.392   4.179  0.2642 -1.5513  2.7636
   59DOPE   C27 7530   0.913   1.310   4.238 -0.2672 -1.2558 -0.5854
   59DOPE   H7R 7531   0.994   1.385   4.228 -1.8086  1.0210  2.3533
   59DOPE   H7S 7532   0.962   1.210   4.232 -0.1748 -1.3150  0.8845
   59DOPE   C28 7533   0.873   1.325   4.387 -0.3316 -0.4342 -0.5825
   59DOPE   H8R 7534   0.844   1.431   4.409  2.1391 -0.1231  1.7217
   59DOPE   H8S 7535   0.959   1.306   4.455  0.9165  0.6365 -1.8113
   59DOPE   C29 7536   0.762   1.223   4.408 -0.4137 -0.4263  0.1770
   59DOPE   H9R 7537   0.796   1.120   4.431  0.7729  0.2994  1.8683
   59DOPE  C210 7538   0.626   1.247   4.411 -0.4487 -0.4780  0.3429
   59DOPE  H10R 7539   0.561   1.160   4.430 -3.1205  1.2738 -0.3079
   59DOPE  C211 7540   0.558   1.381   4.396  0.3872  0.0967 -0.8982
   59DOPE  H11R 7541   0.527   1.392   4.290 -0.9007  0.1672 -0.5249
   59DOPE  H11S 7542   0.623   1.463   4.435 -1.0928  0.4622  0.9336
   59DOPE  C212 7543   0.419   1.406   4.477  0.2891 -0.7170  0.5150
   59DOPE  H12R 7544   0.346   1.327   4.449  0.4671 -0.8076  0.3049
   59DOPE  H12S 7545   0.369   1.501   4.449 -1.4125 -1.7216 -0.0156
   59DOPE  C213 7546   0.434   1.407   4.631 -0.5168  0.6840  0.3342
   59DOPE  H13R 7547   0.500   1.490   4.662  1.6514 -1.0616  0.6338
   59DOPE  H13S 7548   0.484   1.310   4.652 -1.5050 -0.0205 -0.4449
   59DOPE  C214 7549   0.300   1.424   4.707  0.3722  0.5264 -0.4537
   59DOPE  H14R 7550   0.219   1.396   4.636  0.0213  0.4687 -0.0353
   59DOPE  H14S 7551   0.264   1.529   4.716 -1.7694 -0.2325  0.4291
   59DOPE  C215 7552   0.304   1.364   4.846  0.2936 -0.3351 -0.3814
   59DOPE  H15R 7553   0.399   1.385   4.899 -0.4469 -2.3443  1.9424
   59DOPE  H15S 7554   0.309   1.254   4.834  2.5502 -0.5157  1.4820
   59DOPE  C216 7555   0.187   1.405   4.931  0.1749 -0.0482 -0.9646
   59DOPE  H16R 7556   0.095   1.401   4.870 -1.3664 -0.8621  1.2846
   59DOPE  H16S 7557   0.195   1.513   4.957  0.4249 -0.0710 -0.9386
   59DOPE  C217 7558   0.165   1.311   5.052  0.4513  0.1908  0.1796
   59DOPE  H17R 7559   0.171   1.204   5.023  0.1188 -0.2178  1.5618
   59DOPE  H17S 7560   0.060   1.333   5.080  0.4659  3.4660 -1.8384
   59DOPE  C218 7561   0.262   1.333   5.165  0.6033 -0.1848 -0.3083
   59DOPE  H18R 7562   0.364   1.297   5.137  0.2322 -0.5216 -1.2743
   59DOPE  H18S 7563   0.228   1.291   5.262 -0.8710  1.5846 -0.0147
   59DOPE  H18T 7564   0.283   1.442   5.173  0.6044  0.0345 -2.6579
   59DOPE   C33 7565   0.042   0.971   3.224 -0.2931 -0.7332  0.3524
   59DOPE   H3X 7566   0.142   0.930   3.196  0.2230  0.0599  0.9812
   59DOPE   H3Y 7567  -0.026   0.968   3.137 -0.9967  0.3530  0.8456
   59DOPE   C34 7568  -0.024   0.882   3.326  0.0256 -0.2070 -0.5057
   59DOPE   H4X 7569   0.043   0.804   3.369 -0.3595 -1.1076 -1.4915
   59DOPE   H4Y 7570  -0.064   0.933   3.416  0.9969  0.3549 -0.3758
   59DOPE   C35 7571  -0.143   0.815   3.262  0.7081  0.7448 -0.1421
   59DOPE   H5X 7572  -0.109   0.755   3.175  0.4630 -1.8782  1.4763
   59DOPE   H5Y 7573  -0.219   0.891   3.231 -0.3765 -0.6696 -1.0814
   59DOPE   C36 7574  -0.220   0.713   3.351  0.2433  0.2949 -0.0438
   59DOPE   H6X 7575  -0.245   0.759   3.449  1.3228  1.3640 -0.2369
   59DOPE   H6Y 7576  -0.154   0.626   3.372  2.2943  1.4442 -1.3751
   59DOPE   C37 7577  -0.355   0.661   3.306 -1.2847  0.2121  0.3529
   59DOPE   H7X 7578  -0.419   0.752   3.311 -0.8730  0.4477  1.6785
   59DOPE   H7Y 7579  -0.347   0.621   3.203 -3.6782 -1.0467  0.5921
   59DOPE   C38 7580  -0.405   0.554   3.400 -0.1758 -0.1730  0.8321
   59DOPE   H8X 7581  -0.514   0.555   3.420 -0.4269  1.7986 -0.3736
   59DOPE   H8Y 7582  -0.362   0.585   3.498 -0.5816  0.3969  0.8369
   59DOPE   C39 7583  -0.349   0.415   3.365 -0.1436 -0.3643  0.0407
   59DOPE   H9X 7584  -0.318   0.397   3.261 -1.7139 -1.2994 -0.2981
   59DOPE  C310 7585  -0.339   0.316   3.458 -0.6440  0.0868 -0.1076
   59DOPE  H10X 7586  -0.304   0.215   3.429 -0.3070 -0.3542  1.6900
   59DOPE  C311 7587  -0.378   0.320   3.600  0.0730  0.1845 -0.1631
   59DOPE  H11X 7588  -0.284   0.336   3.657 -0.1724 -2.2364  1.0276
   59DOPE  H11Y 7589  -0.445   0.405   3.628 -0.8697 -0.7689  0.5369
   59DOPE  C312 7590  -0.445   0.190   3.645 -0.5634  0.4517 -0.4624
   59DOPE  H12X 7591  -0.369   0.111   3.630 -0.4743  0.4043  0.1791
   59DOPE  H12Y 7592  -0.529   0.169   3.576 -0.6421  0.9613 -0.5248
   59DOPE  C313 7593  -0.500   0.181   3.788  0.3535  0.3049  0.4780
   59DOPE  H13X 7594  -0.599   0.232   3.790  0.1999 -0.0180  1.5563
   59DOPE  H13Y 7595  -0.517   0.074   3.809  0.1471  0.5524  1.6503
   59DOPE  C314 7596  -0.408   0.247   3.889 -0.8593  0.3013  0.5037
   59DOPE  H14X 7597  -0.423   0.356   3.873 -1.4379  0.0216 -0.9505
   59DOPE  H14Y 7598  -0.301   0.222   3.870 -0.5702  0.4212  1.8426
   59DOPE  C315 7599  -0.424   0.212   4.039  0.1992  0.1296  0.3946
   59DOPE  H15X 7600  -0.420   0.102   4.054 -2.5989 -0.6515 -3.1290
   59DOPE  H15Y 7601  -0.521   0.245   4.083  1.0780  1.1013  1.6835
   59DOPE  C316 7602  -0.313   0.281   4.116  0.4768 -0.1924 -0.3098
   59DOPE  H16X 7603  -0.330   0.391   4.117 -1.1691 -0.4344  0.2856
   59DOPE  H16Y 7604  -0.213   0.281   4.065  0.2317 -0.5032 -0.7991
   59DOPE  C317 7605  -0.307   0.238   4.263 -0.2178 -0.0827  0.7017
   59DOPE  H17X 7606  -0.275   0.132   4.251  0.3461 -0.0226  1.5821
   59DOPE  H17Y 7607  -0.221   0.287   4.314  0.5996 -0.5255 -0.2182
   59DOPE  C318 7608  -0.435   0.261   4.345  0.0972 -0.0506 -0.1169
   59DOPE  H18X 7609  -0.437   0.210   4.444 -0.2309 -3.5294 -1.8012
   59DOPE  H18Y 7610  -0.436   0.371   4.362  1.2835 -0.0036 -0.2959
   59DOPE  H18Z 7611  -0.528   0.233   4.292 -1.4107  0.8882  1.8861
   60DOPE     N 7612   7.532   7.652   2.490 -0.0355  0.5245  0.4871
   60DOPE   HN1 7613   7.555   7.636   2.389 -0.9466 -0.9279  0.4846
   60DOPE   HN2 7614   7.603   7.713   2.535  1.3852  0.5338 -1.5843
   60DOPE   HN3 7615   7.551   7.560   2.536 -1.6476 -0.5115 -0.7901
   60DOPE   C12 7616   7.393   7.690   2.520 -0.1366 -0.0363  0.1361
   60DOPE  H12A 7617   7.328   7.604   2.494  0.6114 -0.3654 -0.6939
   60DOPE  H12B 7618   7.357   7.761   2.442 -0.9380 -0.8213 -0.2268
   60DOPE   C11 7619   7.371   7.752   2.659 -0.5033  0.1478 -0.2034
   60DOPE  H11A 7620   7.434   7.844   2.662  1.3891 -1.0833  0.1705
   60DOPE  H11B 7621   7.425   7.695   2.738 -0.2557  2.0019  1.0259
   60DOPE     P 7622   7.148   7.662   2.743 -0.2721  0.1565  0.0079
   60DOPE   O13 7623   7.147   7.543   2.655 -0.4731  0.0522 -0.2392
   60DOPE   O14 7624   7.015   7.718   2.775 -0.1174  1.0561 -0.3810
   60DOPE   O11 7625   7.221   7.638   2.877 -0.2131  0.0422 -0.5337
   60DOPE   O12 7626   7.233   7.779   2.676  0.2348 -0.2494 -0.0833
   60DOPE    C1 7627   7.246   7.748   2.967  0.3625 -0.0356 -0.3928
   60DOPE    HA 7628   7.207   7.846   2.932  2.7355  1.1991  0.2186
   60DOPE    HB 7629   7.354   7.759   2.992  0.3786 -0.8675 -0.0511
   60DOPE    C2 7630   7.170   7.719   3.097  0.0660 -0.4475 -1.1795
   60DOPE    HS 7631   7.197   7.806   3.161  0.3930 -0.7512 -0.9000
   60DOPE   O21 7632   7.215   7.594   3.153  0.0105 -0.0886 -0.2320
   60DOPE   C21 7633   7.242   7.599   3.284  0.0711 -0.0529 -0.1881
   60DOPE   O22 7634   7.244   7.699   3.356 -0.0273 -0.5417  0.5068
   60DOPE   C22 7635   7.262   7.455   3.335 -0.5397 -0.1123  0.1323
   60DOPE   H2R 7636   7.333   7.453   3.420  0.2722  0.7901 -0.5094
   60DOPE   H2S 7637   7.315   7.408   3.250 -0.0461  1.8168 -0.6985
   60DOPE    C3 7638   7.013   7.733   3.092 -0.1104 -0.2779 -0.3566
   60DOPE    HX 7639   6.988   7.641   3.035  2.4567 -1.2823  0.0306
   60DOPE    HY 7640   6.987   7.821   3.029  0.2454  0.9460  1.1590
   60DOPE   O31 7641   6.950   7.742   3.218  0.2080  0.1414  0.5434
   60DOPE   C31 7642   6.957   7.852   3.287  0.1257 -0.2784 -0.2980
   60DOPE   O32 7643   7.005   7.960   3.253  0.0478 -0.2297 -0.3557
   60DOPE   C32 7644   6.872   7.832   3.418 -0.1065  0.2929 -0.4388
   60DOPE   H2X 7645   6.790   7.771   3.374  1.6835 -1.1050 -1.9618
   60DOPE   H2Y 7646   6.930   7.765   3.484 -0.8623  0.5549  0.5233
   60DOPE   C23 7647   7.125   7.392   3.354 -0.4322  0.3480 -0.0639
   60DOPE   H3R 7648   7.143   7.283   3.367  1.2165  0.7130  1.0283
   60DOPE   H3S 7649   7.059   7.403   3.265  1.1505  1.1515 -1.1875
   60DOPE   C24 7650   7.050   7.430   3.478 -0.4855  0.1996 -0.3177
   60DOPE   H4R 7651   6.971   7.352   3.479 -0.3938  0.0871  1.1607
   60DOPE   H4S 7652   6.999   7.529   3.482  0.1083  0.4881  2.0308
   60DOPE   C25 7653   7.122   7.385   3.606  0.4608 -0.7764  0.2810
   60DOPE   H5R 7654   7.179   7.291   3.592  0.2785 -0.6339 -1.7147
   60DOPE   H5S 7655   7.055   7.356   3.690  2.4264 -2.2304  1.4029
   60DOPE   C26 7656   7.205   7.494   3.675 -0.1852  0.4029 -0.2920
   60DOPE   H6R 7657   7.141   7.584   3.691 -1.0059 -0.2381  0.1326
   60DOPE   H6S 7658   7.284   7.539   3.611 -0.1547 -1.3636 -1.5501
   60DOPE   C27 7659   7.277   7.451   3.804  0.3924 -0.9163  0.1824
   60DOPE   H7R 7660   7.361   7.518   3.829  0.1253 -0.7816  0.7366
   60DOPE   H7S 7661   7.344   7.363   3.795  1.9627  0.3781 -1.2469
   60DOPE   C28 7662   7.198   7.408   3.928 -0.0421  0.2045 -0.0010
   60DOPE   H8R 7663   7.269   7.368   4.004 -0.6654  0.5871  0.7932
   60DOPE   H8S 7664   7.136   7.319   3.902  0.9915 -0.9535  1.3130
   60DOPE   C29 7665   7.104   7.513   3.986  0.2277 -0.5762  0.1453
   60DOPE   H9R 7666   7.070   7.583   3.908 -0.6695  0.8210  1.7233
   60DOPE  C210 7667   7.062   7.531   4.106 -0.1905 -0.0445 -0.0281
   60DOPE  H10R 7668   7.016   7.629   4.127  0.4216  0.1676  0.3600
   60DOPE  C211 7669   7.086   7.437   4.222  0.2703 -1.0164 -0.3398
   60DOPE  H11R 7670   7.160   7.362   4.184  0.8153  0.4894 -2.4568
   60DOPE  H11S 7671   6.990   7.383   4.234  1.4199 -2.8902  1.0426
   60DOPE  C212 7672   7.124   7.512   4.360 -0.3908 -0.1491  0.2421
   60DOPE  H12R 7673   7.212   7.576   4.337  0.9569 -1.8742  0.4357
   60DOPE  H12S 7674   7.149   7.432   4.432  1.2190 -0.3303 -0.4744
   60DOPE  C213 7675   7.017   7.613   4.420 -0.2112  0.0538  0.1406
   60DOPE  H13R 7676   6.923   7.555   4.407 -1.3975  2.2300 -1.7636
   60DOPE  H13S 7677   7.001   7.712   4.371  0.9337 -1.2553 -3.1483
   60DOPE  C214 7678   7.036   7.630   4.567  0.9807  0.3920 -0.1635
   60DOPE  H14R 7679   7.146   7.646   4.577  0.9951  1.0882 -1.2495
   60DOPE  H14S 7680   7.012   7.533   4.616  0.2689  0.1625 -0.9481
   60DOPE  C215 7681   6.953   7.740   4.625 -0.2951 -0.4048 -0.0235
   60DOPE  H15R 7682   6.982   7.834   4.574 -2.6765 -0.1532 -1.0135
   60DOPE  H15S 7683   6.988   7.761   4.729 -0.1832  2.7024 -0.6110
   60DOPE  C216 7684   6.793   7.738   4.624 -0.0263 -0.1450 -1.0824
   60DOPE  H16R 7685   6.759   7.718   4.520  0.1976 -1.9040 -0.8512
   60DOPE  H16S 7686   6.758   7.841   4.648  2.0721  0.3009  0.3167
   60DOPE  C217 7687   6.744   7.641   4.729  0.4274  0.4021  0.4850
   60DOPE  H17R 7688   6.760   7.694   4.825 -1.3828  1.6776  0.1347
   60DOPE  H17S 7689   6.804   7.547   4.728 -0.4224 -0.1695  0.8488
   60DOPE  C218 7690   6.594   7.599   4.714  0.2635  0.2767  0.5522
   60DOPE  H18R 7691   6.576   7.530   4.629  1.4904 -0.0333  0.5274
   60DOPE  H18S 7692   6.536   7.692   4.732 -0.5244 -0.4877  2.0590
   60DOPE  H18T 7693   6.572   7.537   4.803 -0.4349 -1.0729 -0.5105
   60DOPE   C33 7694   6.809   7.955   3.477  0.5402 -0.4222  0.0516
   60DOPE   H3X 7695   6.734   7.922   3.552  0.1186  0.2899 -0.0397
   60DOPE   H3Y 7696   6.759   8.025   3.407 -0.8103  0.5180  1.8839
   60DOPE   C34 7697   6.913   8.028   3.565 -0.0490  0.9372 -0.1615
   60DOPE   H4X 7698   6.936   7.948   3.638 -0.9677 -1.5230 -2.3879
   60DOPE   H4Y 7699   7.003   8.055   3.506 -0.1864  1.3597 -0.1800
   60DOPE   C35 7700   6.871   8.157   3.631  0.2931 -0.6899  0.2807
   60DOPE   H5X 7701   6.786   8.144   3.701  0.4240 -0.0452  0.5680
   60DOPE   H5Y 7702   6.848   8.233   3.553  1.2635 -0.1713  0.4757
   60DOPE   C36 7703   6.994   8.219   3.701 -0.0989 -0.0198 -0.0695
   60DOPE   H6X 7704   7.065   8.253   3.623 -1.2301  3.8541  0.3692
   60DOPE   H6Y 7705   7.050   8.147   3.765 -0.9200 -0.8645 -0.2792
   60DOPE   C37 7706   6.948   8.340   3.791 -0.0593  0.1274  0.4608
   60DOPE   H7X 7707   6.875   8.401   3.733 -0.0488 -0.6195 -0.3671
   60DOPE   H7Y 7708   6.896   8.298   3.879  4.0226 -1.1414  2.5310
   60DOPE   C38 7709   7.059   8.432   3.840 -0.2363  0.4458  0.5495
   60DOPE   H8X 7710   7.020   8.513   3.904 -0.6891  0.2331  0.5427
   60DOPE   H8Y 7711   7.112   8.474   3.752  1.1546 -0.8517  0.7076
   60DOPE   C39 7712   7.164   8.354   3.922 -0.1963 -0.5691 -0.6043
   60DOPE   H9X 7713   7.115   8.292   4.000 -0.6279  0.8275  0.2624
   60DOPE  C310 7714   7.297   8.334   3.894  0.2910  0.0192  0.6487
   60DOPE  H10X 7715   7.358   8.278   3.966  0.8787 -2.7084 -1.7843
   60DOPE  C311 7716   7.377   8.394   3.787 -0.3523 -0.1850 -0.2805
   60DOPE  H11X 7717   7.427   8.314   3.729 -0.5325 -1.1102  0.7878
   60DOPE  H11Y 7718   7.317   8.460   3.721 -0.8441 -1.4087 -1.0888
   60DOPE  C312 7719   7.499   8.468   3.838  0.3672 -0.2317 -0.2325
   60DOPE  H12X 7720   7.558   8.404   3.906  2.2123 -0.0113 -1.5586
   60DOPE  H12Y 7721   7.472   8.560   3.894  0.1867 -1.2632  1.4337
   60DOPE  C313 7722   7.599   8.489   3.730  0.3077  0.0393  0.3572
   60DOPE  H13X 7723   7.632   8.394   3.682  0.9111  0.1449  0.5557
   60DOPE  H13Y 7724   7.568   8.547   3.641  0.0685 -0.6517 -0.0170
   60DOPE  C314 7725   7.728   8.541   3.794 -0.7634  0.6875  0.4764
   60DOPE  H14X 7726   7.812   8.508   3.730 -2.4275 -2.4066 -0.3156
   60DOPE  H14Y 7727   7.754   8.502   3.895  1.6191  1.7996  0.3584
   60DOPE  C315 7728   7.722   8.687   3.832 -0.3552  0.2894 -0.2509
   60DOPE  H15X 7729   7.632   8.701   3.896  0.3257 -2.8432  1.5601
   60DOPE  H15Y 7730   7.713   8.748   3.739 -0.6349  1.8452  0.7464
   60DOPE  C316 7731   7.837   8.738   3.916  0.0100 -0.1481  0.2404
   60DOPE  H16X 7732   7.857   8.665   3.996  1.4175  0.1245  0.1641
   60DOPE  H16Y 7733   7.804   8.836   3.957  0.2769  0.6007 -1.2510
   60DOPE  C317 7734   7.970   8.766   3.838  0.3202  0.3057  0.6559
   60DOPE  H17X 7735   8.012   8.667   3.809  2.3489  1.6729 -1.3595
   60DOPE  H17Y 7736   7.938   8.828   3.752 -0.2028 -1.0381 -0.1592
   60DOPE  C318 7737   8.074   8.854   3.906  0.4543  0.2266 -0.1928
   60DOPE  H18X 7738   8.169   8.862   3.848  0.8827  1.0318  0.6044
   60DOPE  H18Y 7739   8.032   8.957   3.913 -2.1848 -0.8794  2.3022
   60DOPE  H18Z 7740   8.096   8.819   4.009 -0.3119  0.0567 -0.0808
   6123SM     N 7741   3.183   4.837   7.514  0.0185 -0.5500  0.3815
   6123SM   C15 7742   3.115   4.960   7.566  0.0531  0.5510 -0.2054
   6123SM  H15A 7743   3.154   5.045   7.512  2.8907 -2.6992 -3.9444
   6123SM  H15B 7744   3.132   4.970   7.672  0.4339 -1.6753 -0.0010
   6123SM  H15C 7745   3.010   4.951   7.545 -0.0039 -2.8180  0.9028
   6123SM   C14 7746   3.329   4.856   7.513  0.4083  0.4313 -0.1616
   6123SM  H14A 7747   3.362   4.899   7.606 -0.7006  0.7235  0.1114
   6123SM  H14B 7748   3.358   4.923   7.434  0.1866 -1.5897 -2.0629
   6123SM  H14C 7749   3.378   4.763   7.491 -2.4081 -0.8509 -1.5859
   6123SM   C13 7750   3.161   4.728   7.608 -0.9318 -0.2565 -0.1466
   6123SM  H13A 7751   3.222   4.738   7.697 -0.3300 -0.2802 -0.5559
   6123SM  H13B 7752   3.188   4.639   7.554  1.6216  0.7313 -0.6104
   6123SM  H13C 7753   3.059   4.731   7.643 -1.4589  0.7249 -1.6504
   6123SM   C12 7754   3.150   4.799   7.371  0.3162  0.1407  0.3436
   6123SM  H12A 7755   3.208   4.710   7.349 -0.0934  0.0818 -0.5626
   6123SM  H12B 7756   3.184   4.870   7.296  2.9519 -1.5741 -0.2295
   6123SM   C11 7757   3.000   4.757   7.339  0.3572 -0.4656 -0.3975
   6123SM  H11A 7758   2.978   4.682   7.418 -1.2762 -0.6287 -0.9761
   6123SM  H11B 7759   3.014   4.716   7.237  0.2460 -4.4854  1.0343
   6123SM     P 7760   2.861   4.953   7.212  0.0455  0.2371 -0.1712
   6123SM   O13 7761   2.742   4.885   7.153 -0.4251  0.0595  0.1076
   6123SM   O14 7762   2.845   5.092   7.264 -0.6222 -0.6827 -0.2927
   6123SM   O11 7763   2.987   4.947   7.117 -0.0728 -0.2338  0.3481
   6123SM   O12 7764   2.905   4.864   7.338  0.2864  0.4126  0.1331
   6123SM   C1S 7765   2.999   4.881   6.990 -0.0952 -0.8906  0.8842
   6123SM   H1S 7766   2.901   4.836   6.963 -1.4575  1.8524  0.8112
   6123SM   H1T 7767   3.064   4.792   6.985 -0.3174 -1.0946  1.5408
   6123SM    NF 7768   3.011   4.927   6.733  0.0611  0.0632  0.0929
   6123SM   HNF 7769   3.093   4.916   6.677  0.9984  0.7761  1.2644
   6123SM   C2S 7770   3.034   4.979   6.872 -0.2539  0.0821  0.2058
   6123SM   H2S 7771   2.967   5.067   6.883  1.7765  1.8665 -0.9378
   6123SM   C3S 7772   3.172   5.035   6.906 -0.4153 -0.7061  0.5515
   6123SM   H3S 7773   3.244   4.952   6.890 -0.6224 -0.9309  0.7741
   6123SM    O3 7774   3.200   5.079   7.037  0.2741 -0.2470 -0.4598
   6123SM   HO3 7775   3.115   5.064   7.081  0.4324  2.5919  1.0653
   6123SM   C4S 7776   3.224   5.137   6.810  0.1837  0.4270  0.1918
   6123SM   H4S 7777   3.179   5.237   6.822  1.8542  1.2492 -0.0296
   6123SM   C5S 7778   3.315   5.130   6.707 -0.0981  0.5708 -0.7132
   6123SM   H5S 7779   3.367   5.036   6.687  2.2215  1.6267 -0.0409
   6123SM   C6S 7780   3.347   5.237   6.612  0.2928 -0.3829 -0.1589
   6123SM   H6S 7781   3.417   5.316   6.648 -1.3394  1.0725 -0.0271
   6123SM   H6T 7782   3.252   5.291   6.589 -1.0274 -1.9950  1.2512
   6123SM   C7S 7783   3.400   5.180   6.480 -0.1236  0.1848 -0.8719
   6123SM   H7S 7784   3.318   5.117   6.438  0.1291  1.7263 -3.9351
   6123SM   H7T 7785   3.494   5.126   6.501 -0.0391  0.7594  0.2538
   6123SM   C8S 7786   3.446   5.294   6.392 -0.2525 -0.2422 -0.5055
   6123SM   H8S 7787   3.521   5.352   6.449 -0.8031  3.3186 -3.0987
   6123SM   H8T 7788   3.362   5.366   6.379  0.3730  1.0500  2.0837
   6123SM   C9S 7789   3.489   5.243   6.255 -0.3054  0.0783  0.3527
   6123SM   H9S 7790   3.477   5.320   6.176  0.3096 -1.1121 -0.9377
   6123SM   H9T 7791   3.437   5.150   6.226 -0.7080  0.6278 -0.7409
   6123SM  C10S 7792   3.641   5.208   6.249 -0.1281 -0.4754 -0.2300
   6123SM  H10S 7793   3.650   5.115   6.309  1.9342 -0.7594 -0.8853
   6123SM  H10T 7794   3.694   5.293   6.297 -2.4362 -0.2886  2.2309
   6123SM  C11S 7795   3.694   5.177   6.106 -0.5523 -0.5871  0.6025
   6123SM  H11S 7796   3.648   5.084   6.066 -0.0927 -0.9642  0.9364
   6123SM  H11T 7797   3.799   5.146   6.121  0.1728  0.8352 -1.1604
   6123SM  C12S 7798   3.691   5.278   5.998 -0.1936 -0.1899 -0.3110
   6123SM  H12S 7799   3.763   5.361   6.017  1.1820 -0.6739 -3.0133
   6123SM  H12T 7800   3.591   5.322   5.980 -0.7958  0.5717  3.7629
   6123SM  C13S 7801   3.739   5.206   5.870 -0.3778 -0.2174 -0.2569
   6123SM  H13S 7802   3.662   5.134   5.837 -0.8697  0.6200 -0.9863
   6123SM  H13T 7803   3.839   5.157   5.879  0.6391  1.8368  0.2821
   6123SM  C14S 7804   3.758   5.311   5.761 -0.0578  0.1276  0.2131
   6123SM  H14S 7805   3.829   5.389   5.794 -0.6105  1.5120 -1.6775
   6123SM  H14T 7806   3.658   5.359   5.749 -0.1911 -0.5881 -2.0444
   6123SM  C15S 7807   3.799   5.256   5.630  0.1255  0.8026 -0.2071
   6123SM  H15S 7808   3.733   5.168   5.610 -0.1143  0.0946  3.0650
   6123SM  H15T 7809   3.902   5.216   5.635  0.9555  2.3110 -3.0830
   6123SM  C16S 7810   3.790   5.371   5.525  0.9805  0.7054 -0.3038
   6123SM  H16S 7811   3.841   5.462   5.563 -0.2369  1.4566 -0.4203
   6123SM  H16T 7812   3.680   5.387   5.519  1.0956  2.5209  1.3616
   6123SM  C17S 7813   3.846   5.324   5.395 -0.6447  0.1623  0.6080
   6123SM  H17S 7814   3.811   5.221   5.371 -0.3136 -0.0771  1.1277
   6123SM  H17T 7815   3.957   5.316   5.394 -0.6204  0.3198 -0.8795
   6123SM  C18S 7816   3.799   5.405   5.273  0.2172  0.1335 -0.3533
   6123SM  H18S 7817   3.691   5.397   5.247  0.4398 -0.5255 -1.1310
   6123SM  H18T 7818   3.860   5.379   5.184  2.1271  3.2438 -0.1014
   6123SM  H18U 7819   3.821   5.512   5.291  1.8437 -0.2561  0.1337
   6123SM   C1F 7820   2.890   4.893   6.702  0.1682  0.4763 -0.4019
   6123SM    OF 7821   2.796   4.931   6.772 -0.3513  0.2839  0.0969
   6123SM   C2F 7822   2.876   4.815   6.579  0.8054 -0.2542  0.2688
   6123SM   H2F 7823   2.919   4.715   6.599  0.8339 -0.3597 -0.2927
   6123SM   H2G 7824   2.936   4.867   6.501 -1.6559  0.2931 -1.3696
   6123SM   C3F 7825   2.729   4.786   6.529 -0.0817  1.0904 -0.6996
   6123SM   H3F 7826   2.673   4.876   6.495 -0.2889  1.0669 -0.4197
   6123SM   H3G 7827   2.672   4.741   6.613  1.1125  0.3383 -0.2525
   6123SM   C4F 7828   2.726   4.679   6.412 -0.5243 -0.2009 -0.3350
   6123SM   H4F 7829   2.623   4.647   6.388 -0.5576 -1.7171  1.5804
   6123SM   H4G 7830   2.780   4.591   6.452  0.7831  1.2028  1.1466
   6123SM   C5F 7831   2.795   4.723   6.281  0.0933 -0.2141  0.2446
   6123SM   H5F 7832   2.777   4.646   6.204 -0.8373  0.5145 -0.2864
   6123SM   H5G 7833   2.905   4.732   6.296  0.0681 -2.0848  1.9954
   6123SM   C6F 7834   2.725   4.847   6.221 -0.1712  0.3141 -0.1972
   6123SM   H6F 7835   2.734   4.934   6.289 -0.9873  0.6171 -0.4649
   6123SM   H6G 7836   2.616   4.829   6.213 -0.6009  2.4865  0.1810
   6123SM   C7F 7837   2.776   4.883   6.083 -0.0703 -0.4738 -0.2117
   6123SM   H7F 7838   2.887   4.896   6.077 -0.1411  0.5463  0.4828
   6123SM   H7G 7839   2.741   4.987   6.069  0.9072  0.0805  1.1973
   6123SM   C8F 7840   2.737   4.790   5.973  0.1247  0.0775 -0.4367
   6123SM   H8F 7841   2.626   4.798   5.971 -0.0481 -1.9415 -0.5546
   6123SM   H8G 7842   2.759   4.684   5.998 -2.4895  0.0902  2.4463
   6123SM   C9F 7843   2.785   4.824   5.830 -0.0269  0.1145 -0.4868
   6123SM   H9F 7844   2.754   4.739   5.766 -1.1382 -1.1496  1.5947
   6123SM   H9G 7845   2.896   4.819   5.825 -0.0970 -0.9735 -1.0692
   6123SM  C10F 7846   2.737   4.960   5.781 -0.0053 -0.1043  0.2590
   6123SM  H10F 7847   2.797   5.045   5.820  1.8485  0.0801 -2.7263
   6123SM  H10G 7848   2.636   4.998   5.808 -0.5971 -2.4619  1.6057
   6123SM  C11F 7849   2.740   4.946   5.624 -0.5068  0.0072 -0.0965
   6123SM  H11F 7850   2.701   5.042   5.583  0.4858 -0.3491 -1.9969
   6123SM  H11G 7851   2.672   4.867   5.586 -0.2091  0.4893 -1.7251
   6123SM  C12F 7852   2.883   4.931   5.567 -0.3488 -0.6091  0.2605
   6123SM  H12F 7853   2.931   4.842   5.613 -0.4456 -1.4293 -1.1601
   6123SM  H12G 7854   2.944   5.022   5.585  0.2327 -0.8270 -0.5658
   6123SM  C13F 7855   2.883   4.888   5.415  0.1139 -0.1288 -0.0651
   6123SM  H13F 7856   2.805   4.812   5.396  2.1503 -1.9534 -1.6123
   6123SM  H13G 7857   2.984   4.854   5.385  2.3657  2.8241  3.3257
   6123SM  C14F 7858   2.847   5.003   5.314  0.3298  0.6515 -0.3379
   6123SM  H14F 7859   2.924   5.080   5.336  0.9471 -0.4143  1.4138
   6123SM  H14G 7860   2.756   5.051   5.356  0.3753  0.0746  0.4392
   6123SM  C15F 7861   2.837   4.960   5.169 -0.2010  0.0488  0.4631
   6123SM  H15F 7862   2.758   4.885   5.147  0.3181 -0.3665 -0.0325
   6123SM  H15G 7863   2.938   4.935   5.129 -1.1797 -0.7728 -1.6439
   6123SM  C16F 7864   2.794   5.085   5.092 -1.1157  0.4050 -0.7148
   6123SM  H16F 7865   2.869   5.162   5.118  0.2458 -1.9111  2.9023
   6123SM  H16G 7866   2.692   5.123   5.117 -0.9012  0.8009 -0.4440
   6123SM  C17F 7867   2.806   5.053   4.945  0.3883 -0.1670  0.1251
   6123SM  H17F 7868   2.735   4.973   4.918 -1.2209  1.2864 -0.1398
   6123SM  H17G 7869   2.908   5.014   4.926  0.4245 -0.8910  1.6957
   6123SM  C18F 7870   2.799   5.182   4.855  0.5266  0.0545  0.4199
   6123SM  H18F 7871   2.867   5.260   4.893  0.2134 -0.1036  1.3411
   6123SM  H18G 7872   2.692   5.210   4.843 -0.2765 -2.8415  0.0515
   6123SM  C19F 7873   2.854   5.149   4.713  0.1223 -0.6472  0.5080
   6123SM  H19F 7874   2.953   5.100   4.728 -0.4929 -1.8007  0.9657
   6123SM  H19G 7875   2.864   5.248   4.665  1.6771 -1.1588 -0.3090
   6123SM  C20F 7876   2.756   5.071   4.624  0.0562 -0.1173 -0.0381
   6123SM  H20F 7877   2.656   5.114   4.602  0.6013 -0.1406 -2.9919
   6123SM  H20G 7878   2.748   4.967   4.663 -0.2846 -0.3290 -0.6564
   6123SM  C21F 7879   2.803   5.069   4.475  0.6373  0.0671 -0.1525
   6123SM  H21F 7880   2.904   5.024   4.484  0.8465  0.7526  1.1396
   6123SM  H21G 7881   2.810   5.177   4.448  0.1723  0.9884  3.0602
   6123SM  C22F 7882   2.720   4.998   4.368 -0.0628  0.3700  0.3724
   6123SM  H22F 7883   2.614   5.031   4.377 -0.3483  0.7845 -3.0878
   6123SM  H22G 7884   2.736   4.889   4.384  0.5570  0.0971 -1.8312
   6123SM  C23F 7885   2.760   5.008   4.218  0.1157 -0.6277 -0.0886
   6123SM  H23F 7886   2.696   4.938   4.160  0.6940  1.4433 -3.5431
   6123SM  H23G 7887   2.868   4.993   4.199 -0.4197 -3.1006 -1.6187
   6123SM  H23H 7888   2.732   5.107   4.175  1.3644 -0.9637 -1.7920
   6223SM     N 7889   3.157   4.014   7.390 -0.1898  0.7895 -0.0604
   6223SM   C15 7890   3.163   4.120   7.487  0.2529  0.0032  0.4050
   6223SM  H15A 7891   3.261   4.152   7.520  0.1831  1.0169 -0.3193
   6223SM  H15B 7892   3.101   4.097   7.573 -2.7599 -0.2218 -1.6779
   6223SM  H15C 7893   3.122   4.212   7.448  1.0034  0.9655  1.7678
   6223SM   C14 7894   3.209   3.890   7.454 -1.4266  0.0673  0.3261
   6223SM  H14A 7895   3.227   3.809   7.385  0.7976 -0.7564  1.7464
   6223SM  H14B 7896   3.138   3.861   7.530 -1.1306 -0.7094  0.3151
   6223SM  H14C 7897   3.307   3.912   7.494 -2.0094 -0.6254  2.2220
   6223SM   C13 7898   3.013   4.008   7.348 -0.5917  0.3815 -0.3776
   6223SM  H13A 7899   2.949   4.016   7.435 -1.4725 -1.0515 -0.8677
   6223SM  H13B 7900   2.990   3.919   7.292  1.0964 -1.1501  1.2111
   6223SM  H13C 7901   2.995   4.099   7.292 -0.4381  0.3879 -0.4157
   6223SM   C12 7902   3.248   4.045   7.267 -0.0138 -0.0986  0.0769
   6223SM  H12A 7903   3.231   3.963   7.198  0.8326  0.4166 -0.7642
   6223SM  H12B 7904   3.354   4.028   7.278  0.5464  1.3958 -2.2074
   6223SM   C11 7905   3.232   4.177   7.198 -0.4156 -0.0618 -0.0421
   6223SM  H11A 7906   3.130   4.183   7.153  0.6329  0.9243 -2.4166
   6223SM  H11B 7907   3.302   4.177   7.112 -0.0815 -2.9759  0.1065
   6223SM     P 7908   3.182   4.425   7.281 -0.3254  0.1900  0.2842
   6223SM   O13 7909   3.055   4.418   7.360 -0.3287  0.1104  0.5770
   6223SM   O14 7910   3.270   4.533   7.323 -0.0266  0.3795  0.4719
   6223SM   O11 7911   3.152   4.456   7.128  0.3209  0.1968  0.1254
   6223SM   O12 7912   3.258   4.286   7.288  0.3155 -0.9780  0.1329
   6223SM   C1S 7913   3.243   4.466   7.023  0.1455  0.3815  0.0480
   6223SM   H1S 7914   3.333   4.403   7.041  0.8296  1.1953 -0.4683
   6223SM   H1T 7915   3.276   4.570   7.002 -1.8118  1.3753  1.5884
   6223SM    NF 7916   3.275   4.415   6.779  0.0915  0.2836  0.1308
   6223SM   HNF 7917   3.298   4.490   6.718  3.3847 -1.3121 -0.8195
   6223SM   C2S 7918   3.176   4.428   6.889 -0.1988 -0.1865  0.2757
   6223SM   H2S 7919   3.127   4.330   6.905  0.5633 -0.6718 -0.3276
   6223SM   C3S 7920   3.059   4.525   6.848  0.5814 -0.1727  0.4745
   6223SM   H3S 7921   3.097   4.625   6.818  1.6416 -0.7685 -0.2540
   6223SM    O3 7922   2.965   4.557   6.952 -0.5095  0.1694 -0.2431
   6223SM   HO3 7923   3.004   4.506   7.024 -1.3642  1.6166  1.3162
   6223SM   C4S 7924   2.978   4.471   6.735 -0.4243 -0.8198 -0.2634
   6223SM   H4S 7925   2.987   4.541   6.651  1.2835  0.1463  0.6697
   6223SM   C5S 7926   2.920   4.347   6.719  0.1030 -0.3411  0.1083
   6223SM   H5S 7927   2.944   4.271   6.795 -1.9551 -2.1140 -0.9300
   6223SM   C6S 7928   2.859   4.304   6.588  0.6625 -0.2180 -0.3739
   6223SM   H6S 7929   2.758   4.349   6.572 -0.2430 -1.4657  1.4367
   6223SM   H6T 7930   2.849   4.194   6.581  2.4922 -0.5255  1.0088
   6223SM   C7S 7931   2.940   4.346   6.467 -1.1900  0.3361 -0.0663
   6223SM   H7S 7932   3.026   4.276   6.476 -2.5469 -1.5488 -1.0579
   6223SM   H7T 7933   2.961   4.455   6.465 -2.2392  0.5315 -1.6711
   6223SM   C8S 7934   2.873   4.318   6.332 -0.2910 -0.2118 -0.0429
   6223SM   H8S 7935   2.775   4.369   6.341 -0.6106 -0.4027 -1.9550
   6223SM   H8T 7936   2.863   4.209   6.313 -0.4979 -0.4132  1.1384
   6223SM   C9S 7937   2.969   4.377   6.224  0.1401  0.3553  0.3933
   6223SM   H9S 7938   3.066   4.326   6.237  0.2170  0.7066  1.2588
   6223SM   H9T 7939   2.986   4.485   6.246  3.0610 -0.2395  1.5217
   6223SM  C10S 7940   2.919   4.357   6.080 -0.0955  0.2223 -0.0287
   6223SM  H10S 7941   2.823   4.412   6.081 -0.3149 -0.1399  1.3439
   6223SM  H10T 7942   2.910   4.249   6.057  0.9769  0.1470 -0.1616
   6223SM  C11S 7943   3.012   4.422   5.981  0.0274  0.8776 -0.2272
   6223SM  H11S 7944   3.110   4.369   5.971 -0.0519  0.9893 -1.8368
   6223SM  H11T 7945   3.032   4.525   6.018 -0.0415  0.0630  2.3315
   6223SM  C12S 7946   2.955   4.444   5.843  0.2016  0.0385  0.0686
   6223SM  H12S 7947   2.867   4.512   5.845 -0.6932 -1.0829  1.0260
   6223SM  H12T 7948   2.914   4.346   5.808  0.2699  0.0460 -0.0306
   6223SM  C13S 7949   3.065   4.497   5.747 -0.2613  0.3013 -0.4361
   6223SM  H13S 7950   3.145   4.422   5.731 -0.4461  0.0217 -0.0957
   6223SM  H13T 7951   3.113   4.585   5.793  0.3838 -1.0535  1.6390
   6223SM  C14S 7952   3.016   4.521   5.607  0.0468 -0.2701  0.1101
   6223SM  H14S 7953   2.946   4.607   5.609  0.3601 -0.0121  2.0436
   6223SM  H14T 7954   2.959   4.435   5.566  0.7465 -2.3165  3.0629
   6223SM  C15S 7955   3.137   4.555   5.513 -0.1105 -0.3481 -0.3320
   6223SM  H15S 7956   3.207   4.469   5.521  0.6183  0.1660 -0.9626
   6223SM  H15T 7957   3.192   4.646   5.548  1.0929 -1.4450  0.7509
   6223SM  C16S 7958   3.100   4.576   5.367 -0.6505  0.2206  0.6484
   6223SM  H16S 7959   3.025   4.654   5.345 -0.2542  0.0717 -1.4055
   6223SM  H16T 7960   3.054   4.482   5.329  0.7729  0.1249 -0.9917
   6223SM  C17S 7961   3.215   4.604   5.276  0.4086 -0.1495 -0.1759
   6223SM  H17S 7962   3.187   4.564   5.177 -0.1811 -1.0401  0.3382
   6223SM  H17T 7963   3.305   4.545   5.305 -1.0491 -1.7777  1.2454
   6223SM  C18S 7964   3.248   4.752   5.254 -0.3225  0.1922  1.4782
   6223SM  H18S 7965   3.164   4.812   5.213 -0.3638  0.7070  2.2921
   6223SM  H18T 7966   3.334   4.768   5.186 -1.2716 -0.9368 -0.0585
   6223SM  H18U 7967   3.259   4.811   5.348 -0.9763  0.2952  1.4960
   6223SM   C1F 7968   3.355   4.311   6.765 -0.7206  0.1534  0.5038
   6223SM    OF 7969   3.367   4.225   6.849  0.8814 -0.0065 -0.2018
   6223SM   C2F 7970   3.447   4.319   6.646 -0.7023 -0.5115 -0.2411
   6223SM   H2F 7971   3.511   4.409   6.655 -0.7155 -0.3254 -1.7832
   6223SM   H2G 7972   3.389   4.329   6.552  0.4089  1.5101 -0.7654
   6223SM   C3F 7973   3.545   4.198   6.635  0.4104  0.0965 -0.3815
   6223SM   H3F 7974   3.489   4.102   6.631  1.2266 -0.4168  0.2380
   6223SM   H3G 7975   3.600   4.192   6.732  2.6574 -1.5860 -1.6591
   6223SM   C4F 7976   3.652   4.195   6.526 -0.6439  0.2647  0.9378
   6223SM   H4F 7977   3.607   4.177   6.426 -0.3485  2.7546  0.2851
   6223SM   H4G 7978   3.721   4.111   6.547  0.4554  1.5107  2.6449
   6223SM   C5F 7979   3.733   4.323   6.513  0.6839 -0.1881  0.6026
   6223SM   H5F 7980   3.726   4.373   6.612 -1.4067  1.8904 -0.4724
   6223SM   H5G 7981   3.670   4.393   6.454 -0.1686 -0.3325  1.3163
   6223SM   C6F 7982   3.875   4.310   6.461  0.0731  0.0601 -0.0566
   6223SM   H6F 7983   3.938   4.258   6.536  1.4904  1.0533 -0.5077
   6223SM   H6G 7984   3.918   4.410   6.479  2.5856 -0.9904  0.2023
   6223SM   C7F 7985   3.893   4.263   6.318 -0.0615  0.0906 -0.1439
   6223SM   H7F 7986   3.809   4.191   6.306  0.5120 -0.5669 -0.2107
   6223SM   H7G 7987   3.992   4.214   6.306 -0.3182 -0.4346 -0.1450
   6223SM   C8F 7988   3.896   4.380   6.219 -0.2509 -0.3222  0.5356
   6223SM   H8F 7989   3.980   4.445   6.252  2.1310 -1.6022 -2.5096
   6223SM   H8G 7990   3.796   4.430   6.224  0.4043  1.1236 -0.0981
   6223SM   C9F 7991   3.937   4.349   6.075 -0.9230  0.7337 -0.2519
   6223SM   H9F 7992   3.852   4.307   6.017 -0.5778 -1.2557  0.6151
   6223SM   H9G 7993   4.014   4.271   6.059 -0.4173  1.5952 -2.5250
   6223SM  C10F 7994   3.982   4.474   6.002 -0.6688 -0.1326  0.1911
   6223SM  H10F 7995   4.048   4.533   6.069  0.6388 -1.3536  0.0393
   6223SM  H10G 7996   3.893   4.533   5.972 -1.3975 -2.0493 -1.7214
   6223SM  C11F 7997   4.058   4.448   5.863  0.8423  0.1648 -0.3115
   6223SM  H11F 7998   4.116   4.353   5.860 -0.1689 -0.4512 -2.8190
   6223SM  H11G 7999   4.136   4.527   5.866  0.8186  0.3575 -2.7225
   6223SM  C12F 8000   3.967   4.465   5.745 -1.0671  0.5025  0.1965
   6223SM  H12F 8001   3.941   4.573   5.742  1.0899  1.1603  2.2441
   6223SM  H12G 8002   3.877   4.403   5.762 -0.8957  0.6112  1.5570
   6223SM  C13F 8003   4.031   4.425   5.617  0.5308  0.0958 -0.1186
   6223SM  H13F 8004   4.095   4.336   5.637 -0.5834 -0.5529  0.7099
   6223SM  H13G 8005   4.096   4.504   5.575 -0.0240  0.4714 -0.2746
   6223SM  C14F 8006   3.922   4.399   5.517  0.1277 -0.1845  0.5546
   6223SM  H14F 8007   3.896   4.489   5.458  2.1835 -1.3226 -2.3251
   6223SM  H14G 8008   3.835   4.350   5.565  0.1175 -0.8476 -0.1112
   6223SM  C15F 8009   3.968   4.316   5.396 -0.2651  0.4079 -0.2050
   6223SM  H15F 8010   3.891   4.327   5.317  0.5169 -1.3312 -1.2690
   6223SM  H15G 8011   3.973   4.209   5.426 -2.2976 -0.5206 -2.8374
   6223SM  C16F 8012   4.106   4.348   5.333  0.1796 -0.8993 -0.0605
   6223SM  H16F 8013   4.145   4.267   5.268  2.0670 -1.2799  1.4324
   6223SM  H16G 8014   4.184   4.349   5.413  1.1922 -1.6739 -1.0043
   6223SM  C17F 8015   4.100   4.472   5.242  0.4334  0.3457 -0.1094
   6223SM  H17F 8016   4.092   4.562   5.307  0.0759 -0.1098  0.4795
   6223SM  H17G 8017   4.006   4.491   5.186  0.6826  0.2991 -0.5506
   6223SM  C18F 8018   4.222   4.511   5.166 -0.8169 -0.3439  0.0169
   6223SM  H18F 8019   4.245   4.441   5.083  0.8034  0.4729 -0.2755
   6223SM  H18G 8020   4.312   4.498   5.230 -0.0366  0.6079 -0.8417
   6223SM  C19F 8021   4.232   4.656   5.110  0.9632  1.7845  0.1244
   6223SM  H19F 8022   4.243   4.715   5.203  1.1431  1.0728  0.5669
   6223SM  H19G 8023   4.145   4.692   5.051  0.9531  0.1689 -0.9158
   6223SM  C20F 8024   4.357   4.663   5.028 -0.0595  0.3304 -0.0659
   6223SM  H20F 8025   4.355   4.577   4.957  0.7476 -0.1784  0.5178
   6223SM  H20G 8026   4.437   4.636   5.100 -1.5177  0.8423  1.8427
   6223SM  C21F 8027   4.371   4.798   4.970 -0.3580  0.1969  0.4574
   6223SM  H21F 8028   4.354   4.879   5.044 -0.9367  1.2333 -0.7646
   6223SM  H21G 8029   4.293   4.814   4.892  1.0405 -1.0191 -1.2682
   6223SM  C22F 8030   4.510   4.822   4.909  0.4598  0.3658 -0.0982
   6223SM  H22F 8031   4.523   4.735   4.840  0.7131 -0.3534  0.8394
   6223SM  H22G 8032   4.596   4.819   4.980 -0.1887  0.1980  0.6913
   6223SM  C23F 8033   4.531   4.948   4.823 -0.0780 -0.2415 -0.4624
   6223SM  H23F 8034   4.441   4.976   4.763  1.1599  1.5699 -1.5619
   6223SM  H23G 8035   4.621   4.945   4.758 -0.1667  0.2110 -0.6183
   6223SM  H23H 8036   4.536   5.037   4.889  0.0857 -0.6988  0.1431
   6323SM     N 8037   4.994   5.084   7.671 -0.7610  0.1731 -0.0755
   6323SM   C15 8038   4.871   5.009   7.700 -0.1649  0.0924  0.2136
   6323SM  H15A 8039   4.863   4.926   7.632  0.0422 -1.3607  1.9095
   6323SM  H15B 8040   4.782   5.071   7.700 -0.0022  0.3253  0.3281
   6323SM  H15C 8041   4.868   4.968   7.800  1.1067  1.8232  1.0186
   6323SM   C14 8042   5.003   5.197   7.765 -0.5697 -0.6928 -0.1865
   6323SM  H14A 8043   4.936   5.280   7.750  0.0581 -0.0981  0.1898
   6323SM  H14B 8044   5.105   5.233   7.765 -0.5328 -0.6946  1.6872
   6323SM  H14C 8045   4.996   5.157   7.866  0.1228  0.4904  0.3613
   6323SM   C13 8046   5.097   4.985   7.706 -1.3103  0.0463  0.8644
   6323SM  H13A 8047   5.092   4.902   7.636 -0.5469 -0.6137  1.5695
   6323SM  H13B 8048   5.082   4.940   7.803  0.7423  0.7789  1.5785
   6323SM  H13C 8049   5.193   5.034   7.714 -1.5358  0.8405 -0.7783
   6323SM   C12 8050   4.999   5.129   7.525 -0.3826 -0.4628  0.5670
   6323SM  H12A 8051   5.082   5.195   7.506 -1.1318  0.1923 -0.5288
   6323SM  H12B 8052   4.917   5.198   7.508 -0.4369  0.0791  2.7543
   6323SM   C11 8053   4.996   5.022   7.414 -0.7151 -0.6033 -0.5846
   6323SM  H11A 8054   5.078   4.955   7.450 -1.5832 -0.2796  2.2366
   6323SM  H11B 8055   5.022   5.075   7.320 -1.4015 -0.3846 -0.6574
   6323SM     P 8056   4.761   5.007   7.308  0.3161 -0.0760  0.2913
   6323SM   O13 8057   4.650   4.905   7.301  0.2891  0.5552 -0.1460
   6323SM   O14 8058   4.727   5.146   7.351 -0.2615  0.1320 -0.5341
   6323SM   O11 8059   4.820   5.023   7.164  0.0858 -0.1430 -0.2151
   6323SM   O12 8060   4.876   4.949   7.401 -0.2862  0.1019 -0.2193
   6323SM   C1S 8061   4.859   4.922   7.077 -0.1357 -0.0026 -0.8095
   6323SM   H1S 8062   4.848   4.818   7.114  0.2214 -0.4097 -1.8071
   6323SM   H1T 8063   4.968   4.936   7.062 -0.2611  1.3476 -0.5939
   6323SM    NF 8064   4.812   4.827   6.845  0.1054 -0.3254 -0.0246
   6323SM   HNF 8065   4.870   4.820   6.764 -0.6609 -0.9129 -0.5414
   6323SM   C2S 8066   4.802   4.939   6.931 -0.2397 -0.0143 -0.4695
   6323SM   H2S 8067   4.692   4.945   6.944 -0.0084  0.3177  1.9246
   6323SM   C3S 8068   4.853   5.063   6.862  0.0310 -0.1524  0.2899
   6323SM   H3S 8069   4.962   5.046   6.869  0.1938  1.1169  1.0932
   6323SM    O3 8070   4.832   5.184   6.926 -0.3090  0.1502 -0.9218
   6323SM   HO3 8071   4.794   5.166   7.012 -3.6971  0.0417 -2.2507
   6323SM   C4S 8072   4.815   5.074   6.714  0.3599  0.4312 -0.1126
   6323SM   H4S 8073   4.895   5.043   6.646 -1.8394 -3.2456 -1.3375
   6323SM   C5S 8074   4.706   5.132   6.659 -0.7510 -0.7286 -0.6317
   6323SM   H5S 8075   4.625   5.175   6.720 -0.5883 -0.5410 -0.5433
   6323SM   C6S 8076   4.679   5.157   6.518  0.3313 -0.0540  0.0565
   6323SM   H6S 8077   4.588   5.098   6.494  0.3952 -0.5235  0.9340
   6323SM   H6T 8078   4.759   5.131   6.446  1.4358  3.0809 -0.0083
   6323SM   C7S 8079   4.645   5.304   6.499  0.5185  1.0700  0.3726
   6323SM   H7S 8080   4.740   5.361   6.506  0.0139  2.1925 -1.3554
   6323SM   H7T 8081   4.572   5.336   6.577 -0.4186  0.0979 -0.0742
   6323SM   C8S 8082   4.587   5.335   6.355 -0.4390  0.5493 -0.0473
   6323SM   H8S 8083   4.500   5.268   6.338 -0.9139  0.3068  2.9083
   6323SM   H8T 8084   4.664   5.307   6.279 -0.1100 -0.2065  0.5531
   6323SM   C9S 8085   4.564   5.487   6.348 -0.6367  0.0438 -0.3350
   6323SM   H9S 8086   4.663   5.535   6.329 -0.9080  0.4741 -0.6541
   6323SM   H9T 8087   4.527   5.528   6.444 -1.7024  2.5526 -1.7420
   6323SM  C10S 8088   4.487   5.531   6.216  0.0709 -1.0817 -0.8180
   6323SM  H10S 8089   4.497   5.642   6.210 -3.5790 -0.3314  2.5724
   6323SM  H10T 8090   4.382   5.504   6.241 -0.5837  1.8740  0.0598
   6323SM  C11S 8091   4.537   5.468   6.084  0.2333 -0.5702  0.1109
   6323SM  H11S 8092   4.470   5.483   5.997 -0.8200  1.2442  1.1821
   6323SM  H11T 8093   4.546   5.358   6.098 -3.2820 -0.7584  1.8076
   6323SM  C12S 8094   4.672   5.517   6.030 -0.3672  0.0516 -0.2778
   6323SM  H12S 8095   4.746   5.434   6.026  0.3529  0.6952 -0.5695
   6323SM  H12T 8096   4.711   5.601   6.091 -1.8533 -0.6919  1.8225
   6323SM  C13S 8097   4.670   5.569   5.883 -0.5965 -0.6505 -0.4545
   6323SM  H13S 8098   4.589   5.644   5.880 -0.1227 -0.0969  0.2855
   6323SM  H13T 8099   4.648   5.481   5.819 -0.4822 -0.2078 -1.1063
   6323SM  C14S 8100   4.803   5.635   5.844 -0.0204 -0.6931 -0.5724
   6323SM  H14S 8101   4.885   5.564   5.866  0.4795  0.8457  3.1606
   6323SM  H14T 8102   4.826   5.725   5.905  2.7251 -0.4757 -1.7601
   6323SM  C15S 8103   4.802   5.673   5.695 -0.1393 -0.6349 -0.3270
   6323SM  H15S 8104   4.723   5.751   5.680 -2.4751 -2.4860  1.4677
   6323SM  H15T 8105   4.769   5.588   5.631  0.0009 -2.3043  1.7022
   6323SM  C16S 8106   4.938   5.720   5.637 -0.1844  0.5339  0.4776
   6323SM  H16S 8107   5.006   5.634   5.653 -0.2536  0.5106  0.6503
   6323SM  H16T 8108   4.978   5.797   5.707  1.2993  0.6376 -0.4447
   6323SM  C17S 8109   4.928   5.765   5.489 -1.0495  0.1454  0.1455
   6323SM  H17S 8110   4.860   5.851   5.477 -1.3048 -0.2732 -1.7979
   6323SM  H17T 8111   4.885   5.673   5.444 -2.3785  1.0728 -0.5525
   6323SM  C18S 8112   5.064   5.796   5.413 -0.3950  0.5370 -0.0285
   6323SM  H18S 8113   5.120   5.884   5.451 -0.8256  0.1673  1.5319
   6323SM  H18T 8114   5.047   5.799   5.304 -1.1940 -0.4983  0.0507
   6323SM  H18U 8115   5.129   5.708   5.431 -0.7472  0.3269  0.2528
   6323SM   C1F 8116   4.747   4.716   6.858 -0.0147  0.6813 -0.0381
   6323SM    OF 8117   4.681   4.696   6.957  0.2878  0.2532  0.1884
   6323SM   C2F 8118   4.773   4.608   6.751 -0.2232 -0.0530  0.6551
   6323SM   H2F 8119   4.822   4.520   6.798 -1.2841 -1.5892 -0.9769
   6323SM   H2G 8120   4.850   4.646   6.680  0.2655 -0.2071  1.0984
   6323SM   C3F 8121   4.651   4.566   6.676 -0.5549 -0.3631 -0.0131
   6323SM   H3F 8122   4.576   4.543   6.755  0.6908 -0.8065  1.0835
   6323SM   H3G 8123   4.691   4.479   6.621  0.9594  0.4645 -0.2741
   6323SM   C4F 8124   4.593   4.661   6.571 -0.0740 -0.4001  0.5188
   6323SM   H4F 8125   4.552   4.749   6.625  1.2245  1.6976 -1.6699
   6323SM   H4G 8126   4.512   4.610   6.515  0.1945 -0.2303 -0.0328
   6323SM   C5F 8127   4.696   4.709   6.464  0.5757 -0.0340 -0.6979
   6323SM   H5F 8128   4.776   4.764   6.518 -3.0137  0.9752  4.3189
   6323SM   H5G 8129   4.647   4.784   6.399 -0.2842  0.4212  0.4533
   6323SM   C6F 8130   4.759   4.598   6.383 -0.2820  0.5297 -0.1748
   6323SM   H6F 8131   4.683   4.545   6.322 -0.0798  0.3475 -0.2688
   6323SM   H6G 8132   4.814   4.525   6.446 -0.6729 -1.2713 -1.8249
   6323SM   C7F 8133   4.872   4.646   6.285  0.2095 -0.2778 -0.0344
   6323SM   H7F 8134   4.935   4.557   6.265 -0.2551 -1.1546  2.1586
   6323SM   H7G 8135   4.937   4.724   6.331  2.0884 -0.1169 -2.7295
   6323SM   C8F 8136   4.815   4.700   6.154  1.2102 -0.3949  0.3753
   6323SM   H8F 8137   4.794   4.809   6.154 -1.0274 -0.6556 -3.1640
   6323SM   H8G 8138   4.717   4.654   6.131 -0.1680  1.8166  1.5197
   6323SM   C9F 8139   4.912   4.682   6.042  0.4323  0.0214 -0.2575
   6323SM   H9F 8140   4.951   4.578   6.036  3.5691  1.1496 -2.2150
   6323SM   H9G 8141   5.001   4.747   6.054 -0.9786  1.8844  0.3925
   6323SM  C10F 8142   4.850   4.723   5.907  0.0756 -0.1587 -0.6522
   6323SM  H10F 8143   4.814   4.829   5.913 -2.9824 -1.1557  0.9134
   6323SM  H10G 8144   4.754   4.667   5.898 -0.4524  0.7960 -1.2352
   6323SM  C11F 8145   4.943   4.707   5.781  0.5051  0.8984 -0.5909
   6323SM  H11F 8146   4.877   4.717   5.692 -1.7520  1.9212  1.1157
   6323SM  H11G 8147   4.968   4.598   5.782 -1.1040  0.4927 -1.1197
   6323SM  C12F 8148   5.062   4.801   5.773  0.3674  0.0417 -0.1655
   6323SM  H12F 8149   5.134   4.781   5.855  2.2738  1.5756 -1.3767
   6323SM  H12G 8150   5.038   4.909   5.782 -0.1554 -0.1261  0.5749
   6323SM  C13F 8151   5.134   4.773   5.645  0.1683  0.6860 -0.7567
   6323SM  H13F 8152   5.061   4.787   5.562 -0.6556  2.7669  0.2408
   6323SM  H13G 8153   5.179   4.672   5.652 -1.3981 -0.0299 -0.5053
   6323SM  C14F 8154   5.243   4.868   5.623 -0.0473  0.0272  0.2092
   6323SM  H14F 8155   5.322   4.864   5.702  0.5349 -1.3951 -0.4163
   6323SM  H14G 8156   5.215   4.973   5.644  0.9297 -0.0992  2.3987
   6323SM  C15F 8157   5.307   4.863   5.488 -0.2670  0.4713  1.0010
   6323SM  H15F 8158   5.370   4.772   5.475 -0.8184  0.2900 -0.6622
   6323SM  H15G 8159   5.386   4.941   5.490 -0.6343  0.9215  4.6506
   6323SM  C16F 8160   5.213   4.885   5.374 -0.8032  0.0632  0.0507
   6323SM  H16F 8161   5.144   4.967   5.401 -2.2395 -1.1409  0.2192
   6323SM  H16G 8162   5.152   4.793   5.355  1.4952 -1.0445 -2.7479
   6323SM  C17F 8163   5.285   4.938   5.250 -0.3106 -0.5093  0.4992
   6323SM  H17F 8164   5.354   5.014   5.290 -1.5743 -0.5436  2.9488
   6323SM  H17G 8165   5.214   4.995   5.186 -0.0743  0.2696  0.9262
   6323SM  C18F 8166   5.359   4.827   5.169  0.2539  0.0248  0.4007
   6323SM  H18F 8167   5.289   4.746   5.138  0.1371 -0.7419  2.4824
   6323SM  H18G 8168   5.428   4.773   5.238 -0.2227  0.7263  1.4666
   6323SM  C19F 8169   5.434   4.885   5.046 -0.5686 -0.1014 -0.0077
   6323SM  H19F 8170   5.518   4.820   5.015  0.6754  0.6682  1.6074
   6323SM  H19G 8171   5.498   4.968   5.082  1.1575 -0.7022 -1.5676
   6323SM  C20F 8172   5.358   4.935   4.920 -0.0190 -0.4639  0.8290
   6323SM  H20F 8173   5.287   5.015   4.949  0.0648  0.3858 -1.1569
   6323SM  H20G 8174   5.304   4.851   4.871  0.6504 -0.9725  0.9457
   6323SM  C21F 8175   5.441   5.003   4.813  0.1135  0.2908 -0.7533
   6323SM  H21F 8176   5.374   5.037   4.732  0.5942 -2.1314 -2.2886
   6323SM  H21G 8177   5.515   4.940   4.758 -0.5000 -1.4987  0.3765
   6323SM  C22F 8178   5.516   5.129   4.861 -0.3835  0.2734 -0.3330
   6323SM  H22F 8179   5.596   5.099   4.932 -1.6516  0.5762  1.2798
   6323SM  H22G 8180   5.451   5.181   4.935  0.2636  0.1485  0.3382
   6323SM  C23F 8181   5.561   5.219   4.751 -0.3683 -0.4836 -0.3309
   6323SM  H23F 8182   5.476   5.228   4.679 -0.1918 -0.3323 -0.5201
   6323SM  H23G 8183   5.652   5.175   4.706  1.6539  0.7078  2.3351
   6323SM  H23H 8184   5.592   5.319   4.789  0.7406 -0.6645 -0.7271
   6423SM     N 8185   5.669   3.943   7.179 -0.4974  0.4448  0.1349
   6423SM   C15 8186   5.614   3.836   7.277  0.3381 -0.0510 -0.3896
   6423SM  H15A 8187   5.675   3.807   7.361 -0.7397 -0.3015  0.3374
   6423SM  H15B 8188   5.564   3.757   7.222 -0.6480 -0.2065  0.6834
   6423SM  H15C 8189   5.524   3.879   7.318 -1.1596 -1.2508 -2.2497
   6423SM   C14 8190   5.710   4.055   7.260  0.2277  0.0384 -0.0330
   6423SM  H14A 8191   5.733   4.142   7.201 -0.4677  1.2528  1.4397
   6423SM  H14B 8192   5.790   4.026   7.326  0.3062 -0.4619 -0.3374
   6423SM  H14C 8193   5.630   4.092   7.322  0.9129  2.8050 -0.6724
   6423SM   C13 8194   5.788   3.884   7.113  0.0841  0.3891  0.2022
   6423SM  H13A 8195   5.769   3.780   7.093  1.0016  0.2973 -0.2241
   6423SM  H13B 8196   5.872   3.890   7.181 -0.6057 -1.0177  1.2204
   6423SM  H13C 8197   5.805   3.944   7.025 -0.9816 -0.8643 -0.9037
   6423SM   C12 8198   5.563   3.983   7.079  0.7871  0.0115 -0.4465
   6423SM  H12A 8199   5.596   4.075   7.034  1.2162  0.5522  0.9040
   6423SM  H12B 8200   5.469   4.001   7.129  0.2162 -2.3264 -0.5629
   6423SM   C11 8201   5.514   3.897   6.964  0.2979  0.9821  0.1640
   6423SM  H11A 8202   5.599   3.842   6.917 -1.4184 -1.6370 -0.0251
   6423SM  H11B 8203   5.462   3.962   6.890  0.1713 -1.1819 -1.7610
   6423SM     P 8204   5.274   3.840   7.047 -0.0868  0.0858 -0.1554
   6423SM   O13 8205   5.210   3.730   7.126 -0.3043 -0.3633  0.7116
   6423SM   O14 8206   5.268   3.977   7.109  0.0111 -0.2521  0.2150
   6423SM   O11 8207   5.206   3.843   6.902  0.4186 -0.7377  0.1997
   6423SM   O12 8208   5.426   3.796   7.015  0.5342 -0.3830  0.3195
   6423SM   C1S 8209   5.183   3.968   6.833 -0.0678 -0.2677  0.3074
   6423SM   H1S 8210   5.257   4.049   6.849 -0.1434  0.6654 -3.1619
   6423SM   H1T 8211   5.082   4.004   6.864  0.2841 -0.8792  2.3214
   6423SM    NF 8212   5.227   4.060   6.598  0.1118  0.1111 -0.1990
   6423SM   HNF 8213   5.150   4.099   6.549  0.0185 -1.0986 -1.0665
   6423SM   C2S 8214   5.188   3.945   6.680  0.1556 -0.3755 -0.1743
   6423SM   H2S 8215   5.258   3.862   6.658 -0.4148 -0.7960 -0.4540
   6423SM   C3S 8216   5.058   3.878   6.631  0.2860  0.5084 -0.0750
   6423SM   H3S 8217   4.975   3.942   6.666  0.0589  0.3463 -0.3098
   6423SM    O3 8218   5.034   3.747   6.685  0.5668 -0.4041  0.1978
   6423SM   HO3 8219   5.081   3.742   6.768  1.9468  0.7367 -0.4750
   6423SM   C4S 8220   5.055   3.868   6.483  0.4611 -0.2972  0.0310
   6423SM   H4S 8221   5.131   3.802   6.437 -1.3944 -0.5531 -2.9239
   6423SM   C5S 8222   4.996   3.951   6.392  0.1711 -0.9502  0.3880
   6423SM   H5S 8223   4.957   4.049   6.424  2.3994  0.6929 -1.5242
   6423SM   C6S 8224   5.001   3.967   6.249  0.3402  0.0748 -0.0459
   6423SM   H6S 8225   5.058   4.060   6.229 -0.2067  0.7727  1.4400
   6423SM   H6T 8226   4.893   3.960   6.222 -0.4629  1.0886  2.6301
   6423SM   C7S 8227   5.083   3.861   6.169  0.1918 -0.0504  0.1633
   6423SM   H7S 8228   5.042   3.761   6.195  0.7208 -0.2114  0.3854
   6423SM   H7T 8229   5.191   3.873   6.190  0.0723 -0.3186  0.9466
   6423SM   C8S 8230   5.058   3.889   6.023 -0.4532  0.1312 -0.1839
   6423SM   H8S 8231   5.096   3.992   6.008  1.4618 -0.3126  1.2175
   6423SM   H8T 8232   4.951   3.878   5.997 -0.8971  0.3302  1.4672
   6423SM   C9S 8233   5.135   3.796   5.924 -0.7537  0.7160  0.0589
   6423SM   H9S 8234   5.066   3.717   5.888  1.1348 -0.8846 -0.2255
   6423SM   H9T 8235   5.207   3.753   5.997 -0.6514  1.6092  0.4948
   6423SM  C10S 8236   5.206   3.871   5.807  0.1320 -0.5310  0.1475
   6423SM  H10S 8237   5.277   3.804   5.753 -0.7641 -3.3272  2.2188
   6423SM  H10T 8238   5.257   3.957   5.855 -1.5217  1.1401 -0.8987
   6423SM  C11S 8239   5.101   3.930   5.707 -0.3320 -0.7416 -0.1425
   6423SM  H11S 8240   5.043   4.010   5.758 -1.6505  0.0410 -2.6969
   6423SM  H11T 8241   5.038   3.846   5.668  0.1896 -0.6695 -1.1599
   6423SM  C12S 8242   5.156   3.998   5.574 -0.2408 -0.5089 -0.3273
   6423SM  H12S 8243   5.261   3.962   5.565  0.4777 -0.2261  4.4181
   6423SM  H12T 8244   5.170   4.107   5.588  0.6036 -0.5458 -0.7930
   6423SM  C13S 8245   5.074   3.992   5.443 -0.4845 -0.1303  0.2121
   6423SM  H13S 8246   5.137   4.047   5.371  2.0028 -4.2447 -1.0742
   6423SM  H13T 8247   4.974   4.038   5.456 -0.6073 -0.4040  0.2555
   6423SM  C14S 8248   5.047   3.850   5.380 -0.6433 -0.4836  0.2541
   6423SM  H14S 8249   4.985   3.801   5.459 -2.6242  2.3917  0.6363
   6423SM  H14T 8250   5.145   3.800   5.370 -0.5370 -0.3668  0.6821
   6423SM  C15S 8251   4.969   3.848   5.250  0.3572 -0.6946  0.5955
   6423SM  H15S 8252   4.982   3.748   5.205  2.0787 -0.2495  0.0236
   6423SM  H15T 8253   5.015   3.918   5.176  2.5706 -0.9541  1.6201
   6423SM  C16S 8254   4.818   3.875   5.275 -0.5223 -0.4647 -0.6106
   6423SM  H16S 8255   4.804   3.968   5.334 -1.5743 -0.8976 -0.1565
   6423SM  H16T 8256   4.777   3.793   5.337 -0.4227 -0.8517 -1.0453
   6423SM  C17S 8257   4.743   3.914   5.150 -0.2669  0.5851 -0.3911
   6423SM  H17S 8258   4.735   3.821   5.089  1.7910  1.9455 -2.9187
   6423SM  H17T 8259   4.800   3.993   5.098  0.5879  1.1203  1.2904
   6423SM  C18S 8260   4.611   3.970   5.188 -0.4022 -0.4109  0.3853
   6423SM  H18S 8261   4.569   3.907   5.269  0.4475 -2.4654 -0.6897
   6423SM  H18T 8262   4.548   3.969   5.096 -1.2602 -2.5263  0.9501
   6423SM  H18U 8263   4.617   4.077   5.218 -2.1552 -1.1606  3.9243
   6423SM   C1F 8264   5.348   4.121   6.596  0.3983 -0.2491  0.3638
   6423SM    OF 8265   5.435   4.085   6.671 -0.0120  0.4882 -0.4877
   6423SM   C2F 8266   5.361   4.240   6.506 -0.3068 -0.2403  0.5119
   6423SM   H2F 8267   5.470   4.259   6.497 -0.2502  1.9873  3.9587
   6423SM   H2G 8268   5.311   4.329   6.548  0.9459  1.0906 -0.7108
   6423SM   C3F 8269   5.301   4.229   6.362  0.7338 -1.0584  0.1047
   6423SM   H3F 8270   5.192   4.207   6.364  0.2492  1.0187  2.0044
   6423SM   H3G 8271   5.356   4.149   6.308  1.7630 -1.3739  1.5598
   6423SM   C4F 8272   5.314   4.359   6.290 -0.4038  0.1969  0.1055
   6423SM   H4F 8273   5.424   4.365   6.280 -0.1112 -3.8566 -0.8079
   6423SM   H4G 8274   5.277   4.443   6.353 -3.1073 -1.2491  0.6131
   6423SM   C5F 8275   5.239   4.365   6.154  0.8078 -0.6947 -0.8806
   6423SM   H5F 8276   5.256   4.464   6.107  0.0496 -0.6082 -0.9828
   6423SM   H5G 8277   5.134   4.352   6.189  1.3620  0.5560  1.5224
   6423SM   C6F 8278   5.292   4.261   6.058 -0.0063 -0.0300 -0.0883
   6423SM   H6F 8279   5.258   4.159   6.085  0.7823  0.3529  2.7259
   6423SM   H6G 8280   5.402   4.250   6.072 -0.1325  0.2322  1.2213
   6423SM   C7F 8281   5.251   4.294   5.913  0.6058  0.5107  0.2174
   6423SM   H7F 8282   5.311   4.234   5.841  1.0203  0.6385  0.4568
   6423SM   H7G 8283   5.277   4.401   5.899 -1.8440  1.1405 -0.0414
   6423SM   C8F 8284   5.099   4.281   5.873  0.2664  0.7522 -0.2667
   6423SM   H8F 8285   5.018   4.327   5.934  0.2150  2.5628 -1.6122
   6423SM   H8G 8286   5.091   4.171   5.881  0.3232  0.6234 -1.7569
   6423SM   C9F 8287   5.086   4.343   5.726 -0.5284 -0.4137 -0.2068
   6423SM   H9F 8288   5.171   4.294   5.673 -0.5183 -1.9418  1.1468
   6423SM   H9G 8289   5.113   4.450   5.736 -0.3725 -0.4476 -0.2470
   6423SM  C10F 8290   4.955   4.320   5.653 -0.6035  0.9437 -0.4073
   6423SM  H10F 8291   4.866   4.346   5.715 -1.0432  2.0055 -1.4590
   6423SM  H10G 8292   4.955   4.211   5.632 -1.0284  1.1327 -1.4493
   6423SM  C11F 8293   4.942   4.400   5.526 -0.3651  0.0416  0.0973
   6423SM  H11F 8294   4.906   4.501   5.558  0.3180  0.8270 -1.4904
   6423SM  H11G 8295   4.868   4.350   5.460 -0.0618 -1.0498  0.5666
   6423SM  C12F 8296   5.073   4.427   5.451  0.2488 -0.3966  0.3510
   6423SM  H12F 8297   5.110   4.327   5.421 -1.1992 -0.8644  0.0901
   6423SM  H12G 8298   5.151   4.474   5.516 -0.6434  1.4165  0.1701
   6423SM  C13F 8299   5.055   4.512   5.330  0.7386 -0.2016  0.2171
   6423SM  H13F 8300   5.034   4.618   5.359  0.0189 -0.0747 -0.7293
   6423SM  H13G 8301   4.966   4.483   5.271  1.0866  1.7006 -1.3660
   6423SM  C14F 8302   5.171   4.519   5.241  0.3280 -0.0428  0.0194
   6423SM  H14F 8303   5.254   4.567   5.297  0.7935  0.2585 -0.8996
   6423SM  H14G 8304   5.143   4.589   5.158  1.0477  1.6724  1.1590
   6423SM  C15F 8305   5.228   4.387   5.191  0.0990  0.8141  0.2533
   6423SM  H15F 8306   5.153   4.360   5.114 -0.0434 -0.9912  0.9932
   6423SM  H15G 8307   5.236   4.306   5.265 -0.3082  0.9546  0.4518
   6423SM  C16F 8308   5.361   4.392   5.112 -0.1616 -0.4757 -0.6902
   6423SM  H16F 8309   5.434   4.413   5.193 -0.7709 -0.0175 -0.2459
   6423SM  H16G 8310   5.354   4.483   5.047 -0.3079 -0.6262 -0.8888
   6423SM  C17F 8311   5.407   4.263   5.037 -0.3386  0.3850 -0.0676
   6423SM  H17F 8312   5.319   4.244   4.971  0.6427 -0.4576 -1.1684
   6423SM  H17G 8313   5.422   4.192   5.120  0.3482 -0.7949 -1.1754
   6423SM  C18F 8314   5.537   4.286   4.961 -0.2738  0.3985  0.0418
   6423SM  H18F 8315   5.522   4.362   4.881  0.2272 -1.5130 -1.9768
   6423SM  H18G 8316   5.562   4.190   4.910 -1.3761  0.4483 -0.6196
   6423SM  C19F 8317   5.646   4.335   5.054  0.2993 -0.0237  0.4523
   6423SM  H19F 8318   5.647   4.270   5.144 -2.6829  1.8000  1.9679
   6423SM  H19G 8319   5.623   4.437   5.090  0.9121 -0.0234  0.8511
   6423SM  C20F 8320   5.791   4.354   5.000 -0.4626  0.0017 -0.3151
   6423SM  H20F 8321   5.802   4.424   4.915 -2.1285  0.8557  0.1293
   6423SM  H20G 8322   5.834   4.258   4.965 -3.4296 -0.5288 -2.8971
   6423SM  C21F 8323   5.886   4.395   5.116 -0.7141 -0.3026 -0.0563
   6423SM  H21F 8324   5.875   4.318   5.196 -2.4110  0.8465  0.8900
   6423SM  H21G 8325   5.852   4.494   5.152  3.2256  0.9311  0.6792
   6423SM  C22F 8326   6.031   4.412   5.077 -0.0079 -0.0612  1.1398
   6423SM  H22F 8327   6.084   4.456   5.165  0.0747  0.1014  1.0088
   6423SM  H22G 8328   6.054   4.484   4.996  0.8020  1.1804  2.4214
   6423SM  C23F 8329   6.099   4.284   5.035  0.0485 -0.2801  0.0723
   6423SM  H23F 8330   6.204   4.314   5.018  0.1953 -0.3765  0.7726
   6423SM  H23G 8331   6.048   4.240   4.946 -1.7834 -0.3992  1.1162
   6423SM  H23H 8332   6.096   4.217   5.124  2.3608  1.1214  1.2914
   6523SM     N 8333   4.476   3.963   7.654 -0.0729  0.4815 -0.0292
   6523SM   C15 8334   4.506   4.109   7.657 -0.3146 -0.2088 -0.1241
   6523SM  H15A 8335   4.415   4.165   7.671 -2.0064 -2.9070  0.2976
   6523SM  H15B 8336   4.554   4.134   7.563 -1.9784 -1.7947 -1.4851
   6523SM  H15C 8337   4.572   4.141   7.736 -2.0466  1.9581  0.5526
   6523SM   C14 8338   4.602   3.888   7.683  0.2094 -0.0444  0.3770
   6523SM  H14A 8339   4.630   3.904   7.786  0.9116 -0.4262  0.2549
   6523SM  H14B 8340   4.691   3.915   7.628  1.8170  0.0682  2.8665
   6523SM  H14C 8341   4.579   3.782   7.682  0.3750 -0.1367 -2.3180
   6523SM   C13 8342   4.376   3.937   7.768  0.0436  0.0826  0.4252
   6523SM  H13A 8343   4.410   3.974   7.864 -1.8325 -0.4384  1.3357
   6523SM  H13B 8344   4.354   3.832   7.777 -0.5125  0.2460  0.9859
   6523SM  H13C 8345   4.286   3.991   7.744  0.5867  1.5309  1.4533
   6523SM   C12 8346   4.402   3.912   7.528 -0.2078  0.4479 -0.2965
   6523SM  H12A 8347   4.312   3.971   7.524  0.6132  2.0128  2.0820
   6523SM  H12B 8348   4.382   3.807   7.537  1.1416  0.1882 -0.0309
   6523SM   C11 8349   4.462   3.929   7.389 -0.2217 -0.4667  0.3453
   6523SM  H11A 8350   4.381   3.907   7.316 -0.2282  0.9329 -0.1042
   6523SM  H11B 8351   4.546   3.858   7.373  1.5780  1.5836  0.1445
   6523SM     P 8352   4.646   4.096   7.314  0.2858  0.4118 -0.1599
   6523SM   O13 8353   4.663   4.240   7.313 -0.2999  0.1852 -1.1534
   6523SM   O14 8354   4.753   4.016   7.379 -0.2952 -0.9263  0.0054
   6523SM   O11 8355   4.633   4.060   7.155 -0.5971 -0.2300  0.3091
   6523SM   O12 8356   4.503   4.065   7.375 -0.6660 -0.3176  0.0319
   6523SM   C1S 8357   4.520   4.093   7.077  1.0069  0.5352 -0.4145
   6523SM   H1S 8358   4.515   4.204   7.080 -0.5428  0.4652  1.4961
   6523SM   H1T 8359   4.424   4.060   7.122 -1.1457  1.2951 -3.9936
   6523SM    NF 8360   4.409   4.102   6.865 -0.2206  0.3940 -0.0309
   6523SM   HNF 8361   4.322   4.056   6.884 -1.0446  1.0205 -2.0457
   6523SM   C2S 8362   4.516   4.031   6.929 -0.0183 -0.0593 -1.1138
   6523SM   H2S 8363   4.607   4.061   6.872  1.1619 -1.0358  0.1661
   6523SM   C3S 8364   4.510   3.877   6.948  0.0004 -0.0358 -0.2593
   6523SM   H3S 8365   4.417   3.849   7.003  0.0419  0.8701  0.2936
   6523SM    O3 8366   4.610   3.826   7.035 -0.1305 -0.0080 -0.3326
   6523SM   HO3 8367   4.649   3.899   7.082 -0.6645  0.9845 -1.3787
   6523SM   C4S 8368   4.510   3.796   6.811  0.3841 -0.4385 -0.1974
   6523SM   H4S 8369   4.406   3.803   6.776 -0.4682 -0.1779  2.1790
   6523SM   C5S 8370   4.607   3.729   6.750 -0.2231  0.2529 -0.1942
   6523SM   H5S 8371   4.707   3.715   6.792 -0.5207  0.2727  0.5415
   6523SM   C6S 8372   4.573   3.658   6.628 -0.2865  0.4685  0.0625
   6523SM   H6S 8373   4.463   3.660   6.610 -0.4835  1.9696  1.2321
   6523SM   H6T 8374   4.605   3.554   6.646  2.9447  1.2942 -0.3717
   6523SM   C7S 8375   4.645   3.697   6.498 -0.2770 -0.2988  0.4389
   6523SM   H7S 8376   4.743   3.741   6.527 -0.0842 -0.6416  0.3115
   6523SM   H7T 8377   4.584   3.767   6.437 -1.1430 -0.0115  1.5988
   6523SM   C8S 8378   4.677   3.575   6.404 -0.1641  0.3293  0.1274
   6523SM   H8S 8379   4.574   3.536   6.387 -0.0031  0.2223 -0.6117
   6523SM   H8T 8380   4.736   3.494   6.452  0.1859 -0.8272 -2.1285
   6523SM   C9S 8381   4.739   3.588   6.263 -0.5501  0.1855  0.0855
   6523SM   H9S 8382   4.770   3.486   6.233  0.6053  0.0344  1.6516
   6523SM   H9T 8383   4.836   3.641   6.277 -0.8106  0.1604  2.4141
   6523SM  C10S 8384   4.660   3.654   6.157  0.2961  0.6267 -0.0626
   6523SM  H10S 8385   4.639   3.759   6.185  1.4700  0.2342  2.5969
   6523SM  H10T 8386   4.562   3.601   6.160  1.4106 -1.5486  0.5354
   6523SM  C11S 8387   4.738   3.655   6.028 -0.3158  0.6820 -0.3222
   6523SM  H11S 8388   4.742   3.547   6.005 -1.5733  0.0910  1.9441
   6523SM  H11T 8389   4.842   3.694   6.031  0.7253 -1.8077 -1.6615
   6523SM  C12S 8390   4.670   3.718   5.906  0.3015 -0.1935 -0.2037
   6523SM  H12S 8391   4.665   3.827   5.927  0.4000 -0.0399 -0.9326
   6523SM  H12T 8392   4.567   3.680   5.926  0.6406 -1.4672 -0.7958
   6523SM  C13S 8393   4.735   3.703   5.775 -0.4184 -0.0469  0.5417
   6523SM  H13S 8394   4.846   3.705   5.788 -0.4274 -0.4715  0.7042
   6523SM  H13T 8395   4.705   3.790   5.713 -0.2942 -1.8803 -2.2826
   6523SM  C14S 8396   4.688   3.571   5.697 -0.6363 -0.0598 -0.3633
   6523SM  H14S 8397   4.584   3.557   5.733  0.3868  1.8064  3.9477
   6523SM  H14T 8398   4.751   3.483   5.720  0.2980  0.3459 -1.3075
   6523SM  C15S 8399   4.687   3.590   5.547 -0.0769  0.5690  0.8641
   6523SM  H15S 8400   4.790   3.609   5.510  0.0652 -1.4286  0.0697
   6523SM  H15T 8401   4.624   3.675   5.514 -0.2961  1.4051  3.2480
   6523SM  C16S 8402   4.644   3.464   5.470 -0.2396 -0.1833  0.3451
   6523SM  H16S 8403   4.544   3.438   5.511 -0.5511  0.0302 -0.2690
   6523SM  H16T 8404   4.715   3.382   5.493  0.6520  0.5381  0.2243
   6523SM  C17S 8405   4.628   3.491   5.317  0.1586 -1.4157  0.0787
   6523SM  H17S 8406   4.722   3.530   5.271 -1.0235 -0.1700 -1.3835
   6523SM  H17T 8407   4.558   3.576   5.302  0.7548 -0.2954  3.0145
   6523SM  C18S 8408   4.576   3.367   5.248  0.8512  0.3032 -0.3450
   6523SM  H18S 8409   4.607   3.271   5.294 -0.1680 -0.4863 -1.2756
   6523SM  H18T 8410   4.575   3.369   5.137 -1.5855 -1.3358 -0.4013
   6523SM  H18U 8411   4.465   3.366   5.246  0.8466 -1.4340 -1.4154
   6523SM   C1F 8412   4.426   4.224   6.821 -0.3987 -0.2939 -0.2341
   6523SM    OF 8413   4.534   4.276   6.831  0.2641  0.0117  0.4657
   6523SM   C2F 8414   4.303   4.286   6.771  0.3212  0.3215  0.1664
   6523SM   H2F 8415   4.266   4.369   6.835  1.4518  0.9877 -0.0275
   6523SM   H2G 8416   4.224   4.208   6.763  3.0612 -2.5482 -1.3502
   6523SM   C3F 8417   4.330   4.354   6.636 -0.0127 -0.0518 -0.2974
   6523SM   H3F 8418   4.363   4.291   6.550 -0.6584 -1.0775  0.1891
   6523SM   H3G 8419   4.412   4.427   6.651 -0.1544 -0.1817  1.2005
   6523SM   C4F 8420   4.206   4.436   6.585 -0.6096 -0.0860  0.8048
   6523SM   H4F 8421   4.168   4.504   6.664 -2.5863 -0.5435  0.2806
   6523SM   H4G 8422   4.125   4.366   6.557  0.7629 -1.1399 -0.7561
   6523SM   C5F 8423   4.232   4.529   6.461  0.3225  0.4693 -0.2163
   6523SM   H5F 8424   4.299   4.612   6.492  1.7052 -0.1181 -1.4973
   6523SM   H5G 8425   4.139   4.580   6.428  0.5325  0.2618 -1.1637
   6523SM   C6F 8426   4.288   4.459   6.333  0.5465 -0.2020  0.3576
   6523SM   H6F 8427   4.214   4.388   6.291  0.1608 -0.0186  0.7273
   6523SM   H6G 8428   4.379   4.397   6.347  1.5187  1.0333 -0.2118
   6523SM   C7F 8429   4.326   4.557   6.218 -0.1627 -0.3240  0.0871
   6523SM   H7F 8430   4.393   4.633   6.264 -0.2981  0.2877 -0.6909
   6523SM   H7G 8431   4.237   4.616   6.189 -0.6663 -1.2418 -0.2509
   6523SM   C8F 8432   4.379   4.501   6.088 -0.9482  0.9035 -0.0918
   6523SM   H8F 8433   4.304   4.427   6.052 -0.1497 -0.1899  0.4568
   6523SM   H8G 8434   4.475   4.452   6.112 -0.7349  1.4695  0.1980
   6523SM   C9F 8435   4.404   4.599   5.967  0.1314  0.1670  0.6331
   6523SM   H9F 8436   4.497   4.656   5.986  0.4520  0.4322 -1.5376
   6523SM   H9G 8437   4.318   4.670   5.973 -0.4559 -0.5633  1.0873
   6523SM  C10F 8438   4.421   4.533   5.833  0.3435  0.0058 -0.2417
   6523SM  H10F 8439   4.329   4.480   5.801  2.5305 -2.9581 -2.2342
   6523SM  H10G 8440   4.490   4.447   5.846 -0.4048 -0.4680  0.7855
   6523SM  C11F 8441   4.453   4.640   5.722 -0.3473  0.4402 -0.1779
   6523SM  H11F 8442   4.554   4.679   5.746 -0.6284  0.0089  1.8385
   6523SM  H11G 8443   4.391   4.731   5.736 -0.8017  0.3343 -1.3061
   6523SM  C12F 8444   4.433   4.589   5.575  0.2846 -0.1562 -0.4532
   6523SM  H12F 8445   4.327   4.556   5.570  0.3751 -0.2176 -2.7360
   6523SM  H12G 8446   4.494   4.498   5.559  1.6073  0.7784 -0.9012
   6523SM  C13F 8447   4.469   4.696   5.472  0.1687 -0.5213 -0.7354
   6523SM  H13F 8448   4.412   4.786   5.503  0.2328 -0.5114 -0.6440
   6523SM  H13G 8449   4.437   4.657   5.373 -0.3046 -0.7457 -0.4957
   6523SM  C14F 8450   4.619   4.739   5.461 -0.0217  0.0503  0.4871
   6523SM  H14F 8451   4.680   4.647   5.449 -0.0744  0.2792 -2.0277
   6523SM  H14G 8452   4.647   4.796   5.552 -0.8429 -0.4639  1.0810
   6523SM  C15F 8453   4.650   4.832   5.340  0.3433  0.7363  0.1534
   6523SM  H15F 8454   4.575   4.913   5.346 -1.7427 -1.1580  0.8802
   6523SM  H15G 8455   4.620   4.778   5.248 -0.2330  0.6046  0.4177
   6523SM  C16F 8456   4.792   4.892   5.333  0.1023 -0.2546 -0.8086
   6523SM  H16F 8457   4.866   4.819   5.371  0.0849 -0.3048 -0.8712
   6523SM  H16G 8458   4.787   4.971   5.411 -0.9215 -0.1107 -1.0002
   6523SM  C17F 8459   4.825   4.953   5.197  0.4376  0.1164  0.3786
   6523SM  H17F 8460   4.918   5.012   5.214  0.7795 -0.0651 -0.7964
   6523SM  H17G 8461   4.740   5.016   5.162  0.0695 -2.1422 -3.2108
   6523SM  C18F 8462   4.865   4.849   5.099  0.2277  0.6155  0.5580
   6523SM  H18F 8463   4.792   4.767   5.082  3.6001 -2.3461 -1.1510
   6523SM  H18G 8464   4.950   4.788   5.137  1.3870  0.7803 -1.5801
   6523SM  C19F 8465   4.898   4.900   4.956 -0.5791 -0.0926 -0.7933
   6523SM  H19F 8466   4.987   4.966   4.966 -0.4709 -0.5512  2.1912
   6523SM  H19G 8467   4.812   4.964   4.927 -0.9249  0.0693  0.5150
   6523SM  C20F 8468   4.916   4.788   4.858  0.6143  0.4551  0.5527
   6523SM  H20F 8469   4.895   4.819   4.753 -0.9673 -3.1000 -0.3405
   6523SM  H20G 8470   4.836   4.713   4.872 -0.1415  1.1651  0.0788
   6523SM  C21F 8471   5.052   4.716   4.859  0.4575  0.1516 -0.1967
   6523SM  H21F 8472   5.095   4.709   4.962 -2.0815 -1.8581  0.8516
   6523SM  H21G 8473   5.126   4.775   4.801 -0.1277  0.1750 -0.9250
   6523SM  C22F 8474   5.050   4.576   4.794 -0.0541  0.2008 -0.1981
   6523SM  H22F 8475   4.991   4.577   4.699 -1.3013 -0.9932  0.5279
   6523SM  H22G 8476   4.997   4.505   4.861 -2.0786 -2.2403 -3.9990
   6523SM  C23F 8477   5.193   4.538   4.770 -0.6406  0.0882  0.1291
   6523SM  H23F 8478   5.195   4.435   4.728  0.3528  0.5593 -1.0210
   6523SM  H23G 8479   5.256   4.529   4.861 -0.7312 -3.6502 -0.0157
   6523SM  H23H 8480   5.244   4.602   4.696  1.7469 -1.8653 -0.0324
   6623SM     N 8481   3.294   1.490   7.625  0.2649  0.1887 -0.1710
   6623SM   C15 8482   3.203   1.591   7.688  0.5468  0.2724 -0.2756
   6623SM  H15A 8483   3.227   1.602   7.793  0.6804 -0.7784 -0.1848
   6623SM  H15B 8484   3.104   1.549   7.684  1.4460 -2.0724  0.4567
   6623SM  H15C 8485   3.218   1.689   7.645  1.4567  0.9098  1.4062
   6623SM   C14 8486   3.241   1.470   7.491 -0.1364  0.4881  0.5038
   6623SM  H14A 8487   3.298   1.393   7.441  1.8917  1.2553  1.4977
   6623SM  H14B 8488   3.256   1.558   7.430 -0.4777 -0.5807 -1.2056
   6623SM  H14C 8489   3.136   1.445   7.484  0.2593 -1.4345  1.0318
   6623SM   C13 8490   3.427   1.548   7.611  0.1378 -0.4124  0.5566
   6623SM  H13A 8491   3.495   1.480   7.560 -0.1467  0.1368 -0.5822
   6623SM  H13B 8492   3.460   1.578   7.709  0.4111 -0.2058  0.4028
   6623SM  H13C 8493   3.432   1.638   7.552 -0.7589 -0.1950  0.8062
   6623SM   C12 8494   3.285   1.354   7.700 -0.3255 -0.5059  0.4220
   6623SM  H12A 8495   3.181   1.325   7.703 -0.5274  0.1386 -0.0682
   6623SM  H12B 8496   3.316   1.373   7.802 -0.4952 -1.3321  0.6353
   6623SM   C11 8497   3.364   1.228   7.658  0.0663  0.4889  0.3742
   6623SM  H11A 8498   3.308   1.160   7.725 -1.7856  2.1696  0.6292
   6623SM  H11B 8499   3.472   1.232   7.686  0.4104 -1.7006 -0.4396
   6623SM     P 8500   3.279   1.060   7.477 -0.1016 -0.3339 -0.2712
   6623SM   O13 8501   3.334   0.945   7.553 -0.3363  0.0317 -0.8158
   6623SM   O14 8502   3.135   1.080   7.481  0.3502  0.2291  1.2230
   6623SM   O11 8503   3.315   1.041   7.324  0.1804  0.4477 -1.1024
   6623SM   O12 8504   3.350   1.200   7.519 -0.4472  0.3100 -0.7491
   6623SM   C1S 8505   3.282   1.146   7.235 -0.6340  0.2460 -0.2362
   6623SM   H1S 8506   3.340   1.237   7.260 -0.0150 -0.3861  0.6749
   6623SM   H1T 8507   3.176   1.178   7.244 -0.4078  1.8592 -2.4026
   6623SM    NF 8508   3.312   1.209   7.000  0.4351  0.3673 -0.1584
   6623SM   HNF 8509   3.228   1.228   6.949 -0.6565 -0.1480  1.3903
   6623SM   C2S 8510   3.310   1.094   7.094 -0.4544  0.0249 -0.6528
   6623SM   H2S 8511   3.414   1.054   7.090 -1.1091 -1.7013 -1.4175
   6623SM   C3S 8512   3.218   0.971   7.060 -0.0229 -0.9848 -0.5820
   6623SM   H3S 8513   3.113   1.008   7.064 -0.3257 -1.8891  0.2499
   6623SM    O3 8514   3.224   0.868   7.155  0.1829 -0.2626  0.6511
   6623SM   HO3 8515   3.265   0.912   7.229 -0.4342  1.3211  0.1039
   6623SM   C4S 8516   3.236   0.932   6.920 -0.4780  0.2015 -0.6328
   6623SM   H4S 8517   3.178   0.990   6.847  0.1240  1.7860  0.1013
   6623SM   C5S 8518   3.296   0.825   6.870 -0.4898 -0.3251  0.1859
   6623SM   H5S 8519   3.349   0.749   6.928  0.6074  1.1966  1.2705
   6623SM   C6S 8520   3.289   0.773   6.729 -0.0373  0.3006 -0.6374
   6623SM   H6S 8521   3.188   0.728   6.723  0.1655 -0.3180  0.3242
   6623SM   H6T 8522   3.376   0.703   6.736  1.7458  2.4337 -0.5148
   6623SM   C7S 8523   3.300   0.875   6.610  0.1190 -0.2228 -1.1720
   6623SM   H7S 8524   3.386   0.942   6.633  1.0148 -1.6416 -0.2353
   6623SM   H7T 8525   3.218   0.945   6.585 -0.6158 -0.9192 -0.7518
   6623SM   C8S 8526   3.344   0.814   6.479  0.4758  0.5721  0.2638
   6623SM   H8S 8527   3.264   0.752   6.434 -0.5789  1.5129  0.7984
   6623SM   H8T 8528   3.424   0.739   6.497  1.3994  1.7827  1.4938
   6623SM   C9S 8529   3.387   0.914   6.364  0.1754  0.0824 -0.4804
   6623SM   H9S 8530   3.406   0.842   6.281  0.1599  1.3335 -1.6024
   6623SM   H9T 8531   3.481   0.964   6.394  0.3353  0.7028 -1.9251
   6623SM  C10S 8532   3.292   1.034   6.322 -0.2409 -0.1222  0.3531
   6623SM  H10S 8533   3.286   1.100   6.411 -0.1906 -0.8951  0.9489
   6623SM  H10T 8534   3.186   1.002   6.309  0.2622 -1.8239  0.1506
   6623SM  C11S 8535   3.337   1.101   6.187 -0.1953 -0.5237 -0.4527
   6623SM  H11S 8536   3.441   1.137   6.196 -0.8054  0.9935  0.9734
   6623SM  H11T 8537   3.272   1.190   6.172  0.0498 -0.3742 -0.6291
   6623SM  C12S 8538   3.318   1.004   6.068 -0.2830  0.0218  0.2634
   6623SM  H12S 8539   3.217   0.958   6.082 -1.4434  2.3474  0.0763
   6623SM  H12T 8540   3.389   0.919   6.067  0.8973  0.8309 -4.0125
   6623SM  C13S 8541   3.332   1.082   5.939  0.1279  0.7249  0.3203
   6623SM  H13S 8542   3.431   1.132   5.933  0.5318 -0.1599 -0.5237
   6623SM  H13T 8543   3.255   1.162   5.937 -0.6895 -0.0574 -0.3713
   6623SM  C14S 8544   3.330   0.991   5.818 -0.1270 -0.3395  0.5758
   6623SM  H14S 8545   3.227   0.952   5.803 -0.8635  1.2197  1.3435
   6623SM  H14T 8546   3.377   0.891   5.832 -2.3531 -1.9318 -2.1648
   6623SM  C15S 8547   3.398   1.055   5.697  0.0247  0.1978  0.4550
   6623SM  H15S 8548   3.499   1.076   5.738 -0.1461 -1.1212  1.6024
   6623SM  H15T 8549   3.354   1.153   5.669  2.4611  1.3292  0.3516
   6623SM  C16S 8550   3.416   0.966   5.574 -0.0569 -0.3414  0.4836
   6623SM  H16S 8551   3.323   0.970   5.513  0.1595  3.8995  0.1546
   6623SM  H16T 8552   3.433   0.859   5.600 -3.3893 -0.7576  1.4624
   6623SM  C17S 8553   3.534   1.015   5.481  0.2147  0.1851 -0.4879
   6623SM  H17S 8554   3.624   1.007   5.546 -1.0880 -1.3812  1.2500
   6623SM  H17T 8555   3.524   1.124   5.467  1.3253  0.5694  1.4447
   6623SM  C18S 8556   3.541   0.946   5.349 -0.3199  0.5959 -0.4814
   6623SM  H18S 8557   3.624   0.987   5.287  0.0304 -0.2196 -0.5736
   6623SM  H18T 8558   3.442   0.938   5.300 -0.7364 -1.5816  0.5764
   6623SM  H18U 8559   3.568   0.839   5.368  0.9304  1.1142  0.7918
   6623SM   C1F 8560   3.404   1.303   6.997 -0.1381 -0.2170  0.0887
   6623SM    OF 8561   3.496   1.305   7.078 -0.0501 -0.1898  0.5597
   6623SM   C2F 8562   3.380   1.418   6.899  0.0618  0.6691 -0.0581
   6623SM   H2F 8563   3.316   1.491   6.953  1.7375 -0.0444  3.1469
   6623SM   H2G 8564   3.337   1.382   6.803 -1.2097 -1.2333  1.1509
   6623SM   C3F 8565   3.510   1.494   6.865  0.0842 -0.0931  0.3090
   6623SM   H3F 8566   3.574   1.428   6.803 -0.8481 -0.3489 -0.3919
   6623SM   H3G 8567   3.576   1.524   6.950 -2.5418 -0.3454  2.5450
   6623SM   C4F 8568   3.487   1.624   6.781  0.2709  0.7694 -0.3921
   6623SM   H4F 8569   3.460   1.709   6.848 -1.2080 -2.0425  2.8965
   6623SM   H4G 8570   3.393   1.618   6.722 -1.1378  0.1146  1.7616
   6623SM   C5F 8571   3.610   1.650   6.694 -0.5300  0.7565  0.8348
   6623SM   H5F 8572   3.619   1.558   6.634  0.5028 -0.1810  2.3783
   6623SM   H5G 8573   3.702   1.663   6.754 -0.9032  0.1335  1.5437
   6623SM   C6F 8574   3.577   1.773   6.604  0.4713 -0.1342 -1.4799
   6623SM   H6F 8575   3.538   1.851   6.674 -0.7307 -0.7669 -1.4073
   6623SM   H6G 8576   3.484   1.746   6.550  0.8975 -0.8150 -1.8802
   6623SM   C7F 8577   3.693   1.815   6.518  0.3724  0.4634 -0.2206
   6623SM   H7F 8578   3.719   1.724   6.460 -0.4072 -1.4483  2.2503
   6623SM   H7G 8579   3.784   1.833   6.580  0.1084 -1.2652  0.7344
   6623SM   C8F 8580   3.649   1.927   6.430 -1.2478  0.0511 -0.1246
   6623SM   H8F 8581   3.684   2.025   6.469  2.7542 -0.8938 -0.9153
   6623SM   H8G 8582   3.539   1.932   6.417 -1.1230  1.2406 -0.8425
   6623SM   C9F 8583   3.708   1.918   6.292 -0.0714 -0.2880 -0.5532
   6623SM   H9F 8584   3.662   1.838   6.230 -1.9202  0.2585  0.0348
   6623SM   H9G 8585   3.819   1.916   6.288 -0.0018  2.2279 -1.3614
   6623SM  C10F 8586   3.674   2.043   6.206 -0.3825  0.0523  0.8982
   6623SM  H10F 8587   3.709   2.136   6.255 -0.5779 -1.0320  3.2306
   6623SM  H10G 8588   3.565   2.065   6.207 -0.0603  1.8055  1.2181
   6623SM  C11F 8589   3.733   2.032   6.067  1.0094 -0.6029  0.3816
   6623SM  H11F 8590   3.699   1.940   6.017 -0.1249 -1.0299  1.8658
   6623SM  H11G 8591   3.844   2.020   6.073  1.5139  3.1670  2.1885
   6623SM  C12F 8592   3.696   2.159   5.977 -0.6133 -0.1329 -0.3407
   6623SM  H12F 8593   3.755   2.250   6.001 -0.9367  0.1916 -0.7686
   6623SM  H12G 8594   3.588   2.180   5.990 -0.1560  1.0048  2.2262
   6623SM  C13F 8595   3.717   2.113   5.835  0.2336 -0.0211  0.3180
   6623SM  H13F 8596   3.654   2.028   5.802 -0.3031  0.1222  0.9553
   6623SM  H13G 8597   3.822   2.079   5.822  0.3032  0.3637 -0.1717
   6623SM  C14F 8598   3.681   2.225   5.743 -0.5771 -0.4278  0.5586
   6623SM  H14F 8599   3.744   2.314   5.762 -0.6283 -0.0683 -0.8171
   6623SM  H14G 8600   3.580   2.263   5.772  0.1371  1.8504  0.2891
   6623SM  C15F 8601   3.708   2.190   5.597 -0.1932 -0.0611  0.6837
   6623SM  H15F 8602   3.663   2.096   5.561 -3.3438  1.2298  0.9945
   6623SM  H15G 8603   3.818   2.190   5.581 -0.3262  0.7935 -0.2973
   6623SM  C16F 8604   3.660   2.293   5.494 -0.6725  0.1510  0.1350
   6623SM  H16F 8605   3.699   2.395   5.514 -0.0604 -0.2366  0.9560
   6623SM  H16G 8606   3.552   2.295   5.520 -0.1128  1.1058  2.6081
   6623SM  C17F 8607   3.695   2.252   5.349 -0.3857  0.0387 -0.1964
   6623SM  H17F 8608   3.672   2.144   5.334 -0.6890  0.2417 -1.2692
   6623SM  H17G 8609   3.801   2.267   5.322 -0.1234 -3.1057 -1.3553
   6623SM  C18F 8610   3.621   2.347   5.252 -0.3123  0.0476  0.1513
   6623SM  H18F 8611   3.682   2.440   5.241 -3.3009  2.3423  1.4980
   6623SM  H18G 8612   3.522   2.372   5.297 -0.7562  0.0019 -0.7677
   6623SM  C19F 8613   3.605   2.288   5.104 -0.4479  0.1881  0.0573
   6623SM  H19F 8614   3.542   2.365   5.054  3.2205  2.7775 -0.9618
   6623SM  H19G 8615   3.547   2.196   5.129 -0.0579 -0.2521 -0.6236
   6623SM  C20F 8616   3.732   2.253   5.044  0.6788 -0.8451 -0.1318
   6623SM  H20F 8617   3.789   2.182   5.107 -0.7262 -1.7807  0.1334
   6623SM  H20G 8618   3.788   2.348   5.056 -2.6012  1.3825 -0.9602
   6623SM  C21F 8619   3.713   2.211   4.900 -0.2262 -0.0742  0.0918
   6623SM  H21F 8620   3.816   2.217   4.858  0.2898  2.3080  1.4997
   6623SM  H21G 8621   3.650   2.288   4.850  0.8164  2.3256  2.2619
   6623SM  C22F 8622   3.658   2.069   4.886 -0.6332 -0.5531 -0.7829
   6623SM  H22F 8623   3.554   2.061   4.924 -0.3588 -1.2187 -0.1426
   6623SM  H22G 8624   3.715   1.994   4.946  0.9299  0.3759 -1.0319
   6623SM  C23F 8625   3.663   2.026   4.739 -0.2896  0.2456 -0.3511
   6623SM  H23F 8626   3.603   1.935   4.715 -0.6145 -0.0022  1.2840
   6623SM  H23G 8627   3.770   2.008   4.715 -0.1156 -0.7463  0.9981
   6623SM  H23H 8628   3.622   2.117   4.691  0.7092  0.1843 -1.3615
   6723SM     N 8629   3.463   6.474   6.864  0.3096  0.0803 -0.2084
   6723SM   C15 8630   3.440   6.610   6.803  1.0977 -0.3224  1.0650
   6723SM  H15A 8631   3.523   6.628   6.736  0.5837 -1.5173  0.0617
   6723SM  H15B 8632   3.433   6.684   6.881 -1.0622  0.2099  0.4358
   6723SM  H15C 8633   3.346   6.597   6.751  0.3838 -3.4203  2.8994
   6723SM   C14 8634   3.351   6.440   6.953  0.3673  0.6299  0.1144
   6723SM  H14A 8635   3.256   6.431   6.901 -0.4643 -1.8317  1.8783
   6723SM  H14B 8636   3.345   6.499   7.043 -0.6560  0.3218  0.2641
   6723SM  H14C 8637   3.366   6.341   6.993  2.6248  0.0320 -1.9665
   6723SM   C13 8638   3.472   6.379   6.750  0.4336 -0.8954 -0.8165
   6723SM  H13A 8639   3.557   6.387   6.684 -1.0723 -1.6805 -2.9555
   6723SM  H13B 8640   3.386   6.376   6.685 -0.2472 -2.1024  0.0956
   6723SM  H13C 8641   3.488   6.278   6.785  0.5072 -0.7785 -0.5044
   6723SM   C12 8642   3.591   6.487   6.941 -0.2288  0.0688 -0.1695
   6723SM  H12A 8643   3.580   6.565   7.015 -1.5181  1.8490 -2.1099
   6723SM  H12B 8644   3.674   6.509   6.876 -0.3209  0.3498 -0.1924
   6723SM   C11 8645   3.647   6.366   7.022 -0.6427 -0.2321 -0.7281
   6723SM  H11A 8646   3.569   6.347   7.099 -1.3108  3.4880 -0.2875
   6723SM  H11B 8647   3.738   6.400   7.077 -1.0444 -1.8393  1.0345
   6723SM     P 8648   3.623   6.117   6.948 -0.3097 -0.6187  0.3290
   6723SM   O13 8649   3.734   6.027   6.998  0.2337 -0.2368  0.3559
   6723SM   O14 8650   3.500   6.125   7.032 -0.5272  0.4963  0.0493
   6723SM   O11 8651   3.585   6.077   6.798 -0.3293 -0.1500 -0.8916
   6723SM   O12 8652   3.680   6.262   6.935 -0.2031 -0.1558 -0.0560
   6723SM   C1S 8653   3.485   5.991   6.754  0.2048 -0.2565 -0.0647
   6723SM   H1S 8654   3.388   6.046   6.759 -0.6506 -1.7502  0.6370
   6723SM   H1T 8655   3.480   5.895   6.811 -1.5894  1.7535  3.5017
   6723SM    NF 8656   3.382   5.896   6.562  0.7504  0.3597 -0.0692
   6723SM   HNF 8657   3.397   5.798   6.549 -2.3044 -0.1308 -0.6692
   6723SM   C2S 8658   3.504   5.962   6.602 -0.3843 -0.0783  0.3544
   6723SM   H2S 8659   3.511   6.058   6.547  0.9277 -0.5841 -0.4092
   6723SM   C3S 8660   3.635   5.885   6.580  0.9112  0.2516 -0.1155
   6723SM   H3S 8661   3.630   5.792   6.639  0.4869  0.6208  0.4356
   6723SM    O3 8662   3.742   5.950   6.646 -0.0178  0.1113 -0.2297
   6723SM   HO3 8663   3.700   6.007   6.710 -1.1345  0.5673 -1.3487
   6723SM   C4S 8664   3.671   5.860   6.439 -0.4120 -0.4101 -0.3614
   6723SM   H4S 8665   3.666   5.951   6.378  0.3065 -0.2497 -0.1868
   6723SM   C5S 8666   3.717   5.756   6.370  0.8396 -0.9218  0.3802
   6723SM   H5S 8667   3.720   5.654   6.411  0.4311 -1.2717 -0.4325
   6723SM   C6S 8668   3.749   5.761   6.223  0.2618 -0.2146 -0.2382
   6723SM   H6S 8669   3.846   5.711   6.199  0.3203  0.7795 -2.2615
   6723SM   H6T 8670   3.760   5.867   6.194  2.0123 -0.7061 -1.5192
   6723SM   C7S 8671   3.665   5.687   6.122  0.6064 -0.1561 -0.5929
   6723SM   H7S 8672   3.558   5.692   6.151 -0.0092 -2.3780 -2.1977
   6723SM   H7T 8673   3.676   5.577   6.122  2.0103 -0.0839  1.6171
   6723SM   C8S 8674   3.677   5.749   5.977 -0.5533 -0.8670 -1.0538
   6723SM   H8S 8675   3.775   5.716   5.935 -1.0764 -2.4958 -1.0532
   6723SM   H8T 8676   3.676   5.859   5.993  0.1434 -0.3336 -4.0041
   6723SM   C9S 8677   3.558   5.709   5.894 -0.7721 -0.1749  0.2954
   6723SM   H9S 8678   3.466   5.761   5.928 -1.4337 -0.9350 -0.2872
   6723SM   H9T 8679   3.536   5.600   5.906 -0.4957 -0.5080 -1.7872
   6723SM  C10S 8680   3.582   5.732   5.744 -0.5532  0.0526 -0.7283
   6723SM  H10S 8681   3.489   5.701   5.692 -0.9550  0.2387 -0.1337
   6723SM  H10T 8682   3.666   5.668   5.711 -0.4142 -0.0960 -0.1034
   6723SM  C11S 8683   3.604   5.875   5.708  0.5077 -0.2031 -0.0112
   6723SM  H11S 8684   3.703   5.919   5.730  1.0265 -1.6003  0.5155
   6723SM  H11T 8685   3.542   5.939   5.776  1.9040 -0.1667  1.2763
   6723SM  C12S 8686   3.575   5.905   5.558  0.7491 -0.6112  0.9597
   6723SM  H12S 8687   3.588   6.011   5.528 -0.7515 -0.9831 -1.2561
   6723SM  H12T 8688   3.472   5.877   5.528  1.2121  0.4767 -1.9642
   6723SM  C13S 8689   3.673   5.833   5.460 -0.1128 -0.1235  0.2940
   6723SM  H13S 8690   3.626   5.810   5.362 -1.7383 -0.3544  1.0891
   6723SM  H13T 8691   3.685   5.732   5.505 -1.9122  0.4905  2.3225
   6723SM  C14S 8692   3.799   5.902   5.439 -0.0029  1.0231 -0.7719
   6723SM  H14S 8693   3.859   5.919   5.531 -2.0717  0.6528  0.7472
   6723SM  H14T 8694   3.773   5.999   5.392 -2.5350  1.4344  1.2275
   6723SM  C15S 8695   3.887   5.817   5.345 -0.2442  0.4194  0.3763
   6723SM  H15S 8696   3.826   5.796   5.254  0.2375  1.1846 -0.1466
   6723SM  H15T 8697   3.901   5.721   5.398  0.5691  1.3326  1.8759
   6723SM  C16S 8698   4.016   5.889   5.313  0.4343 -0.2410  0.3534
   6723SM  H16S 8699   4.064   5.920   5.409  1.0338  0.8254 -0.2699
   6723SM  H16T 8700   3.992   5.985   5.262 -1.9947 -1.1922 -0.3992
   6723SM  C17S 8701   4.110   5.812   5.214  0.0734 -0.4122 -0.4872
   6723SM  H17S 8702   4.155   5.731   5.275 -0.3926  1.1105  2.0032
   6723SM  H17T 8703   4.194   5.880   5.186  0.2569 -1.2551 -2.1123
   6723SM  C18S 8704   4.038   5.770   5.088  0.1633 -0.3698  0.3323
   6723SM  H18S 8705   3.966   5.686   5.094 -0.6286  0.3337  0.9767
   6723SM  H18T 8706   4.111   5.740   5.010  0.6686  0.2560  0.5469
   6723SM  H18U 8707   3.973   5.856   5.062 -0.7037 -0.3281  2.4517
   6723SM   C1F 8708   3.258   5.953   6.549  0.0887 -0.2571  0.4812
   6723SM    OF 8709   3.240   6.070   6.591  0.0365  0.3656 -0.2606
   6723SM   C2F 8710   3.145   5.875   6.487 -0.1986 -0.1413 -0.2021
   6723SM   H2F 8711   3.094   5.817   6.566 -2.4049  1.2264 -0.5437
   6723SM   H2G 8712   3.188   5.802   6.416 -2.7193 -0.7575 -1.1929
   6723SM   C3F 8713   3.046   5.957   6.400  0.1987  0.3012 -0.4279
   6723SM   H3F 8714   2.993   6.034   6.459  0.6183  0.7819 -0.6710
   6723SM   H3G 8715   2.967   5.885   6.371  2.3583 -2.3071 -0.2911
   6723SM   C4F 8716   3.097   6.023   6.268  0.4465  0.5475  0.1753
   6723SM   H4F 8717   3.199   6.058   6.294  0.6991  0.1422 -0.2472
   6723SM   H4G 8718   3.044   6.115   6.239 -0.9544 -0.0101  0.8729
   6723SM   C5F 8719   3.086   5.926   6.149 -0.2078 -0.9943  0.3185
   6723SM   H5F 8720   2.980   5.898   6.134 -0.1192 -1.4127  0.4751
   6723SM   H5G 8721   3.153   5.839   6.165  1.6120 -0.3201 -2.7051
   6723SM   C6F 8722   3.132   5.991   6.019 -0.4487 -0.2905 -0.0262
   6723SM   H6F 8723   3.235   6.029   6.034 -0.7701  1.1266 -1.2092
   6723SM   H6G 8724   3.074   6.078   5.984 -1.5508 -1.5649 -1.5087
   6723SM   C7F 8725   3.153   5.883   5.913  0.5634 -0.6936 -0.0198
   6723SM   H7F 8726   3.056   5.829   5.910 -0.7041  1.4948 -0.5269
   6723SM   H7G 8727   3.222   5.809   5.958 -0.3080 -0.7525  1.2781
   6723SM   C8F 8728   3.203   5.931   5.773  0.6053 -0.0579  0.7018
   6723SM   H8F 8729   3.252   5.846   5.722  0.6069  1.0872 -1.3143
   6723SM   H8G 8730   3.287   6.004   5.779 -0.9249  1.9455 -0.8813
   6723SM   C9F 8731   3.095   5.986   5.677  0.3502  0.4757  0.4449
   6723SM   H9F 8732   3.085   6.095   5.690  3.3410  0.8577  0.2539
   6723SM   H9G 8733   3.005   5.922   5.692  0.7010  0.3566  2.3126
   6723SM  C10F 8734   3.130   5.972   5.529 -0.1897 -0.0129  0.0578
   6723SM  H10F 8735   3.158   5.869   5.497  1.7793  0.3018  0.6414
   6723SM  H10G 8736   3.227   6.027   5.521  0.1420 -0.6797 -0.6746
   6723SM  C11F 8737   3.037   6.045   5.424  0.2468 -0.2786 -0.6163
   6723SM  H11F 8738   3.058   6.154   5.419  0.0384 -0.2649 -1.2311
   6723SM  H11G 8739   2.931   6.028   5.453  0.7808 -1.8766  0.5536
   6723SM  C12F 8740   3.047   5.986   5.280  0.3636 -0.0674 -0.2875
   6723SM  H12F 8741   2.965   6.026   5.216 -0.7122 -2.5752 -0.6025
   6723SM  H12G 8742   3.030   5.877   5.280  1.5519 -0.2766 -1.7036
   6723SM  C13F 8743   3.192   6.004   5.229 -0.5169 -0.0250  0.3634
   6723SM  H13F 8744   3.249   5.917   5.269 -1.9765  0.5423  4.1652
   6723SM  H13G 8745   3.249   6.091   5.267  4.1378 -1.0170 -3.3941
   6723SM  C14F 8746   3.202   6.044   5.077 -0.5529  0.1695 -0.3194
   6723SM  H14F 8747   3.310   6.057   5.055 -0.5398  1.3580  0.3748
   6723SM  H14G 8748   3.138   6.131   5.056  0.3118  0.6110 -1.1896
   6723SM  C15F 8749   3.160   5.920   4.987  0.1845 -0.2226 -0.6512
   6723SM  H15F 8750   3.080   5.864   5.040 -0.9300 -0.9514 -2.9798
   6723SM  H15G 8751   3.246   5.850   4.986  0.9813  0.7248 -0.8475
   6723SM  C16F 8752   3.110   5.963   4.852  0.1230 -0.3644  0.2651
   6723SM  H16F 8753   3.179   6.038   4.807 -2.2613  1.0579 -1.2460
   6723SM  H16G 8754   3.014   6.019   4.862 -0.0228 -0.6405  0.4294
   6723SM  C17F 8755   3.093   5.841   4.754 -0.4863 -0.1031 -0.4964
   6723SM  H17F 8756   3.027   5.767   4.805 -1.1443  0.0657 -1.0974
   6723SM  H17G 8757   3.195   5.799   4.743 -0.1766  0.4394  0.1912
   6723SM  C18F 8758   3.040   5.881   4.619  0.2215  0.6076  0.3998
   6723SM  H18F 8759   3.110   5.948   4.565 -1.1243  1.9208  0.2035
   6723SM  H18G 8760   2.958   5.947   4.655  0.5174 -0.1545  2.5833
   6723SM  C19F 8761   3.003   5.759   4.535  0.3585 -0.4275 -0.5508
   6723SM  H19F 8762   2.909   5.714   4.575 -0.6510  0.0143 -2.2959
   6723SM  H19G 8763   3.083   5.682   4.530 -0.0502 -0.8650 -0.5440
   6723SM  C20F 8764   2.964   5.796   4.394 -0.1624 -0.0321  0.2965
   6723SM  H20F 8765   2.879   5.868   4.397 -1.9898 -2.0758  0.2078
   6723SM  H20G 8766   2.927   5.702   4.349  1.1142 -0.9513  1.1261
   6723SM  C21F 8767   3.078   5.846   4.308 -0.0997  0.6814  0.1296
   6723SM  H21F 8768   3.176   5.804   4.336 -0.9792 -0.5912  1.4699
   6723SM  H21G 8769   3.081   5.953   4.338 -2.0000  0.7592  0.1823
   6723SM  C22F 8770   3.059   5.826   4.154  0.2814  0.2753 -0.3931
   6723SM  H22F 8771   2.957   5.864   4.130 -0.5193 -1.7468 -0.4054
   6723SM  H22G 8772   3.044   5.718   4.129  0.1449  0.5681 -1.6101
   6723SM  C23F 8773   3.156   5.895   4.060  0.6289  0.2259  0.2829
   6723SM  H23F 8774   3.162   6.004   4.076 -1.9671  0.2264  1.7914
   6723SM  H23G 8775   3.130   5.879   3.953  1.9912  0.5888 -0.1204
   6723SM  H23H 8776   3.251   5.840   4.075  0.3746  0.1281  1.6909
   6823SM     N 8777   3.729   3.419   7.003  0.4890 -0.5727 -0.2188
   6823SM   C15 8778   3.581   3.400   6.990 -0.4340  0.2202  0.1033
   6823SM  H15A 8779   3.555   3.403   6.885  0.2172  0.6463 -0.0574
   6823SM  H15B 8780   3.535   3.489   7.029  1.5928  1.8704 -1.0433
   6823SM  H15C 8781   3.549   3.307   7.034 -2.4992 -1.1247 -3.7304
   6823SM   C14 8782   3.755   3.543   6.920  0.3397 -0.2228  0.2278
   6823SM  H14A 8783   3.860   3.570   6.916 -0.4166  2.8973 -2.4476
   6823SM  H14B 8784   3.702   3.631   6.954 -0.7697 -0.0722 -1.7534
   6823SM  H14C 8785   3.723   3.516   6.821 -1.5574 -0.8529  0.9504
   6823SM   C13 8786   3.764   3.453   7.143 -0.9684 -0.7209 -0.2605
   6823SM  H13A 8787   3.871   3.457   7.154 -0.9334  1.4548 -0.9971
   6823SM  H13B 8788   3.742   3.373   7.212  0.6647 -1.1247 -0.1605
   6823SM  H13C 8789   3.719   3.541   7.186 -0.0014 -0.9282  1.2247
   6823SM   C12 8790   3.817   3.306   6.946  0.4697  0.1036  0.0572
   6823SM  H12A 8791   3.823   3.224   7.016 -1.7704 -1.1278 -1.0555
   6823SM  H12B 8792   3.920   3.335   6.938  0.9166 -1.5467 -0.5676
   6823SM   C11 8793   3.774   3.241   6.807 -0.0461  0.0915 -0.4736
   6823SM  H11A 8794   3.859   3.172   6.794  0.7340  0.5796  1.5996
   6823SM  H11B 8795   3.791   3.311   6.723 -0.2319  0.2016 -0.4215
   6823SM     P 8796   3.636   3.035   6.882  0.3893 -0.4518 -0.3034
   6823SM   O13 8797   3.749   3.013   6.976  0.3043  0.1849 -0.2326
   6823SM   O14 8798   3.501   3.033   6.935 -0.6021  0.3995 -0.1600
   6823SM   O11 8799   3.665   2.927   6.774  1.1621 -0.5851  0.2702
   6823SM   O12 8800   3.647   3.176   6.806  0.0767 -0.5479  0.2727
   6823SM   C1S 8801   3.603   2.948   6.645 -0.0014  0.5929 -0.5894
   6823SM   H1S 8802   3.654   3.034   6.596  1.4360 -0.3901 -0.8880
   6823SM   H1T 8803   3.494   2.971   6.647 -0.1976 -0.3771  1.1939
   6823SM    NF 8804   3.568   2.861   6.423  0.3180 -0.3085  0.0083
   6823SM   HNF 8805   3.483   2.816   6.398 -0.2767 -0.2013  1.7537
   6823SM   C2S 8806   3.620   2.827   6.551 -0.2714 -0.5985  0.6690
   6823SM   H2S 8807   3.725   2.803   6.525 -1.2721 -3.0008 -1.5891
   6823SM   C3S 8808   3.557   2.703   6.605  0.1234  0.6114  0.4978
   6823SM   H3S 8809   3.446   2.711   6.609  0.0413 -0.3264  0.4305
   6823SM    O3 8810   3.601   2.678   6.739  0.4828  0.0637 -0.4805
   6823SM   HO3 8811   3.659   2.751   6.760 -0.8222  1.0638 -0.2247
   6823SM   C4S 8812   3.595   2.582   6.520  0.5645 -0.3657  0.0753
   6823SM   H4S 8813   3.704   2.569   6.513  0.3757 -2.5273  0.2779
   6823SM   C5S 8814   3.517   2.499   6.444  0.3879  0.4371  0.3507
   6823SM   H5S 8815   3.409   2.514   6.433  0.5753  1.0103 -0.8582
   6823SM   C6S 8816   3.575   2.376   6.365 -0.2482 -0.9305 -0.3100
   6823SM   H6S 8817   3.537   2.277   6.398 -2.7084 -0.2937 -1.0506
   6823SM   H6T 8818   3.684   2.374   6.384 -0.4049 -1.1146  0.6184
   6823SM   C7S 8819   3.549   2.392   6.213  0.5930  0.3042 -0.4320
   6823SM   H7S 8820   3.439   2.391   6.199  0.4408  0.7095  0.5887
   6823SM   H7T 8821   3.589   2.297   6.173 -2.0226 -1.8209  1.6363
   6823SM   C8S 8822   3.626   2.518   6.150 -0.6859 -0.3350  0.4492
   6823SM   H8S 8823   3.734   2.518   6.174 -0.9211 -0.2681  1.5865
   6823SM   H8T 8824   3.588   2.609   6.201 -1.3277 -0.4230  0.1479
   6823SM   C9S 8825   3.601   2.540   5.997  0.1442 -0.7547 -0.0518
   6823SM   H9S 8826   3.495   2.542   5.964 -0.0018 -2.2802  0.2768
   6823SM   H9T 8827   3.647   2.466   5.928  0.2272  0.2514 -1.1173
   6823SM  C10S 8828   3.658   2.677   5.953  0.1419  0.1760  0.0357
   6823SM  H10S 8829   3.759   2.669   5.907 -0.0232  2.2382 -0.8160
   6823SM  H10T 8830   3.653   2.748   6.039  0.5119  1.4131 -0.9200
   6823SM  C11S 8831   3.579   2.739   5.839  0.2333  0.4415 -0.5345
   6823SM  H11S 8832   3.612   2.844   5.829 -0.3409  0.9440  2.0975
   6823SM  H11T 8833   3.473   2.732   5.872  0.7847  0.8197  1.4767
   6823SM  C12S 8834   3.598   2.669   5.711  0.2128  0.3944  0.1568
   6823SM  H12S 8835   3.535   2.577   5.710 -0.1683  0.6415 -1.1053
   6823SM  H12T 8836   3.705   2.647   5.692  0.0706  0.9120 -1.4518
   6823SM  C13S 8837   3.531   2.751   5.601  0.7781  0.4376  0.4719
   6823SM  H13S 8838   3.594   2.841   5.583  1.7954 -0.5052 -0.9502
   6823SM  H13T 8839   3.430   2.783   5.633  1.1668  0.6500  1.5148
   6823SM  C14S 8840   3.510   2.666   5.478  0.0666  0.2758  0.1337
   6823SM  H14S 8841   3.422   2.602   5.498  0.7772 -0.5731  0.5987
   6823SM  H14T 8842   3.590   2.591   5.460 -0.0419 -0.4166  2.3642
   6823SM  C15S 8843   3.482   2.754   5.356  0.1987  0.0532 -0.2727
   6823SM  H15S 8844   3.570   2.821   5.347  0.4335 -0.1988  0.1304
   6823SM  H15T 8845   3.383   2.804   5.368 -0.1394 -0.7567  0.4973
   6823SM  C16S 8846   3.467   2.687   5.223 -0.4912  0.0400 -0.8636
   6823SM  H16S 8847   3.393   2.606   5.237 -0.9498  0.4225 -1.0518
   6823SM  H16T 8848   3.563   2.650   5.180 -0.1236  1.6013 -1.4661
   6823SM  C17S 8849   3.431   2.788   5.119  0.7682 -0.4167  0.0186
   6823SM  H17S 8850   3.509   2.865   5.101  2.0846 -0.9828  2.7253
   6823SM  H17T 8851   3.340   2.843   5.148 -0.5239 -1.9363 -0.9960
   6823SM  C18S 8852   3.413   2.724   4.976  0.1950  0.3523 -0.5422
   6823SM  H18S 8853   3.402   2.791   4.888  2.6821 -1.4010 -2.3281
   6823SM  H18T 8854   3.321   2.661   4.975  0.7798 -0.8687  3.1895
   6823SM  H18U 8855   3.504   2.663   4.960  0.2353  0.5567 -1.0830
   6823SM   C1F 8856   3.627   2.947   6.340  0.5122  0.3700 -1.0245
   6823SM    OF 8857   3.745   2.980   6.352 -0.5168  0.4052  0.2158
   6823SM   C2F 8858   3.544   2.986   6.225 -0.3674 -0.0338 -0.0735
   6823SM   H2F 8859   3.445   3.020   6.261  0.2551 -0.8575  2.6690
   6823SM   H2G 8860   3.537   2.908   6.145  1.4231 -1.4356  1.0429
   6823SM   C3F 8861   3.625   3.111   6.169  0.1869 -0.1721  0.7153
   6823SM   H3F 8862   3.714   3.072   6.115 -0.1137 -0.7614  0.6388
   6823SM   H3G 8863   3.647   3.180   6.253  1.8320  0.3459 -0.0959
   6823SM   C4F 8864   3.546   3.194   6.064 -0.5036  0.2106 -0.0691
   6823SM   H4F 8865   3.592   3.294   6.053  1.0503 -0.7181 -3.4153
   6823SM   H4G 8866   3.450   3.208   6.119  0.0166  1.4561  0.5470
   6823SM   C5F 8867   3.520   3.124   5.932  0.4492 -0.3898  0.0073
   6823SM   H5F 8868   3.434   3.056   5.949 -1.2478  1.5343 -0.4895
   6823SM   H5G 8869   3.605   3.068   5.887  1.7623  1.5577 -0.0620
   6823SM   C6F 8870   3.458   3.220   5.823  0.0183  0.2096 -0.5557
   6823SM   H6F 8871   3.528   3.305   5.805  1.0309 -0.9566 -2.3728
   6823SM   H6G 8872   3.354   3.247   5.853 -0.3281 -2.7541  1.3161
   6823SM   C7F 8873   3.452   3.144   5.688  0.0137 -0.2044 -0.2428
   6823SM   H7F 8874   3.388   3.054   5.693 -1.7099  0.7819 -2.5519
   6823SM   H7G 8875   3.553   3.099   5.678  0.5913  0.9015  0.4065
   6823SM   C8F 8876   3.418   3.232   5.563 -0.5440  0.1944  0.8024
   6823SM   H8F 8877   3.460   3.333   5.581 -0.6756  0.3885  0.0675
   6823SM   H8G 8878   3.308   3.233   5.547 -0.4506  0.8145  0.1776
   6823SM   C9F 8879   3.488   3.172   5.438 -0.1198 -0.2100 -0.4844
   6823SM   H9F 8880   3.426   3.083   5.415 -0.6239 -0.4421  1.5457
   6823SM   H9G 8881   3.589   3.143   5.476  0.2351  2.5090  0.8917
   6823SM  C10F 8882   3.501   3.277   5.327 -0.4503 -0.5513 -0.0864
   6823SM  H10F 8883   3.576   3.353   5.356  2.3592 -2.2371 -2.4121
   6823SM  H10G 8884   3.397   3.311   5.305  0.0014  0.9193 -0.0661
   6823SM  C11F 8885   3.586   3.226   5.208  0.3010  0.2263  0.1527
   6823SM  H11F 8886   3.528   3.145   5.159  0.0755 -0.1054  0.9522
   6823SM  H11G 8887   3.681   3.180   5.243  1.3505 -0.6641 -3.3897
   6823SM  C12F 8888   3.623   3.332   5.103 -0.1266 -0.2309 -0.2395
   6823SM  H12F 8889   3.699   3.405   5.138 -1.0069  1.5906 -1.9337
   6823SM  H12G 8890   3.529   3.391   5.099 -0.7346 -0.8532  2.4832
   6823SM  C13F 8891   3.638   3.289   4.956 -0.1014  0.4664  0.1401
   6823SM  H13F 8892   3.569   3.205   4.934  1.4336 -0.9167  0.3773
   6823SM  H13G 8893   3.737   3.240   4.942  0.0853  1.3943 -2.3183
   6823SM  C14F 8894   3.633   3.402   4.854  0.5064 -0.8388  1.5451
   6823SM  H14F 8895   3.701   3.483   4.889  0.0278 -0.4196  1.5135
   6823SM  H14G 8896   3.535   3.454   4.861  0.8011 -0.1757  0.8181
   6823SM  C15F 8897   3.673   3.367   4.701 -0.0606  0.2485 -0.0696
   6823SM  H15F 8898   3.603   3.294   4.656 -1.3231  1.7286 -0.6127
   6823SM  H15G 8899   3.768   3.312   4.716  0.2382  0.8811  0.3941
   6823SM  C16F 8900   3.682   3.493   4.613 -0.5728  0.5893  0.1960
   6823SM  H16F 8901   3.746   3.568   4.665  0.5070 -0.8861  1.0494
   6823SM  H16G 8902   3.576   3.527   4.614 -0.5302  0.7668 -0.5990
   6823SM  C17F 8903   3.717   3.465   4.471  0.0919  0.5550  0.6365
   6823SM  H17F 8904   3.648   3.391   4.426  1.4804  0.5279 -1.6548
   6823SM  H17G 8905   3.819   3.424   4.453 -0.2925 -0.2116  0.1113
   6823SM  C18F 8906   3.733   3.592   4.393  0.9377 -1.0608 -0.3478
   6823SM  H18F 8907   3.820   3.645   4.438  0.3079 -1.0813  0.9346
   6823SM  H18G 8908   3.647   3.659   4.411  0.2802 -0.9356 -3.3485
   6823SM  C19F 8909   3.764   3.577   4.239  0.8131 -0.1630 -0.2134
   6823SM  H19F 8910   3.675   3.531   4.191 -0.1983 -0.3730  1.7551
   6823SM  H19G 8911   3.850   3.508   4.230  1.2997  0.7130 -3.4701
   6823SM  C20F 8912   3.792   3.719   4.179  0.6255  0.3066  0.3936
   6823SM  H20F 8913   3.881   3.760   4.231 -0.2471  1.0097  1.3684
   6823SM  H20G 8914   3.698   3.777   4.195 -1.0734 -2.0433 -0.4776
   6823SM  C21F 8915   3.821   3.707   4.032  0.1634  0.0906 -0.1809
   6823SM  H21F 8916   3.745   3.664   3.964  1.3490  1.7080 -2.6884
   6823SM  H21G 8917   3.915   3.649   4.042  1.3674  2.0495  0.4572
   6823SM  C22F 8918   3.852   3.845   3.967 -0.8190  0.0609 -0.2995
   6823SM  H22F 8919   3.768   3.914   3.992 -0.4390  1.1429 -1.8826
   6823SM  H22G 8920   3.852   3.837   3.856 -0.7974 -0.5131 -0.2609
   6823SM  C23F 8921   3.990   3.891   4.014  0.3490 -0.3024  0.2184
   6823SM  H23F 8922   3.983   3.892   4.125  0.0423 -2.7888  0.2993
   6823SM  H23G 8923   4.006   3.995   3.979 -0.2775  0.0240  0.8746
   6823SM  H23H 8924   4.075   3.825   3.986  1.1184  0.6580  0.2722
   6923SM     N 8925   4.402   3.045   7.008 -0.2751  0.6151  0.6234
   6923SM   C15 8926   4.545   3.012   6.993 -0.6160  0.1977 -0.1061
   6923SM  H15A 8927   4.601   3.012   7.085  0.6671 -1.8823 -0.8022
   6923SM  H15B 8928   4.597   3.080   6.928 -0.0152 -0.5429 -0.4157
   6923SM  H15C 8929   4.551   2.907   6.968  0.8002 -0.0222  1.0368
   6923SM   C14 8930   4.341   2.951   7.107  0.0884  0.5108 -0.0322
   6923SM  H14A 8931   4.376   2.973   7.207  0.2274  2.6987 -0.5043
   6923SM  H14B 8932   4.366   2.850   7.078  2.4611  1.5978 -2.1447
   6923SM  H14C 8933   4.234   2.966   7.102  0.0505  0.0388 -0.8739
   6923SM   C13 8934   4.384   3.186   7.056 -0.2450 -0.2671  0.4715
   6923SM  H13A 8935   4.406   3.199   7.161  2.5548  0.4671 -0.1267
   6923SM  H13B 8936   4.281   3.217   7.050 -0.3130 -0.7995 -1.8338
   6923SM  H13C 8937   4.437   3.253   6.990  0.3186 -0.5314  0.6556
   6923SM   C12 8938   4.335   3.029   6.871  0.6165 -0.3339  0.0294
   6923SM  H12A 8939   4.388   3.096   6.805  1.7057 -1.0141  0.1933
   6923SM  H12B 8940   4.234   3.065   6.880  0.2113 -0.0189 -3.8584
   6923SM   C11 8941   4.330   2.882   6.804  0.2893  0.3333 -0.9262
   6923SM  H11A 8942   4.427   2.865   6.752  1.0326 -1.1449  0.8589
   6923SM  H11B 8943   4.248   2.904   6.732 -0.8615  0.5088  0.3843
   6923SM     P 8944   4.189   2.663   6.861  0.4268 -0.1292  0.0199
   6923SM   O13 8945   4.208   2.554   6.953  0.0136  0.1618 -0.2004
   6923SM   O14 8946   4.059   2.734   6.873  0.0850  0.2352 -0.0204
   6923SM   O11 8947   4.230   2.624   6.713 -0.4373 -0.1766  0.0306
   6923SM   O12 8948   4.299   2.774   6.893  0.1868 -0.9098 -0.2886
   6923SM   C1S 8949   4.340   2.542   6.693  0.0777  0.1208  0.4377
   6923SM   H1S 8950   4.315   2.438   6.721  0.6380 -0.4741 -1.1572
   6923SM   H1T 8951   4.431   2.585   6.739  0.4426 -1.2619  1.0457
   6923SM    NF 8952   4.478   2.442   6.514 -0.6575 -0.1277 -0.5973
   6923SM   HNF 8953   4.560   2.488   6.480  0.9303 -1.6252  1.0050
   6923SM   C2S 8954   4.365   2.535   6.534 -0.5331 -0.7296 -1.0037
   6923SM   H2S 8955   4.274   2.487   6.493 -2.2956 -1.0613  2.9378
   6923SM   C3S 8956   4.379   2.681   6.474  0.7079 -0.5973 -0.3948
   6923SM   H3S 8957   4.474   2.715   6.520  0.7186 -2.6560  1.2612
   6923SM    O3 8958   4.278   2.779   6.512  0.2520 -0.1491  0.0115
   6923SM   HO3 8959   4.229   2.723   6.572  1.3145 -0.8034  0.2850
   6923SM   C4S 8960   4.384   2.682   6.325 -0.2508 -0.1642 -0.6224
   6923SM   H4S 8961   4.317   2.609   6.276 -1.4836  0.0283  0.7091
   6923SM   C5S 8962   4.473   2.749   6.248 -0.2354  1.0073  0.1072
   6923SM   H5S 8963   4.554   2.806   6.296  0.4150 -1.2646  1.8745
   6923SM   C6S 8964   4.497   2.737   6.097  0.3049  0.0144 -1.0392
   6923SM   H6S 8965   4.607   2.728   6.088  0.3069  0.0194 -1.0214
   6923SM   H6T 8966   4.470   2.828   6.039  0.4793  1.0649  0.4717
   6923SM   C7S 8967   4.423   2.619   6.034  0.4332  0.2526 -0.6890
   6923SM   H7S 8968   4.317   2.644   6.055  0.8969  0.7008  1.3586
   6923SM   H7T 8969   4.448   2.526   6.089 -0.7623 -0.9496 -2.0872
   6923SM   C8S 8970   4.456   2.599   5.890 -0.1244 -0.1518  0.4457
   6923SM   H8S 8971   4.403   2.504   5.869 -0.2552  0.2136 -0.9233
   6923SM   H8T 8972   4.566   2.582   5.887 -0.0653 -0.3649  2.3786
   6923SM   C9S 8973   4.401   2.695   5.788 -0.1612  0.0783  0.3102
   6923SM   H9S 8974   4.449   2.793   5.809 -1.0022  1.4650 -3.3660
   6923SM   H9T 8975   4.293   2.720   5.793  0.3085  2.2125  1.0102
   6923SM  C10S 8976   4.443   2.661   5.650  0.2070 -0.4249  0.0369
   6923SM  H10S 8977   4.411   2.558   5.624  0.4159 -0.5393  0.2306
   6923SM  H10T 8978   4.554   2.671   5.646 -0.0015  2.4614 -1.6423
   6923SM  C11S 8979   4.376   2.748   5.546 -0.4238 -0.3344  0.0222
   6923SM  H11S 8980   4.409   2.853   5.557 -0.6688 -0.4331  1.9251
   6923SM  H11T 8981   4.268   2.727   5.554 -0.0549 -2.2107  0.5929
   6923SM  C12S 8982   4.428   2.706   5.403 -0.4445 -0.5287 -0.5275
   6923SM  H12S 8983   4.419   2.595   5.396 -0.2513 -0.5531 -0.3973
   6923SM  H12T 8984   4.536   2.730   5.395 -0.6652  0.5124 -0.5550
   6923SM  C13S 8985   4.352   2.783   5.302 -0.2820  0.3655  0.0726
   6923SM  H13S 8986   4.373   2.889   5.328 -1.8759  0.7830 -0.2806
   6923SM  H13T 8987   4.245   2.760   5.320 -0.5308  1.4202  0.0363
   6923SM  C14S 8988   4.382   2.764   5.148  0.0342 -0.1021  0.1105
   6923SM  H14S 8989   4.308   2.819   5.086  0.9715  0.9543 -0.0960
   6923SM  H14T 8990   4.387   2.655   5.128  1.1512  0.1731 -1.2426
   6923SM  C15S 8991   4.534   2.803   5.123  0.0969  0.3353  0.2511
   6923SM  H15S 8992   4.589   2.710   5.149  0.3014  0.5265  0.5167
   6923SM  H15T 8993   4.569   2.881   5.194  1.9299 -0.9141  0.7792
   6923SM  C16S 8994   4.558   2.856   4.985  0.3975  0.1734 -0.0090
   6923SM  H16S 8995   4.496   2.945   4.959  0.7911  0.6577  0.6742
   6923SM  H16T 8996   4.548   2.772   4.913 -2.4081  1.7049 -1.6004
   6923SM  C17S 8997   4.703   2.896   4.976  0.3539  0.4250  0.2753
   6923SM  H17S 8998   4.770   2.814   5.010  2.0860  0.9178 -1.7464
   6923SM  H17T 8999   4.726   2.985   5.039  1.9743 -1.2995  2.2490
   6923SM  C18S 9000   4.744   2.924   4.831 -0.2325  0.1279 -0.5469
   6923SM  H18S 9001   4.854   2.944   4.826  0.2367 -1.2426  2.3714
   6923SM  H18T 9002   4.686   3.008   4.787 -2.5219 -1.4862 -0.7952
   6923SM  H18U 9003   4.715   2.834   4.774 -0.2165 -1.4753  1.8343
   6923SM   C1F 9004   4.472   2.309   6.536 -0.6120 -0.0127  0.0682
   6923SM    OF 9005   4.363   2.258   6.562 -0.6562 -0.0889  0.0109
   6923SM   C2F 9006   4.605   2.237   6.517 -0.1391 -0.6874 -0.4007
   6923SM   H2F 9007   4.625   2.178   6.609 -0.9115 -2.4582 -1.3220
   6923SM   H2G 9008   4.681   2.316   6.496 -1.7206  1.0434  0.1179
   6923SM   C3F 9009   4.603   2.136   6.404  0.2452 -0.3107  0.1978
   6923SM   H3F 9010   4.527   2.055   6.409 -0.9114  0.7575  0.6941
   6923SM   H3G 9011   4.701   2.085   6.407  0.6336  0.4530  1.0527
   6923SM   C4F 9012   4.565   2.198   6.259 -0.0593 -0.2463  0.3179
   6923SM   H4F 9013   4.639   2.280   6.250 -2.4425  2.2968  2.1569
   6923SM   H4G 9014   4.470   2.255   6.259  0.0036 -0.0996  1.8475
   6923SM   C5F 9015   4.564   2.094   6.141  0.0336 -0.2702 -0.1283
   6923SM   H5F 9016   4.487   2.023   6.179  0.7096 -0.7571  0.3661
   6923SM   H5G 9017   4.657   2.036   6.125  0.6039 -0.0204  1.9727
   6923SM   C6F 9018   4.501   2.153   6.013  0.1514 -0.0628  0.4279
   6923SM   H6F 9019   4.462   2.256   6.029  0.2508  0.3935 -1.8289
   6923SM   H6G 9020   4.416   2.090   5.977  0.7194 -0.5651 -0.0621
   6923SM   C7F 9021   4.620   2.159   5.908  0.1075 -0.2994 -0.1807
   6923SM   H7F 9022   4.657   2.056   5.889  2.0961  0.6986 -2.1736
   6923SM   H7G 9023   4.700   2.226   5.946 -0.6369  1.6891 -1.9292
   6923SM   C8F 9024   4.597   2.225   5.777 -0.3636 -0.1254 -0.2807
   6923SM   H8F 9025   4.691   2.213   5.718 -1.1343 -2.4623 -1.1598
   6923SM   H8G 9026   4.565   2.331   5.787 -1.0516 -0.3951  0.4185
   6923SM   C9F 9027   4.478   2.168   5.693 -0.1293 -0.2222 -0.8868
   6923SM   H9F 9028   4.389   2.233   5.703 -0.9304 -1.0798 -2.1358
   6923SM   H9G 9029   4.440   2.068   5.724 -3.3192  0.5309 -1.9414
   6923SM  C10F 9030   4.514   2.158   5.547 -0.5102  0.2496  0.1331
   6923SM  H10F 9031   4.440   2.100   5.487  0.1712 -0.0676 -0.4230
   6923SM  H10G 9032   4.607   2.098   5.550  0.7295  2.1301  0.2001
   6923SM  C11F 9033   4.538   2.291   5.474 -0.6812 -0.4043  0.2483
   6923SM  H11F 9034   4.613   2.353   5.527  1.7150 -0.5528 -2.6884
   6923SM  H11G 9035   4.437   2.338   5.473 -0.6938 -0.3345  1.8712
   6923SM  C12F 9036   4.595   2.267   5.329  0.0110 -0.7783 -0.0391
   6923SM  H12F 9037   4.525   2.201   5.274 -1.7594  0.0329  1.1469
   6923SM  H12G 9038   4.693   2.214   5.334 -0.0484 -1.0287 -1.3044
   6923SM  C13F 9039   4.625   2.397   5.252 -0.3664 -0.0894 -0.1474
   6923SM  H13F 9040   4.683   2.466   5.317  0.4173  0.0136 -0.9277
   6923SM  H13G 9041   4.532   2.450   5.221  0.2972  0.6235 -1.0018
   6923SM  C14F 9042   4.706   2.371   5.124  0.4820  0.1923 -0.2466
   6923SM  H14F 9043   4.661   2.287   5.065  2.4610 -1.6456  0.7246
   6923SM  H14G 9044   4.805   2.331   5.155 -0.2995 -1.5358  0.1512
   6923SM  C15F 9045   4.730   2.486   5.034 -0.2592  0.4866  0.0819
   6923SM  H15F 9046   4.799   2.558   5.083  3.2802 -2.9087  0.5304
   6923SM  H15G 9047   4.631   2.534   5.016 -0.4292 -0.4688 -1.8187
   6923SM  C16F 9048   4.779   2.435   4.890 -0.3565  0.4199 -0.2026
   6923SM  H16F 9049   4.865   2.367   4.905 -0.4279  0.0814 -1.2706
   6923SM  H16G 9050   4.812   2.531   4.844 -1.1492  0.4990 -0.6281
   6923SM  C17F 9051   4.687   2.354   4.797  0.3068 -0.2616  1.1598
   6923SM  H17F 9052   4.677   2.250   4.834 -1.5485 -0.0603  1.3040
   6923SM  H17G 9053   4.737   2.349   4.698 -1.2601  3.1085  0.0481
   6923SM  C18F 9054   4.540   2.402   4.781  0.3433  0.0900 -0.2080
   6923SM  H18F 9055   4.553   2.507   4.745  1.5382  0.1462  0.3395
   6923SM  H18G 9056   4.496   2.408   4.882 -1.2108  2.1292 -0.9242
   6923SM  C19F 9057   4.477   2.317   4.666 -0.1835 -0.1278  0.2747
   6923SM  H19F 9058   4.421   2.225   4.694 -2.2772  0.6647 -1.0827
   6923SM  H19G 9059   4.553   2.292   4.589 -2.1997  1.0902 -2.3015
   6923SM  C20F 9060   4.378   2.405   4.590 -0.0146  0.0500 -0.2942
   6923SM  H20F 9061   4.426   2.500   4.556 -0.4992  0.6185  0.5663
   6923SM  H20G 9062   4.303   2.445   4.661  1.6756  0.2778  1.4580
   6923SM  C21F 9063   4.330   2.330   4.465  0.1006  0.0068 -0.2990
   6923SM  H21F 9064   4.286   2.238   4.508  1.2430  0.4351  1.9330
   6923SM  H21G 9065   4.416   2.309   4.398  0.5860  1.1392 -0.0573
   6923SM  C22F 9066   4.223   2.405   4.388 -0.1070  0.0279  0.3549
   6923SM  H22F 9067   4.265   2.499   4.344  0.9147 -0.4976  0.1638
   6923SM  H22G 9068   4.139   2.419   4.458 -1.1992 -0.3536 -0.8520
   6923SM  C23F 9069   4.174   2.327   4.265 -0.2524  0.2316  0.2257
   6923SM  H23F 9070   4.256   2.326   4.190 -0.7034 -1.4696 -0.2860
   6923SM  H23G 9071   4.082   2.372   4.223 -1.3322 -1.3882  0.7412
   6923SM  H23H 9072   4.145   2.225   4.301  1.9839  0.6728  3.8499
   7023SM     N 9073   3.810   2.594   7.102  0.4180  1.0035 -0.2339
   7023SM   C15 9074   3.942   2.537   7.144 -0.8578 -0.0019  0.6117
   7023SM  H15A 9075   3.991   2.570   7.234  1.7931 -1.1338 -0.3199
   7023SM  H15B 9076   4.023   2.558   7.075  1.3891 -0.9663  2.7976
   7023SM  H15C 9077   3.938   2.430   7.152 -2.2781 -0.0396 -0.2179
   7023SM   C14 9078   3.711   2.568   7.215 -0.4695 -0.3463 -0.2573
   7023SM  H14A 9079   3.744   2.614   7.307 -1.7916 -1.5990  0.8720
   7023SM  H14B 9080   3.706   2.462   7.235  1.9359 -0.3122  0.8907
   7023SM  H14C 9081   3.610   2.600   7.193 -0.5769 -1.0339 -0.8063
   7023SM   C13 9082   3.825   2.738   7.072  0.1985 -0.3840  0.2403
   7023SM  H13A 9083   3.856   2.794   7.158  1.2393 -0.6494  0.0468
   7023SM  H13B 9084   3.728   2.772   7.040  1.1962  1.2192 -1.2715
   7023SM  H13C 9085   3.892   2.756   6.989  1.5026 -0.6059  1.2130
   7023SM   C12 9086   3.759   2.516   6.980 -0.3877  0.3470  0.4577
   7023SM  H12A 9087   3.847   2.502   6.920 -1.6742  0.9443 -1.6859
   7023SM  H12B 9088   3.702   2.582   6.916 -0.2079 -1.2646 -1.4282
   7023SM   C11 9089   3.685   2.385   6.993 -0.8814  0.2342 -0.5468
   7023SM  H11A 9090   3.676   2.353   6.887 -0.5590  0.9742 -0.8060
   7023SM  H11B 9091   3.587   2.406   7.040 -1.4732  3.6105 -2.9608
   7023SM     P 9092   3.862   2.195   7.005 -0.1883 -0.0367  0.2253
   7023SM   O13 9093   3.979   2.195   7.098  0.2466  0.3504  0.2198
   7023SM   O14 9094   3.804   2.064   6.962  0.3057 -0.2791  0.5160
   7023SM   O11 9095   3.910   2.274   6.880  0.1698 -0.4687  0.0398
   7023SM   O12 9096   3.758   2.288   7.070 -0.2545  0.2144  0.6588
   7023SM   C1S 9097   4.042   2.240   6.812  0.0768  0.3143  0.1389
   7023SM   H1S 9098   4.092   2.150   6.851 -2.1154 -0.6222  0.9709
   7023SM   H1T 9099   4.117   2.321   6.828 -0.5766  1.0218 -0.2789
   7023SM    NF 9100   4.128   2.116   6.606  0.3927 -0.9029 -0.7788
   7023SM   HNF 9101   4.194   2.151   6.541 -0.5818 -0.1307 -1.3872
   7023SM   C2S 9102   4.025   2.212   6.662 -0.1579 -0.6718  0.1628
   7023SM   H2S 9103   3.927   2.161   6.649 -0.4250 -0.3836  0.9816
   7023SM   C3S 9104   4.008   2.352   6.582  1.0635  0.8767  0.1728
   7023SM   H3S 9105   4.106   2.403   6.592  2.3856 -1.5744  0.5475
   7023SM    O3 9106   3.918   2.443   6.654  0.3949 -0.4760 -0.2327
   7023SM   HO3 9107   3.910   2.395   6.737  0.4183  0.3970  0.2854
   7023SM   C4S 9108   3.956   2.334   6.444  0.2527 -0.7756  0.2264
   7023SM   H4S 9109   3.875   2.261   6.427  1.2057 -1.5677 -1.1231
   7023SM   C5S 9110   4.017   2.379   6.337 -0.4689 -0.8041  0.1626
   7023SM   H5S 9111   4.107   2.439   6.355 -1.5940  1.1076 -0.3238
   7023SM   C6S 9112   3.981   2.337   6.195 -0.0876  0.1719  0.2457
   7023SM   H6S 9113   3.958   2.427   6.134  0.1072  0.7014  0.9423
   7023SM   H6T 9114   3.899   2.263   6.186  2.3579 -2.4857 -2.7749
   7023SM   C7S 9115   4.113   2.279   6.125 -0.4818 -0.8381 -0.0644
   7023SM   H7S 9116   4.141   2.190   6.185 -3.3751 -0.4807  2.0699
   7023SM   H7T 9117   4.199   2.348   6.118 -1.2330  0.3520  1.7685
   7023SM   C8S 9118   4.075   2.247   5.981  0.1529  0.3093  0.3547
   7023SM   H8S 9119   3.970   2.211   5.978 -0.0740  1.0493 -1.1792
   7023SM   H8T 9120   4.134   2.159   5.949 -1.3858  0.7001 -4.2360
   7023SM   C9S 9121   4.101   2.366   5.885 -0.4267  0.0585 -0.3384
   7023SM   H9S 9122   4.207   2.399   5.882 -0.7947  1.5455  1.2078
   7023SM   H9T 9123   4.032   2.450   5.908  0.0850  1.2557 -2.7745
   7023SM  C10S 9124   4.068   2.354   5.730 -0.3724 -0.0621 -1.0842
   7023SM  H10S 9125   3.977   2.290   5.726 -1.3498  1.3596 -4.1699
   7023SM  H10T 9126   4.150   2.295   5.683  0.3409 -0.0642  0.1208
   7023SM  C11S 9127   4.031   2.479   5.662  0.1679 -0.9804  0.0968
   7023SM  H11S 9128   4.119   2.545   5.678 -0.2215 -0.4471  0.0451
   7023SM  H11T 9129   3.946   2.523   5.718 -0.6422 -0.3593 -1.5763
   7023SM  C12S 9130   3.996   2.474   5.514 -0.2467 -0.2111 -0.3670
   7023SM  H12S 9131   3.945   2.562   5.469  0.2054  1.0326  1.4247
   7023SM  H12T 9132   3.937   2.380   5.503  2.6416 -2.2158 -0.0223
   7023SM  C13S 9133   4.119   2.440   5.431 -0.3026 -0.1254 -0.5805
   7023SM  H13S 9134   4.172   2.352   5.473 -0.3042  0.8322  1.5275
   7023SM  H13T 9135   4.185   2.524   5.463 -0.5168 -0.6620  1.4216
   7023SM  C14S 9136   4.103   2.429   5.276  0.1745  0.3184 -1.0541
   7023SM  H14S 9137   4.114   2.535   5.244  0.9622  1.1851  1.8178
   7023SM  H14T 9138   3.997   2.401   5.257 -0.0243  0.8998 -0.8060
   7023SM  C15S 9139   4.215   2.345   5.214 -0.1143  0.1996 -0.5713
   7023SM  H15S 9140   4.201   2.236   5.230  0.4165 -0.4001 -3.5728
   7023SM  H15T 9141   4.306   2.367   5.272  0.3668  0.3126 -1.3470
   7023SM  C16S 9142   4.240   2.371   5.068 -0.0575 -0.0093  0.4994
   7023SM  H16S 9143   4.333   2.313   5.047  0.3742  0.2984  1.4963
   7023SM  H16T 9144   4.259   2.480   5.052  2.2837 -0.6143 -1.6545
   7023SM  C17S 9145   4.126   2.321   4.974  0.0099  0.1269 -0.1672
   7023SM  H17S 9146   4.119   2.389   4.886 -0.6269 -2.0898 -1.9290
   7023SM  H17T 9147   4.030   2.315   5.029  0.7669  1.1482  1.3246
   7023SM  C18S 9148   4.171   2.189   4.922  0.2610 -0.0572  0.0925
   7023SM  H18S 9149   4.099   2.146   4.849 -0.9339  1.0458  0.5875
   7023SM  H18T 9150   4.185   2.109   4.998  0.5431  0.7828  0.9306
   7023SM  H18U 9151   4.270   2.198   4.872  0.2920  0.1875  0.1993
   7023SM   C1F 9152   4.126   1.985   6.634 -0.1834 -0.3137  1.3284
   7023SM    OF 9153   4.042   1.936   6.702 -0.0773  0.2518 -0.4214
   7023SM   C2F 9154   4.242   1.905   6.563 -0.2917  0.8666 -0.0124
   7023SM   H2F 9155   4.294   1.845   6.640  0.0458  1.7161  0.4376
   7023SM   H2G 9156   4.322   1.977   6.535  1.0840 -0.6678 -0.1642
   7023SM   C3F 9157   4.195   1.820   6.451  0.8351 -0.1504  0.7658
   7023SM   H3F 9158   4.105   1.765   6.486  1.1232 -1.6189 -0.6808
   7023SM   H3G 9159   4.277   1.748   6.431  1.7218  0.6591  1.4095
   7023SM   C4F 9160   4.164   1.902   6.323  0.2791 -0.1904 -0.6405
   7023SM   H4F 9161   4.247   1.975   6.315 -0.2795  0.3857 -1.3739
   7023SM   H4G 9162   4.077   1.971   6.322 -1.6529 -2.4584  0.4250
   7023SM   C5F 9163   4.154   1.792   6.205  0.2360 -1.0342 -0.5195
   7023SM   H5F 9164   4.079   1.725   6.252 -0.6535  0.1119 -0.2275
   7023SM   H5G 9165   4.250   1.744   6.179  1.5182  2.1317 -2.2310
   7023SM   C6F 9166   4.102   1.857   6.077 -0.3821 -0.3171  0.9558
   7023SM   H6F 9167   4.173   1.939   6.055  0.0909 -1.2222 -1.1727
   7023SM   H6G 9168   4.004   1.906   6.094 -0.0561  0.5921  0.3187
   7023SM   C7F 9169   4.083   1.756   5.956  0.8608 -0.0496  0.2063
   7023SM   H7F 9170   3.980   1.720   5.976  0.2894  0.5982 -1.4177
   7023SM   H7G 9171   4.154   1.671   5.965 -0.2818 -1.1191 -0.5647
   7023SM   C8F 9172   4.074   1.826   5.814  0.7698 -0.4092 -0.4765
   7023SM   H8F 9173   4.003   1.910   5.823  0.1121 -0.6628 -2.6147
   7023SM   H8G 9174   4.025   1.753   5.745  0.4391 -1.2515  0.6286
   7023SM   C9F 9175   4.215   1.873   5.761  0.1181  0.5034 -0.2658
   7023SM   H9F 9176   4.296   1.804   5.791  0.2133  0.9940  0.6585
   7023SM   H9G 9177   4.237   1.974   5.802  0.7646  0.4706 -0.5188
   7023SM  C10F 9178   4.212   1.876   5.607  0.2035 -0.3081  0.2794
   7023SM  H10F 9179   4.208   1.769   5.579 -1.3585  0.2146 -1.7132
   7023SM  H10G 9180   4.307   1.924   5.575  0.6168 -1.7192 -0.7093
   7023SM  C11F 9181   4.098   1.958   5.538 -0.5489 -0.7116  0.3985
   7023SM  H11F 9182   4.119   2.064   5.563 -1.8653 -0.1215 -0.8633
   7023SM  H11G 9183   3.999   1.943   5.587 -0.3738 -0.3784  0.8639
   7023SM  C12F 9184   4.088   1.922   5.392 -0.2874 -0.4262 -0.4478
   7023SM  H12F 9185   4.075   1.812   5.405 -0.5347 -0.0550  3.9093
   7023SM  H12G 9186   4.186   1.924   5.340 -0.4359  0.0688 -0.7101
   7023SM  C13F 9187   3.973   1.993   5.327  0.0292  0.0864 -0.6932
   7023SM  H13F 9188   4.006   2.099   5.325  0.3136  0.2356  3.2985
   7023SM  H13G 9189   3.878   1.982   5.384 -0.0131 -1.2946 -0.9984
   7023SM  C14F 9190   3.938   1.930   5.192  0.1040  0.2001  0.8674
   7023SM  H14F 9191   4.028   1.941   5.127 -0.1840  1.4661  0.6491
   7023SM  H14G 9192   3.867   2.004   5.149 -0.7370 -1.9757 -1.7872
   7023SM  C15F 9193   3.864   1.796   5.188  0.1064  0.1092  0.4060
   7023SM  H15F 9194   3.754   1.802   5.177  0.0132  1.1337  1.7854
   7023SM  H15G 9195   3.874   1.765   5.294  0.9777  2.1765  0.9671
   7023SM  C16F 9196   3.946   1.703   5.093  0.1391 -0.7591 -0.0062
   7023SM  H16F 9197   3.900   1.602   5.102 -0.4530 -0.4598  0.4274
   7023SM  H16G 9198   4.051   1.699   5.128 -0.3858 -2.0805  1.5721
   7023SM  C17F 9199   3.945   1.737   4.944  0.0455  0.0226  0.8009
   7023SM  H17F 9200   4.006   1.827   4.921 -2.8162  1.7426 -0.6784
   7023SM  H17G 9201   3.849   1.788   4.918  1.3059  2.1901  0.0912
   7023SM  C18F 9202   3.976   1.617   4.857  0.0484  0.1682 -0.3237
   7023SM  H18F 9203   3.924   1.631   4.760  0.5080  0.4304 -0.5373
   7023SM  H18G 9204   3.938   1.529   4.912  0.7332  0.3312  0.4293
   7023SM  C19F 9205   4.130   1.588   4.838  0.0512  0.1179 -0.1204
   7023SM  H19F 9206   4.169   1.589   4.942 -1.0672  2.6775  0.3448
   7023SM  H19G 9207   4.169   1.676   4.783 -0.0195  1.3278  1.7018
   7023SM  C20F 9208   4.152   1.453   4.778  0.6567  0.4045 -0.2107
   7023SM  H20F 9209   4.104   1.452   4.678  0.0363 -0.7752  0.0884
   7023SM  H20G 9210   4.099   1.380   4.843  0.8823  0.0582 -0.4155
   7023SM  C21F 9211   4.300   1.401   4.768  0.1562  0.2271  0.4979
   7023SM  H21F 9212   4.335   1.443   4.671  0.1433  0.1816  0.4733
   7023SM  H21G 9213   4.295   1.292   4.749  2.3959  0.4088 -1.6977
   7023SM  C22F 9214   4.378   1.433   4.901  0.0720 -0.9493  0.0702
   7023SM  H22F 9215   4.322   1.382   4.982 -1.6664 -1.8150 -1.5832
   7023SM  H22G 9216   4.371   1.540   4.930  0.1571 -0.8110 -0.4019
   7023SM  C23F 9217   4.522   1.396   4.889  0.4458  0.4151 -0.3696
   7023SM  H23F 9218   4.565   1.463   4.812  1.5135 -1.3483 -1.3986
   7023SM  H23G 9219   4.526   1.291   4.853 -2.6049  0.4440 -1.0401
   7023SM  H23H 9220   4.564   1.426   4.988 -0.1623  1.4662 -0.4163
   7123SM     N 9221   4.295   0.026   6.992 -0.1491 -0.2023 -0.4269
   7123SM   C15 9222   4.247   0.063   6.854 -0.4135  0.3809 -0.0697
   7123SM  H15A 9223   4.197  -0.029   6.826 -0.1504  0.1188  0.3057
   7123SM  H15B 9224   4.330   0.076   6.785  0.7553 -0.0187  1.2121
   7123SM  H15C 9225   4.172   0.140   6.851 -1.2452 -0.3218  1.5260
   7123SM   C14 9226   4.175  -0.039   7.070 -0.3217  0.9623 -0.0363
   7123SM  H14A 9227   4.090   0.027   7.082 -1.2100  0.3223 -2.3636
   7123SM  H14B 9228   4.210  -0.081   7.163  1.1065 -2.2311 -1.8544
   7123SM  H14C 9229   4.140  -0.125   7.015 -1.7019  1.3208  0.2432
   7123SM   C13 9230   4.405  -0.079   6.977 -0.1089 -0.0996 -0.3119
   7123SM  H13A 9231   4.465  -0.097   7.065  2.9179 -2.5874 -2.6334
   7123SM  H13B 9232   4.485  -0.039   6.917  0.5084 -0.3371  0.3279
   7123SM  H13C 9233   4.364  -0.174   6.945 -0.1215 -0.1627 -0.1093
   7123SM   C12 9234   4.346   0.151   7.069  0.0381  0.2096 -0.6722
   7123SM  H12A 9235   4.271   0.227   7.052  0.5942  1.4929  1.9968
   7123SM  H12B 9236   4.430   0.198   7.019  0.8986  0.3741  0.8503
   7123SM   C11 9237   4.380   0.134   7.227  0.5503  0.7708  0.3552
   7123SM  H11A 9238   4.289   0.085   7.269  2.3161 -1.9312  1.2911
   7123SM  H11B 9239   4.392   0.236   7.269 -1.3657  1.1602  0.0766
   7123SM     P 9240   4.636   0.110   7.252  0.5747 -0.0698  0.2730
   7123SM   O13 9241   4.626   0.226   7.342 -0.6070  0.3702 -0.4514
   7123SM   O14 9242   4.731   0.007   7.279  0.4556 -0.5349 -0.0723
   7123SM   O11 9243   4.658   0.154   7.098  0.0843  0.0538  0.2494
   7123SM   O12 9244   4.489   0.048   7.244 -0.3521 -1.0457  0.3661
   7123SM   C1S 9245   4.754   0.254   7.075  0.3176 -0.4664  0.3508
   7123SM   H1S 9246   4.853   0.216   7.107 -0.0413 -0.6232  1.2961
   7123SM   H1T 9247   4.731   0.341   7.140 -0.1858  0.3586 -0.8985
   7123SM    NF 9248   4.855   0.420   6.918  0.5614  1.0188  0.0888
   7123SM   HNF 9249   4.814   0.507   6.948 -1.2387  0.1799  0.2022
   7123SM   C2S 9250   4.765   0.302   6.926 -0.4033  0.4720  0.2617
   7123SM   H2S 9251   4.810   0.221   6.865  0.1127 -0.6686  2.0552
   7123SM   C3S 9252   4.628   0.328   6.859  0.1325  0.3421  0.4806
   7123SM   H3S 9253   4.576   0.406   6.919  0.7942 -0.4944  2.2113
   7123SM    O3 9254   4.544   0.215   6.854 -0.6012  0.2190  0.3770
   7123SM   HO3 9255   4.583   0.158   6.921 -0.5056  0.3577  0.4377
   7123SM   C4S 9256   4.640   0.393   6.722 -0.2560 -0.2200  0.0568
   7123SM   H4S 9257   4.665   0.500   6.726  0.0342 -0.3334  1.8841
   7123SM   C5S 9258   4.650   0.321   6.607 -0.5151  0.1764  0.6774
   7123SM   H5S 9259   4.642   0.212   6.621 -0.3958  0.2772  1.5977
   7123SM   C6S 9260   4.692   0.379   6.477  0.1181  0.6679 -0.0195
   7123SM   H6S 9261   4.612   0.407   6.406  0.6986 -0.0481 -0.9775
   7123SM   H6T 9262   4.748   0.296   6.429 -0.2358 -0.0277  0.7380
   7123SM   C7S 9263   4.794   0.499   6.482 -0.1766  0.1881 -0.0392
   7123SM   H7S 9264   4.881   0.466   6.543 -1.1024  1.5682  2.1684
   7123SM   H7T 9265   4.751   0.585   6.537 -0.1882 -0.3334  0.7844
   7123SM   C8S 9266   4.840   0.532   6.341  0.2144  0.0681 -0.4267
   7123SM   H8S 9267   4.912   0.616   6.344 -0.2203  0.4562 -0.5976
   7123SM   H8T 9268   4.745   0.567   6.294  0.0103 -0.7076 -0.6111
   7123SM   C9S 9269   4.898   0.423   6.250  0.5408  0.1682 -0.4434
   7123SM   H9S 9270   4.813   0.362   6.212  1.1931 -2.3559  1.8452
   7123SM   H9T 9271   4.970   0.357   6.303 -0.5311  0.3530  1.3405
   7123SM  C10S 9272   4.960   0.491   6.131  0.1397 -0.0628  0.1582
   7123SM  H10S 9273   4.969   0.409   6.056  0.3318 -0.7563  0.9319
   7123SM  H10T 9274   5.058   0.525   6.171 -1.5745  1.4460  3.4479
   7123SM  C11S 9275   4.879   0.613   6.073 -0.1424  0.5607 -0.1921
   7123SM  H11S 9276   4.939   0.648   5.987 -0.5219  2.3920  0.2468
   7123SM  H11T 9277   4.874   0.695   6.148  0.6525 -0.9096  1.5357
   7123SM  C12S 9278   4.753   0.563   6.011 -0.5582  0.6647 -0.7903
   7123SM  H12S 9279   4.683   0.552   6.097  1.3134  0.8108  0.8138
   7123SM  H12T 9280   4.767   0.458   5.978 -0.9074 -0.1458  1.4153
   7123SM  C13S 9281   4.682   0.652   5.912 -0.4454  0.0824  0.2330
   7123SM  H13S 9282   4.672   0.747   5.969  1.2471 -0.7252  1.9865
   7123SM  H13T 9283   4.586   0.599   5.891  0.8150 -1.8565 -0.9424
   7123SM  C14S 9284   4.760   0.663   5.779  0.1719 -0.4844  0.3425
   7123SM  H14S 9285   4.802   0.564   5.750  1.3206  0.2576 -0.6650
   7123SM  H14T 9286   4.848   0.730   5.783  1.2123 -1.7992  0.3539
   7123SM  C15S 9287   4.681   0.726   5.666 -0.0901 -0.1959  0.8393
   7123SM  H15S 9288   4.673   0.835   5.680  0.7095 -0.2550  1.9847
   7123SM  H15T 9289   4.576   0.691   5.671  0.0912 -0.6018  2.2953
   7123SM  C16S 9290   4.745   0.695   5.525  0.5878  0.2248  0.0629
   7123SM  H16S 9291   4.765   0.587   5.504  0.6888  0.3152 -0.3160
   7123SM  H16T 9292   4.846   0.741   5.521  1.3933 -1.1284  2.7686
   7123SM  C17S 9293   4.667   0.754   5.411 -0.7138 -0.4483 -0.9006
   7123SM  H17S 9294   4.634   0.857   5.438 -1.0252 -0.4648 -1.2017
   7123SM  H17T 9295   4.576   0.689   5.413  0.6990 -2.4770  0.3246
   7123SM  C18S 9296   4.730   0.744   5.274  0.1662  0.4629  0.0374
   7123SM  H18S 9297   4.755   0.638   5.256 -5.4056 -0.9091 -1.5129
   7123SM  H18T 9298   4.820   0.807   5.257  0.0811  0.2556 -1.3648
   7123SM  H18U 9299   4.659   0.775   5.194 -0.0967 -0.7624 -0.2152
   7123SM   C1F 9300   4.983   0.402   6.928  0.3655 -0.6245  0.6527
   7123SM    OF 9301   5.024   0.294   6.913  0.3594 -0.2040  0.4341
   7123SM   C2F 9302   5.064   0.527   6.939  0.1125 -0.5397 -0.4174
   7123SM   H2F 9303   5.104   0.533   7.042  1.8444  0.6864 -1.1079
   7123SM   H2G 9304   5.010   0.624   6.932  0.4631 -0.0343  2.5445
   7123SM   C3F 9305   5.181   0.528   6.843  0.1588 -0.4514  0.3563
   7123SM   H3F 9306   5.233   0.429   6.845  0.2915 -0.3824  0.3170
   7123SM   H3G 9307   5.258   0.604   6.868  0.4371  0.2369 -2.3654
   7123SM   C4F 9308   5.131   0.566   6.704  0.1503 -0.1202  0.1043
   7123SM   H4F 9309   5.084   0.667   6.705  0.2226  0.0522 -3.0513
   7123SM   H4G 9310   5.049   0.498   6.673 -0.5712  0.0834  1.4853
   7123SM   C5F 9311   5.234   0.563   6.593  0.6097  0.0013 -0.4865
   7123SM   H5F 9312   5.305   0.646   6.614  2.3142 -1.9805  2.2649
   7123SM   H5G 9313   5.176   0.580   6.499  1.4876  0.5250 -0.9532
   7123SM   C6F 9314   5.313   0.430   6.583  0.4584 -0.1238 -0.0917
   7123SM   H6F 9315   5.364   0.425   6.682 -1.7362 -1.5376  1.0529
   7123SM   H6G 9316   5.391   0.434   6.504  1.6237 -0.2683  1.0222
   7123SM   C7F 9317   5.232   0.302   6.567 -0.1724  0.0963 -0.1165
   7123SM   H7F 9318   5.169   0.323   6.478 -0.0717 -0.5304 -0.3410
   7123SM   H7G 9319   5.166   0.272   6.651  0.3776 -0.7165  0.0398
   7123SM   C8F 9320   5.329   0.186   6.535 -0.2692 -0.0531  0.9783
   7123SM   H8F 9321   5.364   0.138   6.628  1.4910  2.4103  1.6538
   7123SM   H8G 9322   5.416   0.229   6.482 -1.3262  3.4561  1.8606
   7123SM   C9F 9323   5.260   0.061   6.465  0.1510 -0.4149  0.3240
   7123SM   H9F 9324   5.158   0.051   6.508 -1.0509 -2.3683 -2.6527
   7123SM   H9G 9325   5.319  -0.031   6.485 -1.5653 -1.8126 -0.6622
   7123SM  C10F 9326   5.232   0.079   6.314 -0.0038 -1.3826 -0.5463
   7123SM  H10F 9327   5.333   0.086   6.267  0.9928  1.0153  1.6923
   7123SM  H10G 9328   5.188   0.181   6.306  0.8440 -0.8110  1.4888
   7123SM  C11F 9329   5.142  -0.027   6.257 -0.5015 -0.1511  0.1045
   7123SM  H11F 9330   5.042  -0.014   6.304 -0.5609 -0.8891  0.1957
   7123SM  H11G 9331   5.184  -0.128   6.276  0.2462  0.4845  2.0269
   7123SM  C12F 9332   5.131  -0.023   6.105 -0.4841 -0.7939 -0.2140
   7123SM  H12F 9333   5.077  -0.117   6.082  1.0481 -2.1684  1.5148
   7123SM  H12G 9334   5.233  -0.021   6.060 -0.8608 -1.9853 -1.1465
   7123SM  C13F 9335   5.058   0.099   6.053 -0.5459  0.1425  0.3462
   7123SM  H13F 9336   5.115   0.194   6.057  1.0433 -0.4773 -3.5022
   7123SM  H13G 9337   4.967   0.107   6.117  0.9617 -3.1847  3.2083
   7123SM  C14F 9338   5.012   0.078   5.905 -0.2177  0.1475 -0.5642
   7123SM  H14F 9339   4.946  -0.012   5.907 -1.9449  1.3900  0.1261
   7123SM  H14G 9340   5.095   0.063   5.832 -0.7661 -0.8095 -1.0213
   7123SM  C15F 9341   4.928   0.190   5.844 -0.0444 -0.3266  0.2092
   7123SM  H15F 9342   4.990   0.282   5.856  1.2278 -0.7325 -2.6648
   7123SM  H15G 9343   4.839   0.214   5.908  0.6301  0.2320  0.9620
   7123SM  C16F 9344   4.880   0.161   5.695  0.1481 -0.2635 -0.7065
   7123SM  H16F 9345   4.815   0.071   5.697  0.3885 -0.4817 -2.0967
   7123SM  H16G 9346   4.973   0.144   5.636  0.3815  2.2932 -1.2083
   7123SM  C17F 9347   4.803   0.280   5.647 -0.0018  0.5051  0.2819
   7123SM  H17F 9348   4.860   0.375   5.656 -0.4575  0.5768  3.5724
   7123SM  H17G 9349   4.705   0.293   5.698 -0.8053 -1.5649 -0.6100
   7123SM  C18F 9350   4.765   0.273   5.502 -0.0061 -1.1326 -0.0821
   7123SM  H18F 9351   4.856   0.304   5.446 -0.7368  2.4760  0.5167
   7123SM  H18G 9352   4.688   0.352   5.488  3.2418  2.0535 -1.5548
   7123SM  C19F 9353   4.715   0.139   5.445  0.0016 -0.0342 -0.6015
   7123SM  H19F 9354   4.637   0.100   5.514  1.3258 -0.2159  0.8692
   7123SM  H19G 9355   4.799   0.066   5.448 -0.4032 -0.5587 -1.6913
   7123SM  C20F 9356   4.656   0.145   5.306 -0.4987  0.5766  0.3267
   7123SM  H20F 9357   4.556   0.192   5.295 -0.1205  1.5708  1.0122
   7123SM  H20G 9358   4.633   0.042   5.270  0.1474  0.2468  0.8292
   7123SM  C21F 9359   4.762   0.193   5.203 -0.1265 -0.0343 -0.1525
   7123SM  H21F 9360   4.782   0.302   5.214  1.2378 -0.1719 -0.9828
   7123SM  H21G 9361   4.714   0.176   5.104  0.6099  0.1662 -0.5483
   7123SM  C22F 9362   4.893   0.115   5.209 -0.1965  0.1598  0.0782
   7123SM  H22F 9363   4.952   0.142   5.299 -0.2687 -0.3172  0.2715
   7123SM  H22G 9364   4.954   0.137   5.119 -0.0764  1.2770  0.4151
   7123SM  C23F 9365   4.872  -0.038   5.205  0.3034 -0.3062 -0.4459
   7123SM  H23F 9366   4.834  -0.080   5.300  0.6057  1.2205  0.3746
   7123SM  H23G 9367   4.962  -0.096   5.174  0.5185 -0.4259  0.3735
   7123SM  H23H 9368   4.805  -0.064   5.120  0.1366 -1.4484  0.0235
   7223SM     N 9369   5.917   2.009   7.353 -0.3933  0.0456 -0.6631
   7223SM   C15 9370   5.798   2.038   7.268  0.1547  0.3288  0.2881
   7223SM  H15A 9371   5.821   2.044   7.163  0.2657  0.6103  0.3265
   7223SM  H15B 9372   5.755   2.133   7.296 -1.4761 -0.3064  0.0556
   7223SM  H15C 9373   5.724   1.959   7.276  0.4216  0.0856  0.3513
   7223SM   C14 9374   5.895   2.018   7.500 -0.3913  0.3643 -0.1189
   7223SM  H14A 9375   5.809   1.955   7.518  1.1098 -1.2979  1.7035
   7223SM  H14B 9376   5.877   2.120   7.531  1.1528  1.2577 -1.9271
   7223SM  H14C 9377   5.985   1.983   7.549 -0.3766  1.4975  0.7005
   7223SM   C13 9378   5.965   1.873   7.316 -0.2446 -0.3013  0.4255
   7223SM  H13A 9379   6.059   1.850   7.363  0.0703  0.9706  0.4554
   7223SM  H13B 9380   5.978   1.858   7.210 -0.2763 -0.1576  0.4013
   7223SM  H13C 9381   5.896   1.796   7.349 -0.3232  0.4881  2.2376
   7223SM   C12 9382   6.029   2.108   7.313  0.3318  0.6200  0.1439
   7223SM  H12A 9383   6.038   2.103   7.206  0.0466  1.2549  0.0870
   7223SM  H12B 9384   6.123   2.067   7.347 -1.2973 -3.5806  0.2431
   7223SM   C11 9385   6.016   2.252   7.349  0.1658 -0.1402 -0.7320
   7223SM  H11A 9386   6.115   2.302   7.342  0.4124 -0.7880 -2.6314
   7223SM  H11B 9387   6.004   2.258   7.459 -0.2676  1.2560 -0.8319
   7223SM     P 9388   5.920   2.373   7.132 -0.5293 -0.0192  0.3315
   7223SM   O13 9389   5.794   2.335   7.066  0.4560  0.2840 -0.0331
   7223SM   O14 9390   5.965   2.516   7.129 -0.3761  0.3171  0.3214
   7223SM   O11 9391   6.043   2.286   7.067 -0.1031  0.1889 -0.2561
   7223SM   O12 9392   5.912   2.323   7.280  0.3439 -0.1199 -0.3179
   7223SM   C1S 9393   6.025   2.172   6.978 -0.1900 -0.4224  0.0395
   7223SM   H1S 9394   5.918   2.162   6.950 -0.0251  2.5724 -2.2267
   7223SM   H1T 9395   6.076   2.079   7.011 -0.1872 -0.2421  0.5617
   7223SM    NF 9396   6.035   2.110   6.730  0.4544  0.2073 -0.2657
   7223SM   HNF 9397   6.109   2.047   6.709  0.3456 -0.5144  1.3101
   7223SM   C2S 9398   6.077   2.211   6.829 -0.2313 -0.1254 -0.1513
   7223SM   H2S 9399   6.037   2.310   6.798  0.8728  1.2124  2.3812
   7223SM   C3S 9400   6.232   2.237   6.835 -0.1026  0.3996  1.4039
   7223SM   H3S 9401   6.281   2.142   6.866 -1.3036 -0.9871 -0.7265
   7223SM    O3 9402   6.269   2.317   6.954 -0.3266  0.0032  0.6916
   7223SM   HO3 9403   6.198   2.299   7.015  0.9188  1.4182  2.6370
   7223SM   C4S 9404   6.296   2.274   6.705  0.2744 -0.0358 -0.0858
   7223SM   H4S 9405   6.364   2.203   6.654 -1.0177 -1.4669  0.1120
   7223SM   C5S 9406   6.294   2.398   6.650  0.2511  0.5505  0.6222
   7223SM   H5S 9407   6.241   2.474   6.710 -1.4372  1.7926 -2.2573
   7223SM   C6S 9408   6.348   2.441   6.520 -0.4991 -0.3962 -0.2313
   7223SM   H6S 9409   6.435   2.510   6.525 -0.8918  0.0931 -0.0534
   7223SM   H6T 9410   6.267   2.491   6.463 -0.1370 -0.2966 -0.6668
   7223SM   C7S 9411   6.388   2.326   6.419 -0.7075 -0.5060  0.3911
   7223SM   H7S 9412   6.319   2.238   6.427  0.6382 -1.6988 -0.5965
   7223SM   H7T 9413   6.484   2.285   6.456 -0.7337 -0.8321  0.0998
   7223SM   C8S 9414   6.419   2.376   6.283 -0.3142 -0.2906 -0.2934
   7223SM   H8S 9415   6.464   2.477   6.293  2.8311 -1.6121  0.0586
   7223SM   H8T 9416   6.317   2.395   6.243 -1.2944 -0.0958  2.1522
   7223SM   C9S 9417   6.500   2.280   6.197  0.2655 -0.2413 -0.3705
   7223SM   H9S 9418   6.448   2.182   6.194  0.8922 -0.5671 -1.9611
   7223SM   H9T 9419   6.603   2.264   6.233 -0.2673 -2.8904  0.2019
   7223SM  C10S 9420   6.513   2.334   6.057 -0.3602 -0.2514  0.1886
   7223SM  H10S 9421   6.583   2.421   6.053 -0.2861 -0.2448  1.2533
   7223SM  H10T 9422   6.417   2.380   6.026 -0.6197 -2.0037 -1.8117
   7223SM  C11S 9423   6.532   2.226   5.955  0.0212 -0.3674  0.1697
   7223SM  H11S 9424   6.450   2.152   5.963  1.0586 -1.3801  2.3381
   7223SM  H11T 9425   6.622   2.169   5.985 -0.4226 -1.0820  0.1613
   7223SM  C12S 9426   6.556   2.292   5.814  1.1117  0.3557  0.2767
   7223SM  H12S 9427   6.483   2.365   5.774  0.8381 -2.0296 -4.1727
   7223SM  H12T 9428   6.552   2.205   5.745  0.2915 -0.0220  0.7858
   7223SM  C13S 9429   6.686   2.363   5.804 -0.5712  0.2401 -0.3931
   7223SM  H13S 9430   6.763   2.287   5.830 -0.8556 -0.1633 -0.7169
   7223SM  H13T 9431   6.683   2.444   5.881 -3.4600 -0.5033  0.3869
   7223SM  C14S 9432   6.713   2.435   5.676 -0.3856 -0.7714  0.4951
   7223SM  H14S 9433   6.640   2.517   5.658  1.6741  0.7857 -1.2531
   7223SM  H14T 9434   6.705   2.366   5.590  1.0728 -0.0102 -0.2925
   7223SM  C15S 9435   6.852   2.504   5.678 -1.1284  0.4086 -1.1701
   7223SM  H15S 9436   6.925   2.432   5.721 -0.5525  1.3432 -0.5569
   7223SM  H15T 9437   6.855   2.597   5.738  3.0895 -0.1934 -0.1511
   7223SM  C16S 9438   6.896   2.525   5.534  0.3593 -0.0237  0.3139
   7223SM  H16S 9439   6.882   2.433   5.474  1.3119  0.4981 -0.7453
   7223SM  H16T 9440   7.004   2.551   5.527  0.5460 -0.3039  1.7865
   7223SM  C17S 9441   6.827   2.643   5.475  0.2741 -0.3974 -0.3649
   7223SM  H17S 9442   6.831   2.730   5.544  0.0465  0.5011 -1.4526
   7223SM  H17T 9443   6.719   2.620   5.471  0.2314 -0.0853 -1.1221
   7223SM  C18S 9444   6.880   2.681   5.336 -0.8112 -0.1027  0.1410
   7223SM  H18S 9445   6.839   2.777   5.298 -2.2582 -0.8957 -0.3798
   7223SM  H18T 9446   6.838   2.612   5.261  1.2600 -1.9153  0.5419
   7223SM  H18U 9447   6.991   2.674   5.335 -0.5672  2.4889 -2.0418
   7223SM   C1F 9448   5.907   2.079   6.689 -0.1539  0.1431  0.5945
   7223SM    OF 9449   5.804   2.131   6.736 -0.2249 -0.3623 -0.0419
   7223SM   C2F 9450   5.903   1.973   6.580  0.0424 -0.1641 -0.3530
   7223SM   H2F 9451   5.903   1.870   6.622  1.5784 -0.5173 -1.1148
   7223SM   H2G 9452   5.996   1.988   6.520  1.1717  0.9676  1.5595
   7223SM   C3F 9453   5.776   2.000   6.502  0.6598  0.6051  0.5068
   7223SM   H3F 9454   5.759   2.109   6.489 -0.6691  0.4996  1.2285
   7223SM   H3G 9455   5.695   1.970   6.572  0.3493  0.7072  0.1916
   7223SM   C4F 9456   5.778   1.912   6.379 -0.1182  0.0491  0.2975
   7223SM   H4F 9457   5.877   1.932   6.332  0.8502 -1.0154  1.7668
   7223SM   H4G 9458   5.690   1.939   6.318 -1.1521 -1.8023  0.9000
   7223SM   C5F 9459   5.773   1.762   6.400  0.6056 -0.3419 -0.4006
   7223SM   H5F 9460   5.705   1.730   6.482  2.2956 -0.6309  0.9528
   7223SM   H5G 9461   5.871   1.721   6.433  0.6598  0.4105  0.4231
   7223SM   C6F 9462   5.724   1.691   6.269  0.5572  0.0754  0.5896
   7223SM   H6F 9463   5.620   1.723   6.248  0.0115 -1.8750  0.1369
   7223SM   H6G 9464   5.725   1.580   6.274 -2.1088 -0.0262  0.2013
   7223SM   C7F 9465   5.817   1.718   6.146 -0.6636 -0.6258  0.2878
   7223SM   H7F 9466   5.922   1.691   6.167  0.3109 -0.4297 -3.6319
   7223SM   H7G 9467   5.825   1.826   6.124  1.0109 -0.5486  1.1741
   7223SM   C8F 9468   5.775   1.637   6.026  0.1472  0.7972 -0.1070
   7223SM   H8F 9469   5.671   1.662   5.995  0.2299  0.7536 -0.4156
   7223SM   H8G 9470   5.788   1.531   6.055 -1.1144  0.6731  0.0697
   7223SM   C9F 9471   5.860   1.668   5.900 -0.7408 -0.2338  0.0729
   7223SM   H9F 9472   5.968   1.663   5.925 -0.2944 -0.6566 -1.7989
   7223SM   H9G 9473   5.829   1.767   5.860 -4.3873 -1.4083 -0.4504
   7223SM  C10F 9474   5.835   1.569   5.779  0.1911 -0.1510 -0.7664
   7223SM  H10F 9475   5.729   1.537   5.767 -0.0921  0.8824 -1.0463
   7223SM  H10G 9476   5.879   1.468   5.795  0.1303 -0.1188 -0.3923
   7223SM  C11F 9477   5.888   1.626   5.650  0.8487 -0.0860 -0.4942
   7223SM  H11F 9478   5.911   1.540   5.584  1.7307 -1.1786  1.1640
   7223SM  H11G 9479   5.981   1.674   5.685  0.1616  1.2244 -0.3868
   7223SM  C12F 9480   5.788   1.733   5.595 -0.2400 -0.2567 -0.5240
   7223SM  H12F 9481   5.790   1.818   5.666  0.4268  0.1051 -0.9633
   7223SM  H12G 9482   5.685   1.692   5.598 -0.8656  1.2919  1.3507
   7223SM  C13F 9483   5.827   1.780   5.454 -0.4822  0.6871 -0.2115
   7223SM  H13F 9484   5.925   1.832   5.467  0.2678 -0.8064  0.3222
   7223SM  H13G 9485   5.750   1.846   5.408 -1.3473  1.1879  1.8300
   7223SM  C14F 9486   5.835   1.655   5.355 -0.0515  0.2930 -0.2702
   7223SM  H14F 9487   5.760   1.587   5.402  0.8020  0.9016  2.1112
   7223SM  H14G 9488   5.934   1.605   5.357 -1.3894 -2.6463 -1.1422
   7223SM  C15F 9489   5.805   1.689   5.212  0.1646 -0.5325 -0.4841
   7223SM  H15F 9490   5.884   1.761   5.180 -0.0284 -1.1712 -2.5043
   7223SM  H15G 9491   5.711   1.748   5.205  0.5581 -0.0993 -3.6749
   7223SM  C16F 9492   5.804   1.578   5.107  0.6228  0.3163 -0.1971
   7223SM  H16F 9493   5.712   1.517   5.120  0.3724  0.9448  1.1543
   7223SM  H16G 9494   5.893   1.513   5.120  0.1656 -0.2642  0.1056
   7223SM  C17F 9495   5.811   1.622   4.967  0.1206  0.3368  1.1501
   7223SM  H17F 9496   5.908   1.667   4.938  0.2275 -0.7189 -0.2571
   7223SM  H17G 9497   5.728   1.695   4.960  0.6704  0.8139 -1.0749
   7223SM  C18F 9498   5.782   1.507   4.864 -0.4906 -0.3577 -0.5069
   7223SM  H18F 9499   5.784   1.556   4.764  1.3887  0.9697  0.1183
   7223SM  H18G 9500   5.687   1.455   4.885  0.0772 -0.6499  1.6220
   7223SM  C19F 9501   5.890   1.404   4.877  0.3285  0.4265 -0.4755
   7223SM  H19F 9502   5.874   1.353   4.974  1.1760  0.0162 -0.5434
   7223SM  H19G 9503   5.991   1.450   4.881  0.5671 -0.1492  0.2328
   7223SM  C20F 9504   5.892   1.321   4.749  0.2176 -0.0427 -0.2615
   7223SM  H20F 9505   5.917   1.387   4.663 -1.8607  2.2510  0.7654
   7223SM  H20G 9506   5.792   1.280   4.724  0.5399 -0.5827 -0.6921
   7223SM  C21F 9507   5.999   1.206   4.757 -0.7841 -0.2763  0.2656
   7223SM  H21F 9508   6.095   1.250   4.790 -0.7077 -0.8735  0.8733
   7223SM  H21G 9509   6.013   1.162   4.656 -3.9828 -1.4611  0.2116
   7223SM  C22F 9510   5.961   1.095   4.854 -0.3573 -0.0652 -0.4749
   7223SM  H22F 9511   5.853   1.074   4.837 -0.6201 -0.7834  1.7106
   7223SM  H22G 9512   5.961   1.119   4.963  0.7879 -1.7441 -0.0786
   7223SM  C23F 9513   6.038   0.960   4.846 -0.2000 -0.0671  0.3124
   7223SM  H23F 9514   5.998   0.899   4.762  1.5759 -0.2521 -0.4378
   7223SM  H23G 9515   6.022   0.897   4.937  3.0111 -0.9243  0.4206
   7223SM  H23H 9516   6.146   0.973   4.824 -0.7775  2.9799 -1.2191
   7323SM     N 9517   4.180   1.773   7.120 -0.2563 -0.4330  0.5013
   7323SM   C15 9518   4.294   1.773   7.215 -0.4483 -0.5967 -0.5118
   7323SM  H15A 9519   4.304   1.876   7.245 -0.1595  0.1351 -2.9455
   7323SM  H15B 9520   4.384   1.732   7.172 -0.2376  0.4141 -1.0569
   7323SM  H15C 9521   4.269   1.709   7.299 -3.3953  0.8872 -0.1290
   7323SM   C14 9522   4.106   1.634   7.129 -0.0675  0.0260  0.4138
   7323SM  H14A 9523   4.019   1.645   7.066 -0.5963 -0.4599  1.0445
   7323SM  H14B 9524   4.070   1.610   7.228  1.9265 -0.6865  1.0264
   7323SM  H14C 9525   4.160   1.555   7.080 -0.2835  0.0595  0.1214
   7323SM   C13 9526   4.088   1.885   7.161  0.3382  0.6466 -0.7727
   7323SM  H13A 9527   4.037   1.871   7.255 -0.5611  1.0491 -1.1877
   7323SM  H13B 9528   4.006   1.893   7.091 -0.0977 -0.2583 -0.3785
   7323SM  H13C 9529   4.144   1.977   7.162 -0.0357  0.9585  2.6661
   7323SM   C12 9530   4.233   1.806   6.979  0.4718  0.0124 -0.2864
   7323SM  H12A 9531   4.150   1.821   6.912  0.8829  0.4865 -0.6975
   7323SM  H12B 9532   4.282   1.721   6.934  0.6139  0.1808 -0.4496
   7323SM   C11 9533   4.321   1.935   6.964  0.0739 -0.2172  0.0832
   7323SM  H11A 9534   4.258   2.020   6.998 -0.2598 -0.8200  1.0289
   7323SM  H11B 9535   4.352   1.954   6.859  1.1685  1.3430  0.6596
   7323SM     P 9536   4.576   1.845   7.015 -0.0343  0.0831 -0.1437
   7323SM   O13 9537   4.679   1.912   7.091 -0.9095 -0.9154 -0.3566
   7323SM   O14 9538   4.543   1.711   7.066 -0.4966  0.0764  0.9294
   7323SM   O11 9539   4.610   1.838   6.859 -0.1063  0.1781 -0.4475
   7323SM   O12 9540   4.441   1.926   7.039 -0.0908  0.5769 -0.3736
   7323SM   C1S 9541   4.644   1.716   6.787  0.1929  0.2558 -0.0477
   7323SM   H1S 9542   4.561   1.642   6.786  0.5086 -0.1313  0.8655
   7323SM   H1T 9543   4.729   1.664   6.835 -0.2407 -0.1728  0.2589
   7323SM    NF 9544   4.685   1.623   6.553 -0.3844 -0.5247 -0.1308
   7323SM   HNF 9545   4.772   1.588   6.517  0.4009  2.1727 -1.1606
   7323SM   C2S 9546   4.680   1.746   6.636  0.1437 -0.1609 -0.2260
   7323SM   H2S 9547   4.594   1.803   6.594 -0.0065 -1.8359 -2.3236
   7323SM   C3S 9548   4.809   1.838   6.638 -0.5311  0.3618  0.0588
   7323SM   H3S 9549   4.888   1.790   6.700 -0.3394 -0.8841 -1.1103
   7323SM    O3 9550   4.786   1.957   6.713 -0.4240 -0.6545 -0.1106
   7323SM   HO3 9551   4.706   1.951   6.766 -1.1024 -1.3097 -1.1451
   7323SM   C4S 9552   4.864   1.874   6.503 -0.0930  0.7572  0.4090
   7323SM   H4S 9553   4.795   1.924   6.434  0.1416  1.3459  0.5976
   7323SM   C5S 9554   4.992   1.866   6.470  1.1419  0.1365  0.2931
   7323SM   H5S 9555   5.060   1.817   6.541  1.6631 -0.6100 -0.6924
   7323SM   C6S 9556   5.062   1.925   6.351  0.8479  0.4875 -0.3173
   7323SM   H6S 9557   5.129   1.848   6.306  0.8642  1.0021 -1.1939
   7323SM   H6T 9558   5.108   2.021   6.381 -0.1061  0.7322  0.4339
   7323SM   C7S 9559   4.967   1.955   6.225  0.5141 -0.5895  0.0338
   7323SM   H7S 9560   4.897   2.037   6.253  0.3385 -0.6811 -0.1355
   7323SM   H7T 9561   4.896   1.871   6.207  1.1331 -0.9636 -0.6947
   7323SM   C8S 9562   5.042   1.982   6.098  0.8815  0.3535 -0.9184
   7323SM   H8S 9563   5.117   1.902   6.089  2.0524  1.1359  1.1905
   7323SM   H8T 9564   5.096   2.079   6.103 -1.0422  1.4409  0.9980
   7323SM   C9S 9565   4.970   1.992   5.965  0.5587 -0.2175  0.5438
   7323SM   H9S 9566   4.881   2.054   5.987  0.1247 -0.9277  0.8164
   7323SM   H9T 9567   4.929   1.892   5.938 -0.4051  0.4972 -0.7516
   7323SM  C10S 9568   5.055   2.031   5.839 -0.0954 -0.3803 -0.4249
   7323SM  H10S 9569   5.122   1.948   5.810  1.4234  0.2251  1.1637
   7323SM  H10T 9570   5.106   2.130   5.849  0.6113 -0.9687  2.7611
   7323SM  C11S 9571   4.953   2.033   5.717  0.0873  0.2784 -0.7638
   7323SM  H11S 9572   4.898   2.127   5.738 -2.5544 -1.6125  1.4872
   7323SM  H11T 9573   4.886   1.946   5.737  0.3489  0.9124  3.9873
   7323SM  C12S 9574   5.023   2.009   5.581 -0.7265 -0.1852 -0.6000
   7323SM  H12S 9575   5.068   1.907   5.583 -0.4521 -0.0806  1.9048
   7323SM  H12T 9576   5.101   2.086   5.568  1.3706 -2.3345 -1.6443
   7323SM  C13S 9577   4.926   2.024   5.473  0.3960  0.1786 -0.6284
   7323SM  H13S 9578   4.896   2.130   5.465 -1.6654 -0.2306  0.8435
   7323SM  H13T 9579   4.844   1.949   5.475  1.4627 -1.0133  1.2850
   7323SM  C14S 9580   4.997   2.002   5.341  0.2910 -0.1351  0.6338
   7323SM  H14S 9581   5.036   1.898   5.352 -0.4874 -0.5154 -0.1112
   7323SM  H14T 9582   5.091   2.061   5.333 -1.6062  2.9460 -0.5051
   7323SM  C15S 9583   4.920   2.036   5.213 -0.7097 -0.4934 -0.0454
   7323SM  H15S 9584   4.915   2.145   5.195  1.9641 -0.4847 -1.2435
   7323SM  H15T 9585   4.816   2.001   5.232 -1.6493  1.1702 -1.8210
   7323SM  C16S 9586   4.984   1.973   5.084 -0.3633 -0.3796 -0.1409
   7323SM  H16S 9587   4.953   1.866   5.092  1.6985 -0.9223  1.6676
   7323SM  H16T 9588   5.095   1.975   5.085 -0.3407 -1.0205 -0.5553
   7323SM  C17S 9589   4.934   2.035   4.954  0.0001 -0.3610 -0.4919
   7323SM  H17S 9590   4.973   2.137   4.934 -0.0455 -0.1113  0.6556
   7323SM  H17T 9591   4.824   2.046   4.954  0.0241  0.1452  1.0817
   7323SM  C18S 9592   4.986   1.950   4.837 -0.2303  0.1567  0.4453
   7323SM  H18S 9593   5.096   1.941   4.845 -0.1080  1.7423  1.0746
   7323SM  H18T 9594   4.961   2.002   4.742 -0.6765 -0.0697  0.4377
   7323SM  H18U 9595   4.938   1.851   4.846 -2.4578  0.9669 -1.4860
   7323SM   C1F 9596   4.577   1.555   6.520  0.4626 -0.3080  1.1587
   7323SM    OF 9597   4.466   1.599   6.547  0.0960 -0.2751 -0.3488
   7323SM   C2F 9598   4.589   1.421   6.454 -0.3566 -0.2600  0.6898
   7323SM   H2F 9599   4.541   1.355   6.530  1.7997  0.1068  2.4677
   7323SM   H2G 9600   4.694   1.391   6.434 -0.6101 -0.4578 -0.3803
   7323SM   C3F 9601   4.519   1.416   6.320  0.0116  0.0536  0.5539
   7323SM   H3F 9602   4.411   1.440   6.334 -0.2069 -1.9116  2.7892
   7323SM   H3G 9603   4.520   1.308   6.295 -1.6831 -0.2942  1.7987
   7323SM   C4F 9604   4.589   1.500   6.216 -0.0542 -0.1771 -0.7187
   7323SM   H4F 9605   4.597   1.445   6.119 -1.0157 -0.9911 -0.3518
   7323SM   H4G 9606   4.696   1.521   6.237  0.3635 -0.6830 -2.1599
   7323SM   C5F 9607   4.520   1.634   6.188  0.0092  0.7662 -0.1485
   7323SM   H5F 9608   4.545   1.709   6.266  1.1563 -0.5803  0.8359
   7323SM   H5G 9609   4.411   1.618   6.176  0.0898  1.2112 -1.7366
   7323SM   C6F 9610   4.572   1.712   6.063 -0.2094  0.1412  0.0603
   7323SM   H6F 9611   4.681   1.728   6.078 -0.4648  1.8274  0.3362
   7323SM   H6G 9612   4.531   1.815   6.066 -1.1270 -0.2456  1.5827
   7323SM   C7F 9613   4.549   1.646   5.929  0.2913 -0.4079 -0.5064
   7323SM   H7F 9614   4.441   1.618   5.933  0.6411 -1.8735 -0.5007
   7323SM   H7G 9615   4.618   1.559   5.926  0.6296 -0.2424  1.3131
   7323SM   C8F 9616   4.587   1.727   5.802 -0.1622  0.0488 -0.3978
   7323SM   H8F 9617   4.693   1.760   5.806  0.1195 -0.5825 -1.8870
   7323SM   H8G 9618   4.516   1.812   5.799 -0.1447  0.1796  1.8015
   7323SM   C9F 9619   4.584   1.646   5.670 -0.5717  0.5688  0.3896
   7323SM   H9F 9620   4.488   1.590   5.668 -0.5462  0.5328  0.1673
   7323SM   H9G 9621   4.670   1.577   5.679 -0.4369  0.5465 -0.8881
   7323SM  C10F 9622   4.595   1.731   5.537 -0.5636  0.0870  0.1274
   7323SM  H10F 9623   4.696   1.776   5.524 -1.7228  2.2527 -2.3333
   7323SM  H10G 9624   4.517   1.810   5.543  1.1631  1.9375 -0.5078
   7323SM  C11F 9625   4.547   1.643   5.419 -0.2150  0.1142  0.2236
   7323SM  H11F 9626   4.441   1.620   5.442 -1.0392  1.9012 -1.5283
   7323SM  H11G 9627   4.616   1.556   5.416 -0.5839 -0.1769  0.1687
   7323SM  C12F 9628   4.550   1.704   5.279 -0.1022 -0.1701 -0.3751
   7323SM  H12F 9629   4.517   1.610   5.228 -0.4098 -1.3537  1.8820
   7323SM  H12G 9630   4.651   1.731   5.242 -0.2311 -1.8110 -2.1224
   7323SM  C13F 9631   4.451   1.816   5.249 -0.0913  0.1955 -0.0633
   7323SM  H13F 9632   4.477   1.913   5.297 -0.5677  1.7616 -2.7627
   7323SM  H13G 9633   4.347   1.788   5.278 -0.8509  1.5260 -1.3579
   7323SM  C14F 9634   4.433   1.842   5.096 -0.2652 -0.1236 -0.0357
   7323SM  H14F 9635   4.350   1.914   5.080 -0.6401 -1.1751 -3.4883
   7323SM  H14G 9636   4.393   1.748   5.054 -2.6466  1.1332 -0.7401
   7323SM  C15F 9637   4.554   1.905   5.028 -0.3061 -0.5630  0.0527
   7323SM  H15F 9638   4.635   1.830   5.028  0.3853  0.1606 -0.9995
   7323SM  H15G 9639   4.582   2.003   5.073 -0.1983  0.4578 -2.0877
   7323SM  C16F 9640   4.527   1.940   4.879 -0.2244  0.1799  0.0901
   7323SM  H16F 9641   4.625   1.975   4.839  0.0343 -1.3248 -0.6717
   7323SM  H16G 9642   4.456   2.024   4.891 -1.1776 -0.8473  2.0678
   7323SM  C17F 9643   4.473   1.825   4.789  0.1778 -0.5952 -0.2092
   7323SM  H17F 9644   4.378   1.780   4.826 -0.9809  2.2573  0.5810
   7323SM  H17G 9645   4.551   1.746   4.792 -0.6284 -1.3888  1.7405
   7323SM  C18F 9646   4.467   1.869   4.643 -0.1394 -0.0440 -0.1278
   7323SM  H18F 9647   4.561   1.914   4.606 -0.9115  1.5957 -0.1647
   7323SM  H18G 9648   4.388   1.945   4.627  0.4756  0.1488 -2.7587
   7323SM  C19F 9649   4.424   1.748   4.562  1.2798  0.4657  0.4456
   7323SM  H19F 9650   4.318   1.725   4.588  1.0663  2.8514  1.9936
   7323SM  H19G 9651   4.467   1.654   4.602 -1.7622 -0.3465  2.1374
   7323SM  C20F 9652   4.462   1.765   4.409 -0.8378  0.0221 -0.3513
   7323SM  H20F 9653   4.571   1.782   4.402 -0.9996  0.7305 -1.2610
   7323SM  H20G 9654   4.413   1.859   4.378  0.5846  0.9278  0.0560
   7323SM  C21F 9655   4.428   1.642   4.324 -0.3203  0.5035  0.4456
   7323SM  H21F 9656   4.488   1.553   4.353  0.5904  0.3633 -1.7177
   7323SM  H21G 9657   4.452   1.673   4.221  0.7698  0.8836  0.8011
   7323SM  C22F 9658   4.280   1.605   4.324 -0.0178 -0.0364 -0.0977
   7323SM  H22F 9659   4.220   1.692   4.290 -1.2204 -0.5905  0.5220
   7323SM  H22G 9660   4.261   1.577   4.430 -1.7786 -0.0261 -0.3765
   7323SM  C23F 9661   4.249   1.476   4.246  0.6302  0.5821  0.6935
   7323SM  H23F 9662   4.318   1.393   4.276  2.6776  1.2699 -1.7240
   7323SM  H23G 9663   4.262   1.497   4.138  2.0965 -0.4712  0.6226
   7323SM  H23H 9664   4.145   1.440   4.262  0.4280 -0.8623 -2.9271
   7423SM     N 9665   0.581   4.277   6.854 -0.3945 -0.0896 -0.2117
   7423SM   C15 9666   0.588   4.269   6.998  0.1101 -0.9402  0.3894
   7423SM  H15A 9667   0.677   4.312   7.043  0.2361  0.1127 -0.7891
   7423SM  H15B 9668   0.577   4.165   7.024  0.5928 -1.2620 -0.6497
   7423SM  H15C 9669   0.510   4.325   7.047 -0.9892 -0.3717 -1.8692
   7423SM   C14 9670   0.560   4.424   6.820  0.1719  0.1319  1.1485
   7423SM  H14A 9671   0.454   4.445   6.831  0.1447  0.6659  0.0105
   7423SM  H14B 9672   0.589   4.443   6.717 -0.1978  0.6045  1.1275
   7423SM  H14C 9673   0.626   4.473   6.889 -0.8487  0.7349  1.7136
   7423SM   C13 9674   0.715   4.235   6.807 -0.0897 -0.2993 -0.3888
   7423SM  H13A 9675   0.789   4.307   6.840  0.8823 -1.1869 -0.5815
   7423SM  H13B 9676   0.730   4.226   6.700  0.5697 -0.4206 -0.2932
   7423SM  H13C 9677   0.740   4.135   6.840 -1.9309 -1.0333 -1.1119
   7423SM   C12 9678   0.477   4.181   6.806  0.6427  0.0125  0.0959
   7423SM  H12A 9679   0.389   4.199   6.864  0.0625  1.2590 -1.1076
   7423SM  H12B 9680   0.507   4.080   6.830  0.0609 -0.3078 -0.4944
   7423SM   C11 9681   0.424   4.181   6.654 -0.0362 -0.5779 -0.3244
   7423SM  H11A 9682   0.355   4.095   6.640 -2.7415  1.3563  0.1570
   7423SM  H11B 9683   0.518   4.183   6.596  0.3164  0.5510  0.2495
   7423SM     P 9684   0.221   4.342   6.687 -0.0497 -0.4262 -0.2645
   7423SM   O13 9685   0.147   4.216   6.716  0.0782 -0.1512  0.3952
   7423SM   O14 9686   0.231   4.433   6.804 -0.0956 -0.7608 -0.4226
   7423SM   O11 9687   0.144   4.416   6.575 -0.3440 -0.0719 -0.4838
   7423SM   O12 9688   0.363   4.306   6.637  0.2598  0.9526  1.2241
   7423SM   C1S 9689   0.187   4.551   6.537  0.3717 -0.6678 -0.2090
   7423SM   H1S 9690   0.284   4.592   6.573 -1.1760  1.5544  1.7116
   7423SM   H1T 9691   0.114   4.629   6.568  0.4060 -1.2561  1.4183
   7423SM    NF 9692   0.235   4.699   6.327 -0.2163  0.1234 -0.0541
   7423SM   HNF 9693   0.178   4.775   6.295 -0.3395 -0.2442 -0.7122
   7423SM   C2S 9694   0.172   4.578   6.380  0.1112  0.4666  0.2579
   7423SM   H2S 9695   0.223   4.493   6.328 -0.9199 -1.5998  2.4292
   7423SM   C3S 9696   0.023   4.552   6.339 -0.4780  0.4004 -0.1371
   7423SM   H3S 9697  -0.045   4.629   6.380 -1.2993  1.0130 -2.4690
   7423SM    O3 9698  -0.037   4.434   6.388 -0.0586 -0.1840 -0.0323
   7423SM   HO3 9699   0.017   4.399   6.459  2.3747  1.9284 -0.6695
   7423SM   C4S 9700   0.006   4.565   6.191 -0.5310 -0.7232 -0.3647
   7423SM   H4S 9701   0.005   4.669   6.154  0.2814 -0.5317  0.1212
   7423SM   C5S 9702   0.007   4.467   6.099 -0.1922 -0.0906 -0.0593
   7423SM   H5S 9703   0.036   4.368   6.137  0.2393  0.1867  0.3652
   7423SM   C6S 9704  -0.003   4.485   5.948 -0.4767  0.3526 -0.3925
   7423SM   H6S 9705  -0.108   4.499   5.916 -0.7937  3.9521  1.6232
   7423SM   H6T 9706   0.029   4.393   5.895 -0.1011  0.2746 -0.0429
   7423SM   C7S 9707   0.071   4.607   5.890  0.4579 -0.6794  0.2598
   7423SM   H7S 9708   0.173   4.617   5.933  0.7936 -0.1831 -0.6265
   7423SM   H7T 9709   0.012   4.700   5.901  0.3772 -0.4578 -1.6825
   7423SM   C8S 9710   0.077   4.614   5.736 -0.1988  0.1649 -0.8933
   7423SM   H8S 9711  -0.028   4.623   5.702  0.7467  4.3920 -3.4736
   7423SM   H8T 9712   0.118   4.516   5.704 -0.1960  0.0403 -0.5142
   7423SM   C9S 9713   0.159   4.726   5.681 -0.1013 -0.2085  0.3236
   7423SM   H9S 9714   0.265   4.700   5.701 -0.2008 -1.0461 -0.1956
   7423SM   H9T 9715   0.132   4.825   5.724 -1.8498 -0.7041  0.4418
   7423SM  C10S 9716   0.155   4.744   5.526 -0.4404 -0.2727  0.6653
   7423SM  H10S 9717   0.055   4.772   5.487 -0.3633  0.0633  0.7137
   7423SM  H10T 9718   0.177   4.645   5.479 -0.0107 -0.0569  0.4098
   7423SM  C11S 9719   0.258   4.850   5.471 -0.5688  0.4533  0.0075
   7423SM  H11S 9720   0.239   4.944   5.527  0.5578  0.3453  0.6014
   7423SM  H11T 9721   0.248   4.866   5.362 -0.5599  1.9657  0.2079
   7423SM  C12S 9722   0.408   4.813   5.487 -0.3442  0.8596 -0.6605
   7423SM  H12S 9723   0.415   4.704   5.466 -0.3332  0.6151  0.5429
   7423SM  H12T 9724   0.449   4.839   5.586  0.1863 -0.2879 -0.5544
   7423SM  C13S 9725   0.500   4.883   5.388 -0.5248 -0.0708  0.4045
   7423SM  H13S 9726   0.477   4.990   5.410 -2.4587  0.3709 -2.9859
   7423SM  H13T 9727   0.474   4.881   5.280 -3.7811  1.4304  1.0456
   7423SM  C14S 9728   0.653   4.868   5.410  0.7795  0.1063  0.5278
   7423SM  H14S 9729   0.659   4.882   5.520 -1.8235 -1.0434  0.9010
   7423SM  H14T 9730   0.713   4.940   5.350 -0.2233  0.9714  0.5350
   7423SM  C15S 9731   0.703   4.725   5.381  0.0355  0.3620 -0.2009
   7423SM  H15S 9732   0.671   4.653   5.459  1.2150  0.9759  0.8821
   7423SM  H15T 9733   0.813   4.729   5.389 -0.0160  1.2691  0.2459
   7423SM  C16S 9734   0.658   4.668   5.241  0.4510  0.2086 -0.0801
   7423SM  H16S 9735   0.699   4.746   5.174 -0.2999  0.5031 -0.2071
   7423SM  H16T 9736   0.547   4.669   5.233  0.4303  1.1301  0.2540
   7423SM  C17S 9737   0.728   4.535   5.215  0.0860 -0.3057 -0.2906
   7423SM  H17S 9738   0.697   4.456   5.286 -0.8845  1.4783  1.3545
   7423SM  H17T 9739   0.836   4.555   5.233  0.2521  0.4591 -1.9238
   7423SM  C18S 9740   0.705   4.485   5.070 -0.0584 -0.1617  0.4190
   7423SM  H18S 9741   0.753   4.553   4.997  0.5540 -0.0943  0.8784
   7423SM  H18T 9742   0.598   4.465   5.049  0.2446 -0.2855 -1.0907
   7423SM  H18U 9743   0.752   4.386   5.055 -0.1692 -0.0177 -1.0217
   7423SM   C1F 9744   0.363   4.724   6.351 -0.4001  0.5920  0.2951
   7423SM    OF 9745   0.447   4.640   6.395  0.0839 -0.0872  0.0697
   7423SM   C2F 9746   0.409   4.860   6.303 -0.4833 -0.3762  0.0469
   7423SM   H2F 9747   0.439   4.917   6.394 -2.6214 -1.8245  1.7666
   7423SM   H2G 9748   0.322   4.915   6.261  0.0440  0.7245  0.3619
   7423SM   C3F 9749   0.531   4.859   6.207  0.3515  0.7126 -0.6189
   7423SM   H3F 9750   0.618   4.815   6.259 -0.9249 -2.8370 -1.1877
   7423SM   H3G 9751   0.552   4.966   6.186  1.9041  0.5063 -0.1980
   7423SM   C4F 9752   0.498   4.785   6.072 -0.1318 -0.3449 -0.3711
   7423SM   H4F 9753   0.396   4.813   6.039 -0.5748 -1.1851  0.2293
   7423SM   H4G 9754   0.503   4.675   6.093  1.7254 -0.1202  0.5734
   7423SM   C5F 9755   0.606   4.799   5.960 -0.0473 -0.0044 -0.4646
   7423SM   H5F 9756   0.709   4.779   5.997 -0.9140 -2.7658  0.7317
   7423SM   H5G 9757   0.607   4.905   5.929 -2.3259 -0.6749 -3.2535
   7423SM   C6F 9758   0.580   4.705   5.849  0.4306  0.5297 -0.1566
   7423SM   H6F 9759   0.481   4.725   5.804  0.2094 -0.7749 -0.3068
   7423SM   H6G 9760   0.575   4.604   5.895 -3.1132  1.9988  3.1622
   7423SM   C7F 9761   0.693   4.703   5.739 -0.2818 -0.4900  0.4300
   7423SM   H7F 9762   0.697   4.797   5.681 -0.0096  0.0669  1.3303
   7423SM   H7G 9763   0.663   4.625   5.666  4.3725 -1.1771 -1.0705
   7423SM   C8F 9764   0.824   4.656   5.799  0.1317 -0.0814  0.3225
   7423SM   H8F 9765   0.794   4.559   5.844 -1.2105 -0.2732 -0.8900
   7423SM   H8G 9766   0.871   4.727   5.870  2.7775  0.9240 -2.2553
   7423SM   C9F 9767   0.933   4.614   5.697  0.0589  0.2580 -0.6070
   7423SM   H9F 9768   0.903   4.541   5.619  0.6362  1.7366 -2.3044
   7423SM   H9G 9769   1.017   4.580   5.761  0.0528  0.4945 -0.4717
   7423SM  C10F 9770   0.991   4.737   5.624  0.2273 -1.1688 -0.5332
   7423SM  H10F 9771   1.039   4.811   5.691  0.7269 -1.0646 -0.9996
   7423SM  H10G 9772   0.912   4.800   5.580 -0.9026 -0.5338  2.1652
   7423SM  C11F 9773   1.098   4.700   5.514 -0.5371  0.4080 -0.1132
   7423SM  H11F 9774   1.049   4.653   5.426 -2.7866 -1.7961  2.1497
   7423SM  H11G 9775   1.167   4.627   5.560 -1.1523  0.8642  1.6044
   7423SM  C12F 9776   1.167   4.824   5.469  0.5804  0.3731 -0.0527
   7423SM  H12F 9777   1.224   4.862   5.556  0.1157  1.1453 -0.0744
   7423SM  H12G 9778   1.090   4.899   5.441 -1.2786 -1.7739 -1.1500
   7423SM  C13F 9779   1.271   4.790   5.359  0.3189 -0.1464 -0.7916
   7423SM  H13F 9780   1.210   4.735   5.285 -1.6661 -1.5481  1.7249
   7423SM  H13G 9781   1.355   4.729   5.399  1.0751  1.0584 -0.4963
   7423SM  C14F 9782   1.330   4.918   5.296  0.1094 -0.2479  0.3344
   7423SM  H14F 9783   1.374   4.987   5.371 -2.6744  2.9622 -0.7388
   7423SM  H14G 9784   1.243   4.975   5.256 -0.4279 -2.3492 -1.7154
   7423SM  C15F 9785   1.425   4.892   5.191 -0.2602 -0.2136  0.3378
   7423SM  H15F 9786   1.410   4.789   5.153  0.7157 -0.0552 -0.5169
   7423SM  H15G 9787   1.529   4.895   5.229 -0.0986 -0.5227 -0.0629
   7423SM  C16F 9788   1.403   4.985   5.071 -0.0472  0.4269  0.2975
   7423SM  H16F 9789   1.298   4.977   5.036 -0.3936  1.4089  1.0390
   7423SM  H16G 9790   1.467   4.949   4.988  1.1320  1.0440  0.8959
   7423SM  C17F 9791   1.423   5.130   5.113  0.1721 -0.4088 -0.3269
   7423SM  H17F 9792   1.533   5.134   5.126  0.0711 -0.7655  0.6899
   7423SM  H17G 9793   1.362   5.172   5.196  0.1254  0.8086 -0.9433
   7423SM  C18F 9794   1.378   5.222   4.996  0.0723  0.1098  0.4085
   7423SM  H18F 9795   1.273   5.190   4.975  0.0986 -1.2520  2.1559
   7423SM  H18G 9796   1.451   5.207   4.914  0.2513  2.1396  0.1539
   7423SM  C19F 9797   1.388   5.365   5.032 -0.5203  0.5626 -1.2474
   7423SM  H19F 9798   1.313   5.405   5.104  2.2634  3.4570  0.2742
   7423SM  H19G 9799   1.364   5.428   4.944 -2.9493  0.4832 -0.7257
   7423SM  C20F 9800   1.530   5.396   5.081  0.0686 -0.2858 -0.1673
   7423SM  H20F 9801   1.596   5.376   4.994  1.0982 -1.4564  0.8342
   7423SM  H20G 9802   1.573   5.323   5.153 -0.6933  0.6413  1.2728
   7423SM  C21F 9803   1.555   5.541   5.112 -0.8575  0.1499  0.4534
   7423SM  H21F 9804   1.492   5.568   5.200 -1.9387 -0.0268 -0.2552
   7423SM  H21G 9805   1.527   5.612   5.032 -1.9193  0.2300  0.8783
   7423SM  C22F 9806   1.704   5.569   5.160  0.7660 -0.2304  0.6048
   7423SM  H22F 9807   1.780   5.513   5.100  0.2994 -0.4733  0.2364
   7423SM  H22G 9808   1.713   5.539   5.267 -0.9822 -2.1176  0.2954
   7423SM  C23F 9809   1.736   5.716   5.174 -0.6950 -0.9340 -0.2326
   7423SM  H23F 9810   1.694   5.763   5.265  1.7663 -0.6136  0.8039
   7423SM  H23G 9811   1.704   5.762   5.078 -1.4732 -0.9653  0.0059
   7423SM  H23H 9812   1.846   5.731   5.177 -1.0849  2.4943  0.2067
   7523SM     N 9813   6.777   4.128   7.018  0.3297  0.6283  0.0748
   7523SM   C15 9814   6.868   4.033   7.080 -0.4958  0.4591 -0.5327
   7523SM  H15A 9815   6.934   3.999   7.001 -2.1270 -1.0003 -1.3249
   7523SM  H15B 9816   6.817   3.943   7.113 -0.4596 -0.3794 -2.5516
   7523SM  H15C 9817   6.928   4.074   7.160  0.9883 -0.0713 -1.3323
   7523SM   C14 9818   6.709   4.210   7.121 -0.1236  0.4341 -0.3488
   7523SM  H14A 9819   6.634   4.267   7.069 -1.5530 -2.0211 -1.1535
   7523SM  H14B 9820   6.780   4.276   7.169 -0.0375  0.1547 -0.0911
   7523SM  H14C 9821   6.663   4.145   7.194  0.9894 -0.2361 -0.2314
   7523SM   C13 9822   6.854   4.217   6.929  0.0132  0.0191  0.4546
   7523SM  H13A 9823   6.797   4.289   6.873  1.6450  1.1016  0.1143
   7523SM  H13B 9824   6.900   4.162   6.847  0.1411  0.9247 -0.0914
   7523SM  H13C 9825   6.931   4.265   6.987  0.1150 -0.2842  0.5721
   7523SM   C12 9826   6.683   4.045   6.934  0.4608 -0.1596 -0.3354
   7523SM  H12A 9827   6.602   4.013   6.997 -0.2936  3.1510  0.5664
   7523SM  H12B 9828   6.735   3.960   6.894  0.3042 -0.0943 -0.6853
   7523SM   C11 9829   6.606   4.105   6.814  0.6727  0.9163  0.6167
   7523SM  H11A 9830   6.530   4.034   6.775  0.7455  0.8671  0.5648
   7523SM  H11B 9831   6.678   4.120   6.731  0.8271 -0.5998  0.4508
   7523SM     P 9832   6.390   4.240   6.879  0.2725  0.0932  0.0941
   7523SM   O13 9833   6.355   4.148   6.982 -0.0633  0.6733  0.2211
   7523SM   O14 9834   6.365   4.382   6.918 -0.6358  0.5254  0.0330
   7523SM   O11 9835   6.315   4.209   6.745  0.0555  0.2128 -0.2822
   7523SM   O12 9836   6.545   4.231   6.845  0.5450  0.0541 -0.1407
   7523SM   C1S 9837   6.237   4.089   6.736 -0.7262 -0.3217  0.4978
   7523SM   H1S 9838   6.144   4.095   6.798 -2.2145 -0.7054 -1.5831
   7523SM   H1T 9839   6.302   4.003   6.759  1.3866  1.1359  0.2542
   7523SM    NF 9840   6.076   3.970   6.594  0.8022 -0.8171 -0.1081
   7523SM   HNF 9841   6.107   3.876   6.580 -0.5263 -1.2939 -0.0003
   7523SM   C2S 9842   6.186   4.065   6.588 -0.3516 -0.1031 -0.1898
   7523SM   H2S 9843   6.142   4.158   6.546 -3.5017 -0.2161  2.4497
   7523SM   C3S 9844   6.309   4.018   6.502 -0.1376 -0.2425 -0.1697
   7523SM   H3S 9845   6.329   3.918   6.544  0.7069  0.1447  0.3878
   7523SM    O3 9846   6.426   4.097   6.524 -0.1283 -0.0853  0.1407
   7523SM   HO3 9847   6.397   4.160   6.590  0.9153  0.4729  0.0969
   7523SM   C4S 9848   6.267   4.003   6.357 -0.3765  0.2783 -0.0483
   7523SM   H4S 9849   6.202   3.915   6.342  0.0502  0.2668 -2.0696
   7523SM   C5S 9850   6.295   4.087   6.254 -0.6729  0.2187  0.3512
   7523SM   H5S 9851   6.367   4.169   6.268  1.8154 -2.0728  2.0582
   7523SM   C6S 9852   6.246   4.069   6.113 -0.2316  0.0428 -0.2655
   7523SM   H6S 9853   6.332   4.100   6.050 -0.0251  1.4058  0.6655
   7523SM   H6T 9854   6.161   4.138   6.096  0.4280  1.1362  0.6849
   7523SM   C7S 9855   6.215   3.929   6.072  0.2173 -0.3716 -0.3230
   7523SM   H7S 9856   6.116   3.908   6.118 -0.2337  0.8387 -0.7160
   7523SM   H7T 9857   6.291   3.852   6.100  0.1249  0.6237  3.0951
   7523SM   C8S 9858   6.188   3.916   5.924  0.2149 -0.3430 -0.2125
   7523SM   H8S 9859   6.279   3.958   5.874 -0.3141  2.6160  1.0499
   7523SM   H8T 9860   6.107   3.990   5.909  1.0422  0.7450  0.4986
   7523SM   C9S 9861   6.148   3.779   5.871  0.2961 -0.4443 -0.2703
   7523SM   H9S 9862   6.076   3.729   5.941 -0.6087  0.7214 -0.3348
   7523SM   H9T 9863   6.236   3.712   5.860  0.9615  0.5887 -1.5237
   7523SM  C10S 9864   6.072   3.786   5.735 -0.2870  0.5503  0.5806
   7523SM  H10S 9865   6.118   3.869   5.678  1.5986  1.3598  3.0766
   7523SM  H10T 9866   5.968   3.821   5.754 -0.6502 -0.5507  0.6754
   7523SM  C11S 9867   6.066   3.661   5.649 -0.2842 -0.4417  0.9391
   7523SM  H11S 9868   6.169   3.635   5.617 -0.7047  1.9931 -3.1146
   7523SM  H11T 9869   6.006   3.688   5.559  0.8425  1.0261  0.5760
   7523SM  C12S 9870   5.996   3.544   5.721 -0.5165  0.0139  0.0258
   7523SM  H12S 9871   5.894   3.581   5.744 -0.3905 -0.2618  1.0750
   7523SM  H12T 9872   6.053   3.514   5.811 -0.3776  2.4693  0.8401
   7523SM  C13S 9873   5.987   3.420   5.639 -0.0495  0.4649  0.4529
   7523SM  H13S 9874   6.092   3.394   5.615 -0.2152 -0.2845  0.5187
   7523SM  H13T 9875   5.932   3.441   5.545 -0.9932 -0.9791  0.6560
   7523SM  C14S 9876   5.897   3.304   5.692 -0.3360 -0.4811  0.6178
   7523SM  H14S 9877   5.883   3.230   5.610  0.5591  0.4304 -0.3754
   7523SM  H14T 9878   5.797   3.347   5.712 -0.4126 -0.4626  0.1959
   7523SM  C15S 9879   5.966   3.250   5.816  0.8273 -0.8962 -0.4989
   7523SM  H15S 9880   5.964   3.326   5.896 -0.9468  0.9381 -2.1809
   7523SM  H15T 9881   6.069   3.214   5.794  0.3086 -3.2834  0.6989
   7523SM  C16S 9882   5.899   3.126   5.869 -0.0424 -0.4892 -0.0014
   7523SM  H16S 9883   5.896   3.042   5.797 -1.5205 -0.5186  0.0546
   7523SM  H16T 9884   5.793   3.161   5.876  0.8825  2.5933  0.0183
   7523SM  C17S 9885   5.958   3.073   6.007 -0.3727  0.8955 -0.7221
   7523SM  H17S 9886   6.067   3.078   5.991 -0.7027  0.6576 -3.6288
   7523SM  H17T 9887   5.930   2.966   6.018  0.7957  0.8048  2.0086
   7523SM  C18S 9888   5.905   3.155   6.120  0.6184  0.1847  0.6302
   7523SM  H18S 9889   5.799   3.177   6.093  0.2440 -4.4831 -2.9836
   7523SM  H18T 9890   5.950   3.257   6.123  0.3476  0.3585  5.0730
   7523SM  H18U 9891   5.930   3.106   6.216  3.5398 -0.3134 -0.2940
   7523SM   C1F 9892   5.962   3.995   6.643  0.4259  0.2908  0.3428
   7523SM    OF 9893   5.916   4.101   6.678 -0.0114 -0.5295 -0.0773
   7523SM   C2F 9894   5.886   3.877   6.670 -0.8533 -0.3420  0.1881
   7523SM   H2F 9895   5.859   3.871   6.778  0.3357  1.6922  0.6417
   7523SM   H2G 9896   5.945   3.788   6.639 -0.3579  0.4611 -1.2634
   7523SM   C3F 9897   5.748   3.881   6.591  0.2420 -0.7884  0.3600
   7523SM   H3F 9898   5.762   3.912   6.485 -2.2794  1.2566  0.5538
   7523SM   H3G 9899   5.675   3.954   6.631  1.0927  0.7340 -0.7719
   7523SM   C4F 9900   5.677   3.748   6.590  0.6262 -0.1619 -0.7643
   7523SM   H4F 9901   5.641   3.715   6.690  0.4683 -1.2178 -1.1565
   7523SM   H4G 9902   5.747   3.668   6.559  1.7635  0.3772  0.3276
   7523SM   C5F 9903   5.557   3.740   6.493  0.1438 -1.1357 -0.4110
   7523SM   H5F 9904   5.593   3.774   6.394  0.6245  1.5664  0.6241
   7523SM   H5G 9905   5.478   3.805   6.536  0.1955 -0.1501 -1.7346
   7523SM   C6F 9906   5.503   3.592   6.470  0.0142  0.2356  0.4763
   7523SM   H6F 9907   5.489   3.542   6.569  0.4258  1.5221  1.2132
   7523SM   H6G 9908   5.593   3.546   6.425 -0.1456  0.0378  0.3622
   7523SM   C7F 9909   5.377   3.580   6.383 -0.6065  0.4632 -0.0642
   7523SM   H7F 9910   5.406   3.610   6.280  3.4956  1.3617  1.1719
   7523SM   H7G 9911   5.304   3.652   6.425 -1.6885  0.4933 -1.8836
   7523SM   C8F 9912   5.327   3.435   6.389  0.1472 -0.6482 -0.6097
   7523SM   H8F 9913   5.221   3.436   6.354 -0.3839  2.1904  0.8055
   7523SM   H8G 9914   5.306   3.404   6.494 -0.1326  0.8044 -0.2240
   7523SM   C9F 9915   5.393   3.322   6.329 -0.6192  0.1843  0.1212
   7523SM   H9F 9916   5.494   3.313   6.374  0.4977  1.6635 -1.9266
   7523SM   H9G 9917   5.409   3.339   6.220 -0.5029  0.7321  0.2202
   7523SM  C10F 9918   5.321   3.191   6.323  0.6413  0.5403  0.1225
   7523SM  H10F 9919   5.293   3.160   6.426 -1.1382  1.3925 -0.0748
   7523SM  H10G 9920   5.387   3.110   6.284  0.8171 -0.0989  1.6498
   7523SM  C11F 9921   5.192   3.199   6.237 -0.2060  0.7529 -0.2327
   7523SM  H11F 9922   5.119   3.268   6.285 -0.1391 -0.1739  1.2787
   7523SM  H11G 9923   5.151   3.096   6.232  0.4235  0.4594  0.5109
   7523SM  C12F 9924   5.213   3.240   6.093  0.1275 -0.3081  0.2530
   7523SM  H12F 9925   5.308   3.196   6.055  0.2943  1.1219 -1.0463
   7523SM  H12G 9926   5.238   3.348   6.091  0.7003 -0.4444 -0.2714
   7523SM  C13F 9927   5.090   3.228   6.006  0.3848 -0.8492  0.9559
   7523SM  H13F 9928   5.024   3.303   6.054  2.1038 -0.2408  2.5109
   7523SM  H13G 9929   5.034   3.132   6.006 -0.5585 -0.3121  0.6700
   7523SM  C14F 9930   5.117   3.267   5.869 -0.1163  0.2290  0.5690
   7523SM  H14F 9931   5.178   3.189   5.818  1.1391  0.9414  0.9202
   7523SM  H14G 9932   5.184   3.354   5.852 -1.4365  0.7645 -2.5458
   7523SM  C15F 9933   4.996   3.292   5.780  0.2769 -0.0281 -0.3733
   7523SM  H15F 9934   4.946   3.388   5.807 -0.0335 -0.5100  0.8241
   7523SM  H15G 9935   4.912   3.227   5.812  0.6472 -0.0189  0.6791
   7523SM  C16F 9936   5.026   3.282   5.631  0.3792 -0.5845 -0.2954
   7523SM  H16F 9937   4.932   3.287   5.573 -1.1346  0.6180  2.0773
   7523SM  H16G 9938   5.087   3.192   5.607  0.0108 -0.7012 -0.7928
   7523SM  C17F 9939   5.113   3.400   5.584 -0.2043 -0.0486 -0.3927
   7523SM  H17F 9940   5.199   3.423   5.651 -0.7959  0.4363  0.2121
   7523SM  H17G 9941   5.052   3.492   5.598 -0.0827  0.1531 -1.1529
   7523SM  C18F 9942   5.157   3.389   5.433 -0.6412 -0.3655  0.6206
   7523SM  H18F 9943   5.219   3.297   5.434 -1.1624 -0.7166  0.9828
   7523SM  H18G 9944   5.227   3.471   5.404 -0.2695 -1.2526 -1.0957
   7523SM  C19F 9945   5.040   3.381   5.339  0.5520 -0.5959  0.6529
   7523SM  H19F 9946   4.969   3.465   5.354  0.1229 -0.4524 -1.7902
   7523SM  H19G 9947   4.977   3.290   5.351  3.2312 -2.9038 -1.4204
   7523SM  C20F 9948   5.074   3.364   5.188  0.1594  0.2005  0.1922
   7523SM  H20F 9949   5.149   3.283   5.175 -1.0858 -0.8727 -0.5220
   7523SM  H20G 9950   5.110   3.460   5.146  0.0373  1.4703  2.8122
   7523SM  C21F 9951   4.956   3.338   5.091  0.1878 -0.2008  0.2895
   7523SM  H21F 9952   4.887   3.425   5.097  0.6587  0.1466  0.6499
   7523SM  H21G 9953   4.905   3.243   5.121 -1.7997  0.4016 -0.9367
   7523SM  C22F 9954   5.011   3.311   4.949  0.5025 -0.2289  0.5247
   7523SM  H22F 9955   5.078   3.222   4.948  0.8780  0.0458 -0.7860
   7523SM  H22G 9956   5.075   3.396   4.916 -1.4538  1.0253 -0.2395
   7523SM  C23F 9957   4.897   3.277   4.859  0.2114 -0.3211  1.2580
   7523SM  H23F 9958   4.853   3.375   4.830 -0.2220 -0.2801  2.0293
   7523SM  H23G 9959   4.823   3.219   4.919 -2.1597  2.5283  1.2912
   7523SM  H23H 9960   4.932   3.224   4.768  0.3377  1.7733  0.0236
   7623SM     N 9961   0.520   6.053   7.098  0.3128 -0.3364  0.5845
   7623SM   C15 9962   0.415   5.958   7.148  0.3622 -0.1998 -0.3781
   7623SM  H15A 9963   0.369   6.000   7.236  3.7168  0.5192  1.1901
   7623SM  H15B 9964   0.457   5.866   7.188  0.8015 -0.0283 -0.4371
   7623SM  H15C 9965   0.335   5.937   7.078  0.5431  1.0484 -0.9819
   7623SM   C14 9966   0.581   6.015   6.963 -0.2208  0.3070 -0.5505
   7623SM  H14A 9967   0.516   6.028   6.878  0.0529  1.4798 -0.6047
   7623SM  H14B 9968   0.617   5.914   6.975 -1.3824 -0.0249  0.2570
   7623SM  H14C 9969   0.664   6.079   6.935  0.1527 -0.4736 -1.2895
   7623SM   C13 9970   0.465   6.193   7.087 -0.0023  0.5093 -0.1255
   7623SM  H13A 9971   0.372   6.190   7.032 -0.1888  1.9854  0.0897
   7623SM  H13B 9972   0.523   6.263   7.029 -1.2371  2.0992  0.4794
   7623SM  H13C 9973   0.444   6.230   7.186 -1.4492 -0.6746  0.0642
   7623SM   C12 9974   0.639   6.054   7.194 -0.1252  0.6677  0.2213
   7623SM  H12A 9975   0.677   5.953   7.203 -0.6431  0.5146  0.7908
   7623SM  H12B 9976   0.605   6.065   7.296  0.8157 -0.7029  0.7139
   7623SM   C11 9977   0.753   6.159   7.174  0.5405  0.2002 -0.1154
   7623SM  H11A 9978   0.807   6.140   7.270  0.0790  0.6993  0.2443
   7623SM  H11B 9979   0.705   6.257   7.192  0.2314 -0.4064  3.0971
   7623SM     P 9980   0.912   6.263   7.001  0.4559 -0.5155 -0.0396
   7623SM   O13 9981   0.822   6.381   6.997  0.5817 -0.2170  0.3649
   7623SM   O14 9982   1.043   6.277   7.075  0.0681 -0.2715 -0.0556
   7623SM   O11 9983   0.941   6.225   6.855  0.2673 -0.2683  0.4219
   7623SM   O12 9984   0.834   6.139   7.054 -0.5205  0.3077  0.1237
   7623SM   C1S 9985   0.929   6.091   6.802  0.1191  0.0220 -0.3534
   7623SM   H1S 9986   0.835   6.035   6.822 -0.4934  0.5482 -1.6018
   7623SM   H1T 9987   1.015   6.032   6.841  0.0046  0.2965  0.3279
   7623SM    NF 9988   0.929   5.948   6.601  0.6551  0.4944  0.0188
   7623SM   HNF 9989   1.021   5.911   6.585  0.2073  0.2201 -2.3855
   7623SM   C2S 9990   0.936   6.090   6.648 -0.2937  0.4101 -0.1538
   7623SM   H2S 9991   0.846   6.143   6.611 -2.5988 -2.4780  0.8465
   7623SM   C3S 9992   1.070   6.167   6.590  0.6477  0.2225 -0.2973
   7623SM   H3S 9993   1.151   6.094   6.612  0.6792  0.6917  1.2598
   7623SM    O3 9994   1.114   6.282   6.662  0.6678 -0.4949 -0.9167
   7623SM   HO3 9995   1.050   6.297   6.731  3.6343  1.0247  1.7325
   7623SM   C4S 9996   1.055   6.190   6.435 -0.4699  0.8725 -0.3173
   7623SM   H4S 9997   1.086   6.104   6.373 -1.1149  0.9258 -0.7293
   7623SM   C5S 9998   0.995   6.295   6.373 -0.2589  0.0484 -0.4866
   7623SM   H5S 9999   0.949   6.377   6.431 -0.6681 -2.0484  2.3423
   7623SM   C6S10000   0.980   6.294   6.228 -0.5032 -0.1930  0.3044
   7623SM   H6S10001   1.054   6.361   6.180  0.2958 -1.5525 -0.4443
   7623SM   H6T10002   0.884   6.349   6.216 -1.0978 -0.5239  2.9350
   7623SM   C7S10003   0.971   6.151   6.162  0.2257  0.0174  0.0614
   7623SM   H7S10004   0.915   6.083   6.229 -1.3033  0.2300 -0.9493
   7623SM   H7T10005   1.073   6.107   6.150  1.3578  2.7534 -1.3505
   7623SM   C8S10006   0.896   6.149   6.030  0.4808  0.2759 -0.4995
   7623SM   H8S10007   0.802   6.202   6.056  0.9007  0.2018  1.2929
   7623SM   H8T10008   0.863   6.047   6.001 -0.6430  0.1327  1.0972
   7623SM   C9S10009   0.971   6.197   5.901  0.1345 -0.2897  0.0109
   7623SM   H9S10010   1.062   6.134   5.891  1.5633  1.3933  1.7061
   7623SM   H9T10011   1.009   6.300   5.889  0.3345 -0.4745 -1.0148
   7623SM  C10S10012   0.880   6.164   5.781  0.4105  0.1533 -0.4169
   7623SM  H10S10013   0.785   6.220   5.787 -0.0413 -0.2529 -2.8845
   7623SM  H10T10014   0.855   6.057   5.801 -0.0449  0.5290  1.2102
   7623SM  C11S10015   0.943   6.206   5.646 -0.4655 -0.1518  0.0947
   7623SM  H11S10016   1.032   6.140   5.635 -0.0289  0.4718 -0.1794
   7623SM  H11T10017   0.969   6.313   5.629 -2.8244  0.6367  1.0848
   7623SM  C12S10018   0.846   6.179   5.530 -0.6101  0.6159 -0.3563
   7623SM  H12S10019   0.758   6.245   5.548 -0.5847  0.3374  0.8663
   7623SM  H12T10020   0.805   6.078   5.548 -0.1135  0.5970  0.7215
   7623SM  C13S10021   0.925   6.196   5.399  0.1541  0.0098 -1.1226
   7623SM  H13S10022   1.032   6.166   5.390  0.3577  0.8791 -1.7047
   7623SM  H13T10023   0.937   6.303   5.369 -0.3516 -0.0091 -1.3910
   7623SM  C14S10024   0.837   6.135   5.299  0.3013  0.0385 -0.5705
   7623SM  H14S10025   0.731   6.166   5.314  0.5420  0.0912  1.3309
   7623SM  H14T10026   0.830   6.026   5.318  0.0494  0.1033 -0.2795
   7623SM  C15S10027   0.880   6.152   5.153 -0.2779 -0.4019  0.2947
   7623SM  H15S10028   0.980   6.107   5.137 -0.0212  0.8211 -1.8220
   7623SM  H15T10029   0.879   6.260   5.130  2.6536 -0.2438  0.6130
   7623SM  C16S10030   0.787   6.087   5.059 -0.3106  0.6997 -0.5883
   7623SM  H16S10031   0.695   6.147   5.046  0.2408  1.4071 -1.3268
   7623SM  H16T10032   0.762   5.980   5.079 -2.6057  1.4906  1.2195
   7623SM  C17S10033   0.850   6.089   4.916  0.2000  0.4879 -1.2137
   7623SM  H17S10034   0.928   6.012   4.902 -0.6212 -0.9218  1.3877
   7623SM  H17T10035   0.898   6.187   4.893  1.7127  0.2073  0.5768
   7623SM  C18S10036   0.757   6.068   4.800  0.0863 -0.0077 -0.0838
   7623SM  H18S10037   0.784   6.125   4.709 -1.7256  1.2689  0.1133
   7623SM  H18T10038   0.665   6.126   4.824  0.6631 -0.1421  2.8913
   7623SM  H18U10039   0.742   5.959   4.782  0.3131 -0.0283 -0.1406
   7623SM   C1F10040   0.811   5.881   6.600  0.1739  0.4645 -0.0704
   7623SM    OF10041   0.701   5.930   6.629 -0.4984 -0.1052  0.3038
   7623SM   C2F10042   0.808   5.737   6.563 -0.3969  0.9522  0.5313
   7623SM   H2F10043   0.774   5.677   6.650 -1.8394 -0.8381 -1.1528
   7623SM   H2G10044   0.909   5.696   6.543 -0.0835  2.5681 -1.5517
   7623SM   C3F10045   0.701   5.709   6.451 -0.8636 -0.5071  1.3891
   7623SM   H3F10046   0.595   5.725   6.483 -1.9507 -1.0225 -1.6450
   7623SM   H3G10047   0.705   5.602   6.420 -0.9216 -0.0308 -0.3302
   7623SM   C4F10048   0.712   5.794   6.324 -0.3481 -0.3403 -0.2058
   7623SM   H4F10049   0.819   5.811   6.298 -0.7123  0.3487 -1.3182
   7623SM   H4G10050   0.679   5.899   6.340  3.0050  0.7323  0.5229
   7623SM   C5F10051   0.642   5.732   6.200  0.6306 -0.0898 -0.0412
   7623SM   H5F10052   0.533   5.750   6.210  0.7169 -0.2516  1.3947
   7623SM   H5G10053   0.664   5.625   6.185  2.0350  0.5443 -3.0876
   7623SM   C6F10054   0.688   5.796   6.065 -0.3207  0.0801 -0.2843
   7623SM   H6F10055   0.792   5.761   6.048 -0.2105  1.2759 -2.4366
   7623SM   H6G10056   0.674   5.906   6.064 -1.0367 -0.0038 -1.6581
   7623SM   C7F10057   0.605   5.732   5.952  0.1624  0.4923  0.4246
   7623SM   H7F10058   0.495   5.733   5.965 -0.0709  0.7597 -1.3075
   7623SM   H7G10059   0.644   5.630   5.933  0.7954  0.7012  0.5584
   7623SM   C8F10060   0.636   5.804   5.815  0.2271  0.1628 -0.1049
   7623SM   H8F10061   0.742   5.790   5.785 -0.4057 -1.0722 -1.8959
   7623SM   H8G10062   0.628   5.915   5.810  1.8997  0.2672 -1.1787
   7623SM   C9F10063   0.534   5.755   5.711 -0.0321 -0.0433 -0.4619
   7623SM   H9F10064   0.430   5.785   5.734  0.6277  0.9686  1.4494
   7623SM   H9G10065   0.553   5.646   5.718  3.1321  0.5122  1.9292
   7623SM  C10F10066   0.566   5.822   5.573  0.0773 -0.2464 -0.2398
   7623SM  H10F10067   0.672   5.812   5.541  0.3463  1.2020  0.1557
   7623SM  H10G10068   0.546   5.931   5.575 -1.2639 -0.2233 -4.7374
   7623SM  C11F10069   0.484   5.759   5.455  0.0450 -0.4118  0.3261
   7623SM  H11F10070   0.375   5.767   5.472 -0.0717 -1.2441  0.0083
   7623SM  H11G10071   0.500   5.649   5.446 -0.8014 -0.4370 -1.2284
   7623SM  C12F10072   0.501   5.825   5.315 -0.3404  0.0060  0.0362
   7623SM  H12F10073   0.608   5.847   5.295 -0.1532  0.0011  1.0224
   7623SM  H12G10074   0.440   5.918   5.306  0.2516  0.5318  1.2500
   7623SM  C13F10075   0.451   5.721   5.208 -0.1304 -0.4342 -0.3571
   7623SM  H13F10076   0.343   5.704   5.190  0.0191 -1.2173 -0.5502
   7623SM  H13G10077   0.497   5.623   5.233  0.1964  0.0506  1.1074
   7623SM  C14F10078   0.511   5.756   5.069 -0.6091 -0.0998  0.0547
   7623SM  H14F10079   0.621   5.772   5.064 -0.5884 -0.5632 -1.2722
   7623SM  H14G10080   0.475   5.856   5.037  1.5276  0.5748 -0.4092
   7623SM  C15F10081   0.477   5.661   4.952 -0.2853  0.3337 -0.1082
   7623SM  H15F10082   0.369   5.677   4.933 -1.0583 -1.9210  1.9338
   7623SM  H15G10083   0.493   5.554   4.974 -0.2294  0.4082  0.2181
   7623SM  C16F10084   0.570   5.689   4.828  0.5800  0.1977 -0.7512
   7623SM  H16F10085   0.669   5.646   4.851  1.3817  1.4723 -1.6979
   7623SM  H16G10086   0.576   5.798   4.808 -1.2183  0.1302 -1.8868
   7623SM  C17F10087   0.514   5.620   4.711 -0.7765  0.2027  0.0727
   7623SM  H17F10088   0.420   5.671   4.683 -1.2760 -1.2848 -1.0677
   7623SM  H17G10089   0.494   5.514   4.736 -0.5104 -0.6797 -3.1101
   7623SM  C18F10090   0.596   5.642   4.581  0.6012  0.1455  0.0300
   7623SM  H18F10091   0.541   5.607   4.491  0.0813 -2.2759  1.1887
   7623SM  H18G10092   0.686   5.576   4.585  0.2145 -0.3951 -0.0792
   7623SM  C19F10093   0.650   5.789   4.562  0.0805  0.2018 -1.0948
   7623SM  H19F10094   0.738   5.798   4.629  1.4746  2.5797 -3.0466
   7623SM  H19G10095   0.574   5.862   4.598 -0.0051 -1.5070  2.5990
   7623SM  C20F10096   0.707   5.814   4.417  0.1498  0.6652 -0.1940
   7623SM  H20F10097   0.745   5.918   4.409 -0.5673  1.0133  0.7306
   7623SM  H20G10098   0.621   5.796   4.349  0.2152  0.7778 -0.3059
   7623SM  C21F10099   0.833   5.728   4.381  0.2747  0.0975  0.1927
   7623SM  H21F10100   0.794   5.624   4.372 -1.2182  0.5418  1.1413
   7623SM  H21G10101   0.904   5.730   4.466  1.5953  0.5840 -0.9015
   7623SM  C22F10102   0.903   5.768   4.250  0.1096  0.1691 -0.2952
   7623SM  H22F10103   0.831   5.767   4.165  0.7595  1.7556 -0.8975
   7623SM  H22G10104   0.983   5.698   4.218  0.7176  2.2215 -3.7982
   7623SM  C23F10105   0.953   5.905   4.251  0.1689 -0.3561 -0.0943
   7623SM  H23F10106   1.030   5.930   4.328 -0.3691 -1.1855  0.7425
   7623SM  H23G10107   0.870   5.978   4.259  0.8886  0.8872 -2.9706
   7623SM  H23H10108   1.003   5.919   4.153 -0.6399 -2.4382 -0.8604
   7723SM     N10109   7.093   2.116   7.066  0.2682 -0.1668  1.2553
   7723SM   C1510110   6.973   2.194   7.117 -0.0827  0.9568 -0.3362
   7723SM  H15A10111   6.981   2.218   7.222 -2.4452 -0.2835  0.1844
   7723SM  H15B10112   6.890   2.124   7.115 -1.7421  2.7646  0.8935
   7723SM  H15C10113   6.957   2.293   7.074  0.8996  1.9739  1.5168
   7723SM   C1410114   7.211   2.200   7.109 -0.4194 -0.2040  0.6187
   7723SM  H14A10115   7.208   2.297   7.062  0.1679 -0.7649 -0.6385
   7723SM  H14B10116   7.306   2.151   7.093  0.7830  1.4153  2.4530
   7723SM  H14C10117   7.201   2.227   7.213  3.9820  0.7973  0.9561
   7723SM   C1310118   7.103   1.974   7.136  0.5533 -0.4666 -0.2434
   7723SM  H13A10119   7.085   1.980   7.242 -0.7036 -1.3147 -0.3833
   7723SM  H13B10120   7.193   1.917   7.118 -0.4529 -2.6433  1.0931
   7723SM  H13C10121   7.029   1.901   7.105  0.7979 -0.5402 -0.6581
   7723SM   C1210122   7.081   2.096   6.914  0.2901 -0.2210  0.1606
   7723SM  H12A10123   7.171   2.041   6.892  1.1313  0.8574  0.8556
   7723SM  H12B10124   7.090   2.191   6.863  0.3656  0.9589  2.2757
   7723SM   C1110125   6.959   2.010   6.865 -0.3229 -0.2064 -0.4771
   7723SM  H11A10126   6.971   2.017   6.754  1.3673  0.6577 -0.2850
   7723SM  H11B10127   6.861   2.056   6.887 -1.8343 -2.8623 -1.2174
   7723SM     P10128   7.067   1.773   6.865  0.1085  0.2041  0.6073
   7723SM   O1310129   7.200   1.837   6.858  0.2654 -0.4361  1.0018
   7723SM   O1410130   7.047   1.659   6.951 -0.5369  0.7634 -0.0620
   7723SM   O1110131   7.028   1.724   6.722 -0.2903 -0.8932 -0.8369
   7723SM   O1210132   6.958   1.876   6.910 -0.5653 -0.0045  0.4655
   7723SM   C1S10133   7.079   1.593   6.682 -0.1035  0.0011 -0.0352
   7723SM   H1S10134   7.019   1.516   6.733 -0.8718 -0.6776 -1.9006
   7723SM   H1T10135   7.183   1.574   6.718 -0.2816 -1.0051 -0.0499
   7723SM    NF10136   7.133   1.446   6.487 -0.2504  0.0503  0.4796
   7723SM   HNF10137   7.222   1.454   6.442 -1.0135  3.3619 -0.7183
   7723SM   C2S10138   7.071   1.573   6.527 -0.0715 -0.4639  0.9616
   7723SM   H2S10139   6.962   1.560   6.509  0.2339 -2.8821  0.5645
   7723SM   C3S10140   7.126   1.706   6.460  0.9317  0.3943  0.2920
   7723SM   H3S10141   7.223   1.744   6.499  0.8652  0.7981  0.0702
   7723SM    O310142   7.040   1.819   6.483 -0.4812  0.5293  0.0710
   7723SM   HO310143   7.020   1.812   6.577 -1.7769 -2.3834 -0.3307
   7723SM   C4S10144   7.123   1.696   6.309  0.7571  0.4286 -1.0682
   7723SM   H4S10145   7.036   1.742   6.260 -2.6634 -0.2181  3.7116
   7723SM   C5S10146   7.230   1.650   6.240 -0.2542 -0.1175  0.7669
   7723SM   H5S10147   7.321   1.619   6.294 -0.1972  0.0847  0.7875
   7723SM   C6S10148   7.245   1.662   6.093 -0.1013  0.4702 -0.3406
   7723SM   H6S10149   7.319   1.743   6.072  1.2535 -0.6391  0.0099
   7723SM   H6T10150   7.149   1.678   6.040 -0.4186 -0.5490 -0.0943
   7723SM   C7S10151   7.310   1.538   6.025  0.1530 -0.3669  0.0842
   7723SM   H7S10152   7.253   1.446   6.049  0.5593 -0.9759 -1.1756
   7723SM   H7T10153   7.406   1.523   6.079  0.9483 -1.7566 -1.6289
   7723SM   C8S10154   7.340   1.562   5.879 -0.8681 -0.5115  0.3037
   7723SM   H8S10155   7.416   1.643   5.880 -1.2117 -0.1869  0.2697
   7723SM   H8T10156   7.247   1.596   5.828  0.1187  1.1613 -0.4399
   7723SM   C9S10157   7.388   1.434   5.800 -0.2219 -0.3383 -0.2667
   7723SM   H9S10158   7.381   1.457   5.691 -0.2441 -0.1607 -0.2284
   7723SM   H9T10159   7.313   1.356   5.825 -1.5082  0.8163 -0.4321
   7723SM  C10S10160   7.531   1.392   5.840  0.1387 -0.1684  0.6230
   7723SM  H10S10161   7.534   1.380   5.950  2.7110 -2.9816  0.3525
   7723SM  H10T10162   7.587   1.486   5.819 -1.4597  0.5153 -0.8649
   7723SM  C11S10163   7.599   1.285   5.753 -0.2903 -0.5036 -1.0461
   7723SM  H11S10164   7.708   1.303   5.762 -0.6016  1.2370 -0.4428
   7723SM  H11T10165   7.582   1.316   5.647 -0.4787  0.8315 -0.6412
   7723SM  C12S10166   7.551   1.140   5.775  0.5513  0.4151  0.5325
   7723SM  H12S10167   7.466   1.128   5.845 -1.0128 -1.0395 -1.4940
   7723SM  H12T10168   7.628   1.086   5.835 -0.8831 -0.7086  1.4302
   7723SM  C13S10169   7.530   1.052   5.649 -0.7841 -0.9952 -0.1110
   7723SM  H13S10170   7.630   1.065   5.603 -0.0182  1.2585  2.0269
   7723SM  H13T10171   7.464   1.106   5.577 -0.9828  2.7461  2.6168
   7723SM  C14S10172   7.505   0.898   5.665  0.0279  0.3746  0.0440
   7723SM  H14S10173   7.448   0.879   5.571 -0.5535  1.0534  0.2499
   7723SM  H14T10174   7.439   0.881   5.753 -0.9197 -0.7821 -0.8513
   7723SM  C15S10175   7.632   0.812   5.656  0.0534 -0.0276  0.0308
   7723SM  H15S10176   7.696   0.827   5.746  0.1897  1.9146 -0.3430
   7723SM  H15T10177   7.676   0.848   5.561  1.2543  0.1120  0.6244
   7723SM  C16S10178   7.599   0.655   5.642 -0.3913 -0.2138 -0.2881
   7723SM  H16S10179   7.511   0.636   5.708 -0.7137  0.1553 -0.6062
   7723SM  H16T10180   7.692   0.600   5.667  0.7500  1.9289  0.4588
   7723SM  C17S10181   7.566   0.613   5.500 -0.1129 -0.6249 -0.4998
   7723SM  H17S10182   7.496   0.685   5.454 -1.0631 -0.5280  1.0057
   7723SM  H17T10183   7.506   0.519   5.494 -1.2993  0.0631  0.2306
   7723SM  C18S10184   7.694   0.595   5.421  0.2275 -0.0913  0.1027
   7723SM  H18S10185   7.764   0.681   5.425 -0.9318  0.8558  0.5519
   7723SM  H18T10186   7.666   0.584   5.314 -0.5824  0.0543  0.2950
   7723SM  H18U10187   7.743   0.499   5.446  1.4522  0.4647 -0.1077
   7723SM   C1F10188   7.084   1.326   6.530  0.5566 -0.3085  0.6975
   7723SM    OF10189   6.970   1.316   6.574  0.3732  0.7293 -0.5705
   7723SM   C2F10190   7.172   1.206   6.503  0.0381 -0.1757 -0.2086
   7723SM   H2F10191   7.158   1.128   6.580  1.7846 -1.2870 -0.9720
   7723SM   H2G10192   7.278   1.237   6.506 -0.2315  0.7631  2.6400
   7723SM   C3F10193   7.138   1.136   6.367 -0.1988 -0.2314  0.0511
   7723SM   H3F10194   7.034   1.097   6.362 -0.8021  1.4011 -1.3120
   7723SM   H3G10195   7.197   1.042   6.361  1.9646  1.1249 -2.4072
   7723SM   C4F10196   7.154   1.217   6.238  0.2293  0.3553 -0.3073
   7723SM   H4F10197   7.251   1.272   6.235  0.3440  0.3324  1.9387
   7723SM   H4G10198   7.073   1.292   6.230 -1.1953 -1.2255 -1.4317
   7723SM   C5F10199   7.151   1.116   6.120 -0.0370  0.2177 -0.1138
   7723SM   H5F10200   7.065   1.046   6.128 -0.3401  0.4721 -1.0743
   7723SM   H5G10201   7.235   1.044   6.131  0.5497  0.7483 -1.0086
   7723SM   C6F10202   7.153   1.172   5.981 -0.6883  0.2808  0.3186
   7723SM   H6F10203   7.248   1.227   5.962 -0.2275 -0.0056  1.6956
   7723SM   H6G10204   7.063   1.237   5.973 -2.5266 -2.2362 -0.7616
   7723SM   C7F10205   7.129   1.066   5.869 -0.1301 -0.7073 -0.1530
   7723SM   H7F10206   7.029   1.017   5.868  0.4066 -1.8534 -1.6176
   7723SM   H7G10207   7.208   0.989   5.881  1.3973  0.6134 -1.3353
   7723SM   C8F10208   7.133   1.130   5.727  0.5201 -0.6038 -0.7136
   7723SM   H8F10209   7.218   1.199   5.711 -0.2683  0.3634 -0.8457
   7723SM   H8G10210   7.052   1.205   5.716  0.3449 -0.4370  1.3285
   7723SM   C9F10211   7.133   1.033   5.613  0.2140  0.8079 -0.1315
   7723SM   H9F10212   7.055   0.957   5.637 -1.2432  1.7314 -1.6898
   7723SM   H9G10213   7.228   0.976   5.626 -0.6858 -0.6458  0.3090
   7723SM  C10F10214   7.111   1.086   5.473 -0.2123  0.5219 -0.6844
   7723SM  H10F10215   7.197   1.155   5.458  1.4936 -1.2272  0.5602
   7723SM  H10G10216   7.018   1.148   5.476 -0.1681  0.6204 -1.3387
   7723SM  C11F10217   7.101   0.965   5.379 -0.8290  0.0797  0.1349
   7723SM  H11F10218   7.038   0.984   5.289 -0.3880 -2.6687 -0.8754
   7723SM  H11G10219   7.046   0.888   5.437 -0.1928 -0.8832 -0.5133
   7723SM  C12F10220   7.233   0.913   5.326  0.0354 -0.8942 -0.2378
   7723SM  H12F10221   7.230   0.806   5.295 -0.6295 -1.3973  1.4101
   7723SM  H12G10222   7.290   0.894   5.420  0.1638 -0.7216 -0.2807
   7723SM  C13F10223   7.304   1.005   5.228 -0.0913 -0.4464  0.2767
   7723SM  H13F10224   7.287   1.115   5.237 -2.8505 -0.7547 -0.1769
   7723SM  H13G10225   7.286   0.986   5.120  0.9041  0.2182 -0.0193
   7723SM  C14F10226   7.455   0.980   5.238 -0.7492  0.6656  0.1977
   7723SM  H14F10227   7.483   0.971   5.345  2.0991  2.8695 -0.2514
   7723SM  H14G10228   7.514   1.067   5.202 -0.6400  0.2312 -0.6841
   7723SM  C15F10229   7.490   0.849   5.166  0.0286 -0.0075  0.0490
   7723SM  H15F10230   7.445   0.845   5.065  0.6892  0.3616 -0.2718
   7723SM  H15G10231   7.450   0.768   5.229  0.5728  0.0619  0.4953
   7723SM  C16F10232   7.639   0.823   5.145 -0.6530  0.0883  0.3189
   7723SM  H16F10233   7.668   0.722   5.110  0.4467  0.2990  0.5967
   7723SM  H16G10234   7.691   0.837   5.242 -0.9461 -1.0936  0.6717
   7723SM  C17F10235   7.707   0.925   5.055 -0.2964 -0.2656  1.0553
   7723SM  H17F10236   7.800   0.959   5.107  1.3020  0.8070 -2.2286
   7723SM  H17G10237   7.651   1.019   5.034  0.9001  0.3523  0.4823
   7723SM  C18F10238   7.759   0.870   4.922 -0.2167 -0.2081  0.4032
   7723SM  H18F10239   7.676   0.855   4.850  0.2020 -1.2129  0.1083
   7723SM  H18G10240   7.816   0.775   4.932  0.2275  0.0854  0.6890
   7723SM  C19F10241   7.848   0.967   4.850 -0.9337  0.0055 -0.1169
   7723SM  H19F10242   7.936   0.998   4.910 -0.8977 -1.6514  0.7380
   7723SM  H19G10243   7.792   1.060   4.826 -1.6462 -0.6818 -1.2519
   7723SM  C20F10244   7.880   0.908   4.713  0.2822 -0.3758 -0.3611
   7723SM  H20F10245   7.792   0.867   4.657 -0.7599  1.7512 -0.4013
   7723SM  H20G10246   7.949   0.821   4.716 -1.0555 -1.4439  1.2509
   7723SM  C21F10247   7.952   1.021   4.633 -0.2585 -0.1397 -0.2786
   7723SM  H21F10248   8.051   1.029   4.683 -0.2825  0.9835 -0.3857
   7723SM  H21G10249   7.891   1.114   4.634  1.1428  0.8021  0.3520
   7723SM  C22F10250   7.979   0.968   4.493  0.2428  0.1415  0.7261
   7723SM  H22F10251   8.070   0.905   4.505 -0.7205 -0.9224  2.9969
   7723SM  H22G10252   8.003   1.062   4.439 -1.5845  0.2993  0.1303
   7723SM  C23F10253   7.854   0.915   4.425  0.7943  0.0677  0.4465
   7723SM  H23F10254   7.849   0.895   4.316  0.8821  1.2047  0.2177
   7723SM  H23G10255   7.771   0.981   4.459 -1.1405 -2.1032  0.1702
   7723SM  H23H10256   7.832   0.819   4.476  0.8739 -0.2248 -0.0560
   7823SM     N10257   0.991   0.603   7.279 -0.5684 -0.5869  0.5053
   7823SM   C1510258   0.938   0.578   7.417  0.2919 -0.8917 -0.2718
   7823SM  H15A10259   0.937   0.474   7.443 -2.7381 -0.6860  0.7852
   7823SM  H15B10260   0.837   0.617   7.415  0.7952  0.5578  0.5746
   7823SM  H15C10261   0.993   0.638   7.489 -0.1840 -0.9375  0.1319
   7823SM   C1410262   0.899   0.538   7.186  0.3414  0.0418  0.5087
   7823SM  H14A10263   0.898   0.431   7.197 -2.4969 -0.0366  0.2859
   7823SM  H14B10264   0.921   0.548   7.081  1.5808 -2.8891  0.3987
   7823SM  H14C10265   0.799   0.576   7.203 -0.4771 -0.7749 -1.9462
   7823SM   C1310266   0.993   0.747   7.259  0.3137 -0.5634  0.3530
   7823SM  H13A10267   1.034   0.793   7.347  0.2711 -2.6298  1.5090
   7823SM  H13B10268   0.898   0.798   7.248  1.9292  2.6260  0.0843
   7823SM  H13C10269   1.052   0.785   7.177  0.5921  0.2351  0.9250
   7823SM   C1210270   1.128   0.526   7.261  0.0231 -0.2969 -0.9204
   7823SM  H12A10271   1.153   0.532   7.156  1.9301  1.3849 -0.4452
   7823SM  H12B10272   1.113   0.423   7.289  2.6976  0.0868  2.7094
   7823SM   C1110273   1.245   0.584   7.347  0.3626 -0.1326 -0.3259
   7823SM  H11A10274   1.231   0.568   7.456 -1.1395  1.4193 -0.2419
   7823SM  H11B10275   1.255   0.694   7.337 -1.4665  0.3016  1.8242
   7823SM     P10276   1.382   0.360   7.299  0.1787  0.4664 -0.3511
   7823SM   O1310277   1.536   0.343   7.302  1.1468 -0.1171  0.1844
   7823SM   O1410278   1.309   0.301   7.413 -0.1432  0.4984 -0.6373
   7823SM   O1110279   1.320   0.307   7.161 -0.4303  0.2204  0.1815
   7823SM   O1210280   1.359   0.515   7.293 -0.7030 -0.1176  0.1853
   7823SM   C1S10281   1.349   0.361   7.037  0.0290 -0.0453  0.2881
   7823SM   H1S10282   1.452   0.403   7.027 -0.8773  2.4730  0.7106
   7823SM   H1T10283   1.278   0.446   7.026 -0.3984 -0.4375  0.0047
   7823SM    NF10284   1.403   0.301   6.808 -0.0855  0.3525 -0.0925
   7823SM   HNF10285   1.348   0.367   6.757 -0.3122  1.6663  1.7600
   7823SM   C2S10286   1.333   0.256   6.923 -0.0885  0.5626 -0.3616
   7823SM   H2S10287   1.367   0.157   6.960 -3.0510 -0.0151  1.1084
   7823SM   C3S10288   1.176   0.239   6.904 -0.3705  0.7500  0.6266
   7823SM   H3S10289   1.134   0.339   6.878  1.7743  1.4371 -0.4584
   7823SM    O310290   1.109   0.202   7.024  0.2736 -0.1621  0.5503
   7823SM   HO310291   1.181   0.184   7.085  0.2851 -1.6246  0.1512
   7823SM   C4S10292   1.149   0.149   6.794 -0.3479 -0.2308 -0.3252
   7823SM   H4S10293   1.123   0.195   6.698 -3.0213 -1.2172 -0.1448
   7823SM   C5S10294   1.159   0.015   6.805  0.4460 -0.2912 -0.1826
   7823SM   H5S10295   1.181  -0.037   6.899 -0.9619 -0.3077  0.1666
   7823SM   C6S10296   1.127  -0.082   6.692  0.2133 -0.1771  0.9273
   7823SM   H6S10297   1.016  -0.086   6.688  0.2133  0.2673 -0.0792
   7823SM   H6T10298   1.162  -0.186   6.711  0.5736 -0.2416  0.0093
   7823SM   C7S10299   1.187  -0.045   6.556 -0.2505  0.2927 -0.3215
   7823SM   H7S10300   1.298  -0.041   6.559 -0.1281 -1.7990 -0.2708
   7823SM   H7T10301   1.155   0.056   6.524 -0.1440  0.3674 -0.1911
   7823SM   C8S10302   1.137  -0.131   6.438 -0.0690  0.2566  0.9581
   7823SM   H8S10303   1.029  -0.152   6.453 -0.2222  1.0516  1.0134
   7823SM   H8T10304   1.187  -0.229   6.426 -0.5874  0.3090 -2.4476
   7823SM   C9S10305   1.160  -0.062   6.303 -0.3858 -0.2172 -0.1897
   7823SM   H9S10306   1.266  -0.073   6.272 -0.1370  1.5877 -0.0742
   7823SM   H9T10307   1.136   0.047   6.305  1.4678  0.2385 -0.5007
   7823SM  C10S10308   1.085  -0.136   6.190 -0.2388 -0.2276  0.8616
   7823SM  H10S10309   0.977  -0.141   6.214 -0.2255  0.3433  1.0517
   7823SM  H10T10310   1.129  -0.236   6.172  0.2944  0.2257 -0.5475
   7823SM  C11S10311   1.106  -0.065   6.050 -0.3509  0.4281  0.5687
   7823SM  H11S10312   1.082   0.043   6.048  0.2439  0.5667  0.5266
   7823SM  H11T10313   1.044  -0.111   5.971  0.6714  1.1243 -0.6870
   7823SM  C12S10314   1.248  -0.090   5.987 -0.6424  1.0133  0.5632
   7823SM  H12S10315   1.256  -0.199   5.971 -2.0997  1.3078 -2.9643
   7823SM  H12T10316   1.339  -0.060   6.043  1.8374  0.6547 -3.0217
   7823SM  C13S10317   1.277  -0.014   5.854  0.3620  0.1807 -0.9662
   7823SM  H13S10318   1.386  -0.026   5.836  0.3999 -0.8159 -0.1473
   7823SM  H13T10319   1.257   0.095   5.865  1.6576  0.2714  0.9270
   7823SM  C14S10320   1.199  -0.061   5.730 -0.1450 -0.1741  0.8151
   7823SM  H14S10321   1.101  -0.010   5.725 -0.3604 -0.5122  1.4678
   7823SM  H14T10322   1.179  -0.170   5.729  0.8115 -0.3570  0.6942
   7823SM  C15S10323   1.283  -0.048   5.601 -0.3302  0.0236 -0.2537
   7823SM  H15S10324   1.226  -0.093   5.517  1.2340 -0.0484 -1.3228
   7823SM  H15T10325   1.371  -0.115   5.606 -0.4736 -0.2964 -1.5785
   7823SM  C16S10326   1.311   0.093   5.545 -0.8422  0.1008 -0.8286
   7823SM  H16S10327   1.353   0.145   5.634 -2.4313  1.4783 -0.8370
   7823SM  H16T10328   1.218   0.144   5.509 -1.8300 -0.6676  0.5526
   7823SM  C17S10329   1.427   0.103   5.437  0.5879 -0.5399  0.4894
   7823SM  H17S10330   1.407   0.041   5.347 -0.0938  1.5142 -0.8279
   7823SM  H17T10331   1.518   0.064   5.487  1.2448  2.2681  1.6525
   7823SM  C18S10332   1.430   0.248   5.391  0.5124 -0.0374 -0.4968
   7823SM  H18S10333   1.337   0.299   5.359  0.9408  0.5612 -0.8009
   7823SM  H18T10334   1.497   0.250   5.303 -0.3848 -1.5479 -1.2530
   7823SM  H18U10335   1.472   0.303   5.479 -1.3259 -2.4693  2.0887
   7823SM   C1F10336   1.530   0.290   6.782 -0.2840 -0.0632  0.7450
   7823SM    OF10337   1.587   0.207   6.851 -0.1960  0.1237 -0.3579
   7823SM   C2F10338   1.585   0.373   6.671 -0.3441 -0.0279 -0.2898
   7823SM   H2F10339   1.612   0.476   6.705 -2.1162  0.3890  0.0024
   7823SM   H2G10340   1.512   0.379   6.588  1.2626  1.5442 -1.6768
   7823SM   C3F10341   1.716   0.305   6.611  1.1442  0.2322  0.3682
   7823SM   H3F10342   1.792   0.286   6.690  0.0878  0.0100  1.3615
   7823SM   H3G10343   1.745   0.386   6.541  0.2615  1.0863  0.9557
   7823SM   C4F10344   1.690   0.163   6.534 -0.4146 -0.3903 -0.2028
   7823SM   H4F10345   1.634   0.099   6.605  1.5057  0.8185  2.5626
   7823SM   H4G10346   1.789   0.118   6.511 -1.3067 -1.7307 -1.6306
   7823SM   C5F10347   1.600   0.174   6.412  0.3287  0.0438  0.3572
   7823SM   H5F10348   1.606   0.266   6.351 -2.1006 -0.9629 -1.5636
   7823SM   H5G10349   1.496   0.164   6.447 -0.3310  1.3165 -1.1471
   7823SM   C6F10350   1.630   0.050   6.324  0.3835 -0.1972 -0.3210
   7823SM   H6F10351   1.601  -0.044   6.375 -0.0476  0.9066  1.5771
   7823SM   H6G10352   1.738   0.033   6.302  0.4894  2.0143 -1.8485
   7823SM   C7F10353   1.558   0.063   6.194 -0.9514 -0.3636  0.2912
   7823SM   H7F10354   1.449   0.071   6.213 -1.2171  0.6775 -1.4320
   7823SM   H7G10355   1.583  -0.027   6.133  0.6360  0.2714 -0.0187
   7823SM   C8F10356   1.611   0.177   6.109 -0.2497 -0.3326  0.5008
   7823SM   H8F10357   1.714   0.140   6.093 -0.6792 -2.3426  1.9645
   7823SM   H8G10358   1.621   0.280   6.149  2.1472 -0.0936 -0.6064
   7823SM   C9F10359   1.546   0.179   5.973 -0.0413  0.6798 -0.2812
   7823SM   H9F10360   1.436   0.192   5.981 -0.0444 -0.1109  1.3330
   7823SM   H9G10361   1.562   0.077   5.931  0.8105  0.8035 -0.2665
   7823SM  C10F10362   1.610   0.282   5.884  0.6471  0.2410  0.1182
   7823SM  H10F10363   1.643   0.372   5.940 -0.7655  0.6995  0.2542
   7823SM  H10G10364   1.532   0.295   5.806 -0.7359 -1.8405  1.0537
   7823SM  C11F10365   1.733   0.230   5.802  0.1193  0.2479  0.3330
   7823SM  H11F10366   1.796   0.166   5.867 -1.2449 -0.8375  0.6207
   7823SM  H11G10367   1.780   0.318   5.752 -2.2428  0.7157 -1.2206
   7823SM  C12F10368   1.688   0.144   5.681  0.4160 -0.0935  0.2216
   7823SM  H12F10369   1.611   0.195   5.619  0.1621  0.5224  1.0217
   7823SM  H12G10370   1.627   0.057   5.714 -1.6077  0.9892 -0.4645
   7823SM  C13F10371   1.806   0.102   5.586  0.7073 -0.3225  0.3301
   7823SM  H13F10372   1.846   0.190   5.533 -2.6663 -0.0810 -2.1174
   7823SM  H13G10373   1.750   0.050   5.506 -1.4110  0.6532  1.1025
   7823SM  C14F10374   1.916   0.018   5.656  0.3820  0.1202  0.1693
   7823SM  H14F10375   1.868  -0.049   5.731  0.1670 -0.1201 -0.1797
   7823SM  H14G10376   1.982   0.074   5.725  1.4212 -1.1146  0.2304
   7823SM  C15F10377   1.995  -0.072   5.569 -0.1445 -0.0642  1.0712
   7823SM  H15F10378   2.047  -0.005   5.497 -0.6474 -2.1543 -1.3966
   7823SM  H15G10379   1.934  -0.142   5.508  2.2467 -2.0517  0.7798
   7823SM  C16F10380   2.100  -0.174   5.626  0.1947  0.1528 -0.0505
   7823SM  H16F10381   2.183  -0.111   5.665  0.5439 -1.5461  2.1560
   7823SM  H16G10382   2.134  -0.245   5.547  1.0388 -1.4979  1.7255
   7823SM  C17F10383   2.043  -0.268   5.732  0.1288  0.5117 -0.0843
   7823SM  H17F10384   1.938  -0.299   5.715  0.6721 -1.0951 -0.6999
   7823SM  H17G10385   2.061  -0.213   5.827 -0.3839 -0.0892  0.3715
   7823SM  C18F10386   2.125  -0.404   5.736  0.0646 -0.0115 -0.0534
   7823SM  H18F10387   2.233  -0.377   5.735  0.1159 -0.2032  0.5086
   7823SM  H18G10388   2.113  -0.448   5.634  0.4641 -0.7405  0.2074
   7823SM  C19F10389   2.090  -0.505   5.849  0.0429 -0.2673  0.5441
   7823SM  H19F10390   1.980  -0.518   5.857  0.1081 -1.3255 -0.0542
   7823SM  H19G10391   2.127  -0.453   5.939 -0.7859  2.2757 -0.4863
   7823SM  C20F10392   2.157  -0.638   5.834 -0.2729 -0.1140 -0.2627
   7823SM  H20F10393   2.128  -0.686   5.738  0.2476 -1.1149  0.0617
   7823SM  H20G10394   2.117  -0.706   5.913 -2.7905  0.2303 -1.1416
   7823SM  C21F10395   2.307  -0.628   5.845 -0.1029 -0.3092 -0.0547
   7823SM  H21F10396   2.329  -0.537   5.904  0.1785 -0.0579 -0.5405
   7823SM  H21G10397   2.357  -0.615   5.747 -2.3622 -1.8443 -1.5119
   7823SM  C22F10398   2.370  -0.758   5.910 -0.0123  0.0147  0.3537
   7823SM  H22F10399   2.305  -0.781   5.998 -0.3787 -0.5428 -0.0527
   7823SM  H22G10400   2.474  -0.738   5.943  0.5361 -1.0448 -0.6527
   7823SM  C23F10401   2.360  -0.873   5.818 -0.1767  0.3844  0.3425
   7823SM  H23F10402   2.418  -0.863   5.723 -0.1362 -1.6576  0.0940
   7823SM  H23G10403   2.256  -0.890   5.782  0.6757 -0.1863 -2.0874
   7823SM  H23H10404   2.396  -0.967   5.866 -2.3699 -1.4507 -1.3283
   7923SM     N10405   6.897   7.270   6.780 -0.1117 -0.3577 -0.2500
   7923SM   C1510406   7.047   7.257   6.778  0.8480 -0.0737  0.3644
   7923SM  H15A10407   7.101   7.328   6.716  2.3631 -0.5029  1.1446
   7923SM  H15B10408   7.081   7.155   6.764  0.0366 -0.2330 -0.5474
   7923SM  H15C10409   7.083   7.276   6.878 -1.1969 -0.8723  1.3019
   7923SM   C1410410   6.846   7.238   6.642 -0.3297 -0.4375 -0.1073
   7923SM  H14A10411   6.893   7.307   6.574 -0.6014  2.0530  2.0684
   7923SM  H14B10412   6.740   7.251   6.622 -0.4934 -0.1469  0.8943
   7923SM  H14C10413   6.870   7.134   6.626  0.3431  0.0356 -2.5463
   7923SM   C1310414   6.843   7.169   6.880 -0.2572 -0.4349  0.1918
   7923SM  H13A10415   6.881   7.072   6.850  0.3148  0.1460 -1.0221
   7923SM  H13B10416   6.735   7.164   6.871 -0.4065  0.9212  0.9405
   7923SM  H13C10417   6.876   7.198   6.979 -2.3923  0.0974  0.8117
   7923SM   C1210418   6.846   7.411   6.831  0.3402  0.1415  0.4220
   7923SM  H12A10419   6.887   7.428   6.930  1.1853  0.9890 -0.0570
   7923SM  H12B10420   6.740   7.402   6.851 -0.1895  1.8968 -1.2398
   7923SM   C1110421   6.869   7.539   6.740  0.2922 -0.4265 -0.3020
   7923SM  H11A10422   6.810   7.622   6.786 -0.7085 -1.4302  0.2889
   7923SM  H11B10423   6.815   7.511   6.647 -0.5968 -0.2031  0.1253
   7923SM     P10424   7.093   7.635   6.840  0.1923 -0.0822 -0.0307
   7923SM   O1310425   7.042   7.570   6.964 -0.2239  0.1341 -0.6732
   7923SM   O1410426   7.237   7.626   6.804 -0.4255  0.1902  0.0862
   7923SM   O1110427   7.041   7.789   6.821  0.6346 -0.3111  0.1787
   7923SM   O1210428   7.005   7.567   6.728 -0.3669  0.0593 -0.0322
   7923SM   C1S10429   7.059   7.853   6.692  0.1234 -0.3156 -0.0260
   7923SM   H1S10430   7.159   7.831   6.648  0.0858  2.6723 -1.8673
   7923SM   H1T10431   7.072   7.960   6.718  0.9404 -0.5473  0.5651
   7923SM    NF10432   6.990   7.909   6.464  0.2497  0.0944  0.5140
   7923SM   HNF10433   6.950   7.998   6.443 -0.3725 -0.4486 -0.7137
   7923SM   C2S10434   6.941   7.850   6.589 -0.3558 -0.5596 -0.4122
   7923SM   H2S10435   6.924   7.742   6.573 -1.3445 -0.2593 -1.5180
   7923SM   C3S10436   6.811   7.910   6.658  0.2996  0.5183  0.2103
   7923SM   H3S10437   6.833   8.019   6.662 -0.3768  0.7497 -1.6118
   7923SM    O310438   6.781   7.870   6.789 -0.1527  0.6253 -0.6691
   7923SM   HO310439   6.858   7.814   6.800 -0.7925 -0.2727 -0.6859
   7923SM   C4S10440   6.687   7.907   6.562 -0.5605 -1.2278 -0.8875
   7923SM   H4S10441   6.673   7.989   6.490  1.9001  0.4641  0.3998
   7923SM   C5S10442   6.602   7.808   6.569 -0.3139  0.1929  0.0953
   7923SM   H5S10443   6.619   7.735   6.650 -0.0299  0.1329 -0.0171
   7923SM   C6S10444   6.487   7.795   6.475 -0.4670  0.0761  0.6396
   7923SM   H6S10445   6.487   7.878   6.400  0.8645 -0.3885  0.1020
   7923SM   H6T10446   6.393   7.811   6.532 -2.5101 -1.7937 -1.9283
   7923SM   C7S10447   6.481   7.658   6.405 -0.9642 -0.0347  0.1594
   7923SM   H7S10448   6.404   7.654   6.324 -2.1755  0.2688  1.2621
   7923SM   H7T10449   6.451   7.573   6.470 -0.8274 -1.9186 -2.1159
   7923SM   C8S10450   6.605   7.613   6.329 -0.3767 -0.2651  0.2081
   7923SM   H8S10451   6.562   7.533   6.264 -0.9389  0.4904 -0.3754
   7923SM   H8T10452   6.684   7.579   6.399 -1.8721  0.0275  2.1022
   7923SM   C9S10453   6.664   7.721   6.234 -0.9041  0.2330 -0.1661
   7923SM   H9S10454   6.699   7.805   6.298 -0.8697  0.0069  0.1093
   7923SM   H9T10455   6.586   7.755   6.162 -1.0762  0.4770  0.1312
   7923SM  C10S10456   6.783   7.683   6.147 -0.1504 -0.1772 -0.7871
   7923SM  H10S10457   6.845   7.618   6.212 -0.1588 -0.3866 -0.9861
   7923SM  H10T10458   6.828   7.775   6.104 -1.0839  0.6347 -0.0692
   7923SM  C11S10459   6.745   7.586   6.036 -0.1629 -0.1500  0.0996
   7923SM  H11S10460   6.670   7.639   5.974  0.3194 -0.6922 -0.9761
   7923SM  H11T10461   6.676   7.507   6.072  0.8498 -0.2769  1.8511
   7923SM  C12S10462   6.866   7.532   5.957  0.1894 -0.8043 -0.2097
   7923SM  H12S10463   6.948   7.488   6.016 -0.2959 -0.4254  0.7622
   7923SM  H12T10464   6.900   7.615   5.891 -1.9832  0.4704  0.1698
   7923SM  C13S10465   6.824   7.428   5.858 -0.3724 -0.3864 -0.3468
   7923SM  H13S10466   6.731   7.466   5.812  0.3749  1.8115 -0.1745
   7923SM  H13T10467   6.807   7.330   5.908  1.8828 -1.5427 -1.6918
   7923SM  C14S10468   6.922   7.413   5.743 -0.1214  0.3362 -0.0071
   7923SM  H14S10469   6.925   7.505   5.681  1.5157 -0.3561 -1.0267
   7923SM  H14T10470   6.880   7.333   5.679  0.8612 -0.5581  0.4432
   7923SM  C15S10471   7.065   7.384   5.788  0.0815  0.4360 -0.9152
   7923SM  H15S10472   7.066   7.289   5.846  0.6798  0.6838 -0.5103
   7923SM  H15T10473   7.095   7.462   5.862 -0.2889  0.1090 -0.4094
   7923SM  C16S10474   7.158   7.369   5.673  0.2174  0.1119  0.0306
   7923SM  H16S10475   7.148   7.454   5.601 -0.8376 -0.1771 -0.1753
   7923SM  H16T10476   7.135   7.270   5.628  0.6805 -0.8265  1.7549
   7923SM  C17S10477   7.302   7.365   5.716 -0.0943  0.1412  0.5291
   7923SM  H17S10478   7.368   7.316   5.642  0.5863 -0.8506  1.7477
   7923SM  H17T10479   7.304   7.302   5.808 -0.5127  0.7882  0.9958
   7923SM  C18S10480   7.374   7.496   5.747 -0.4260  0.7029 -0.2025
   7923SM  H18S10481   7.326   7.535   5.839 -0.9729 -0.8104  0.1836
   7923SM  H18T10482   7.376   7.570   5.664  1.0790  1.6062  0.6038
   7923SM  H18U10483   7.480   7.486   5.777  0.3313  3.3871 -1.6444
   7923SM   C1F10484   7.082   7.853   6.379 -0.7197  0.0955 -0.2071
   7923SM    OF10485   7.138   7.747   6.406  0.3367  0.2015 -0.5784
   7923SM   C2F10486   7.123   7.925   6.247 -0.1148 -0.1806 -0.5793
   7923SM   H2F10487   7.222   7.973   6.266 -0.3648  0.3072 -0.4890
   7923SM   H2G10488   7.038   7.994   6.227  0.2437  0.6922  0.7579
   7923SM   C3F10489   7.130   7.826   6.126  0.0792 -0.0371 -0.5448
   7923SM   H3F10490   7.050   7.749   6.127  0.9994 -1.0242  0.7451
   7923SM   H3G10491   7.231   7.781   6.123  1.0665  2.0975 -3.1061
   7923SM   C4F10492   7.110   7.891   5.992 -0.0180 -0.1559  0.5502
   7923SM   H4F10493   7.161   7.989   6.004  0.4395 -0.0620 -1.7242
   7923SM   H4G10494   7.001   7.905   5.975 -0.5685 -1.9250  2.2555
   7923SM   C5F10495   7.172   7.821   5.873 -0.7193  0.0679  0.2203
   7923SM   H5F10496   7.128   7.720   5.861  0.0262 -0.0628 -1.6402
   7923SM   H5G10497   7.277   7.808   5.905 -1.1289 -1.0746  1.1961
   7923SM   C6F10498   7.159   7.891   5.736  0.0020 -0.0825  0.9387
   7923SM   H6F10499   7.208   7.990   5.734 -1.7865  0.8246 -0.9474
   7923SM   H6G10500   7.055   7.919   5.709 -0.5537 -1.4075  1.5869
   7923SM   C7F10501   7.208   7.807   5.611 -0.0989 -0.0080  1.0181
   7923SM   H7F10502   7.141   7.721   5.592  0.5313 -0.1080 -1.0714
   7923SM   H7G10503   7.305   7.770   5.651  0.2024  0.9616  1.2298
   7923SM   C8F10504   7.208   7.887   5.479  0.1164  0.4065 -0.1170
   7923SM   H8F10505   7.273   7.974   5.502 -0.6309  1.2310 -1.0110
   7923SM   H8G10506   7.108   7.932   5.467  0.1897  1.1252  1.6492
   7923SM   C9F10507   7.275   7.816   5.358 -0.4246 -1.2612 -0.4620
   7923SM   H9F10508   7.207   7.752   5.298 -0.2819 -0.6052 -1.3517
   7923SM   H9G10509   7.363   7.761   5.397  1.0312  1.7864  0.9073
   7923SM  C10F10510   7.336   7.919   5.256  0.0371 -0.2058  0.3450
   7923SM  H10F10511   7.389   7.861   5.177 -1.5313 -0.4571 -0.5647
   7923SM  H10G10512   7.415   7.979   5.305  1.4468 -0.9966 -0.8902
   7923SM  C11F10513   7.232   8.004   5.190  0.4327 -0.3201  0.6690
   7923SM  H11F10514   7.198   8.068   5.273  0.2424 -1.0145  1.1385
   7923SM  H11G10515   7.154   7.946   5.137  0.6382  2.0344 -2.4386
   7923SM  C12F10516   7.291   8.093   5.078  0.5648 -0.1684 -0.6121
   7923SM  H12F10517   7.381   8.146   5.115  0.3862 -1.4185  1.7724
   7923SM  H12G10518   7.227   8.179   5.049  0.2583 -0.5673 -1.1402
   7923SM  C13F10519   7.303   8.012   4.955  0.5284 -0.2422  0.4713
   7923SM  H13F10520   7.203   7.979   4.920  0.3054  1.6677 -0.8952
   7923SM  H13G10521   7.361   7.920   4.978 -1.0684 -0.8653  2.2644
   7923SM  C14F10522   7.352   8.095   4.836 -0.2366 -0.5189  0.1729
   7923SM  H14F10523   7.451   8.137   4.861 -0.1293 -0.4770 -0.3268
   7923SM  H14G10524   7.286   8.183   4.820 -1.1713 -1.2742 -0.2315
   7923SM  C15F10525   7.363   8.008   4.717 -0.2528 -0.0417  0.9917
   7923SM  H15F10526   7.267   7.987   4.665  0.3541  1.0907 -0.6741
   7923SM  H15G10527   7.407   7.910   4.744 -1.9865 -0.6303  1.7666
   7923SM  C16F10528   7.444   8.068   4.602 -0.1061 -1.1685  0.0664
   7923SM  H16F10529   7.449   7.994   4.519 -1.8583 -2.6559  1.1804
   7923SM  H16G10530   7.549   8.077   4.637 -0.0988  0.0644 -0.2212
   7923SM  C17F10531   7.403   8.208   4.552  0.7880  0.6865  0.2006
   7923SM  H17F10532   7.418   8.281   4.634  3.2715  0.1302  0.3220
   7923SM  H17G10533   7.296   8.216   4.525  0.4074  2.4635  2.0364
   7923SM  C18F10534   7.486   8.258   4.441  0.3731 -0.6720 -0.3091
   7923SM  H18F10535   7.487   8.187   4.356  3.5193  0.3721 -1.2664
   7923SM  H18G10536   7.592   8.266   4.472  0.7068 -0.8514 -1.3981
   7923SM  C19F10537   7.446   8.402   4.396 -0.3726 -0.3710 -0.1739
   7923SM  H19F10538   7.453   8.471   4.483 -2.6407 -0.7030  0.3569
   7923SM  H19G10539   7.340   8.393   4.362 -0.8239  0.1963  1.0213
   7923SM  C20F10540   7.519   8.450   4.274  0.3323  1.0327 -0.4746
   7923SM  H20F10541   7.483   8.393   4.186  0.8128 -0.7005  0.3932
   7923SM  H20G10542   7.627   8.424   4.280 -0.1306 -0.8268  0.4131
   7923SM  C21F10543   7.511   8.607   4.244  1.0503 -0.3234 -0.0660
   7923SM  H21F10544   7.576   8.627   4.156 -0.5253  0.8338 -1.0226
   7923SM  H21G10545   7.532   8.668   4.335 -0.9467  0.0970  0.1640
   7923SM  C22F10546   7.368   8.652   4.204  0.1310  0.2554 -0.6115
   7923SM  H22F10547   7.300   8.650   4.292  0.9134 -0.8084 -0.0071
   7923SM  H22G10548   7.326   8.582   4.128 -0.5059 -0.2904  0.2264
   7923SM  C23F10549   7.368   8.792   4.141  0.1046 -0.3098 -0.4746
   7923SM  H23F10550   7.450   8.788   4.066  0.0034 -0.0690 -0.5973
   7923SM  H23G10551   7.388   8.872   4.215 -0.1803  1.0950 -1.8736
   7923SM  H23H10552   7.268   8.797   4.093 -0.7666  0.0266  1.2868
   8023SM     N10553   0.238   0.359   7.246  0.2591 -0.8785 -0.4316
   8023SM   C1510554   0.251   0.225   7.304 -0.0763  0.3014 -0.8867
   8023SM  H15A10555   0.353   0.198   7.331 -0.8270 -0.9466  0.8961
   8023SM  H15B10556   0.223   0.144   7.238  2.6415 -0.9907 -0.6191
   8023SM  H15C10557   0.181   0.223   7.386 -1.4393 -0.3344 -2.0203
   8023SM   C1410558   0.101   0.377   7.195  0.0407  0.2905  0.4448
   8023SM  H14A10559   0.088   0.474   7.149  0.5325  0.9580  1.6830
   8023SM  H14B10560   0.023   0.358   7.267 -1.5193 -0.3203 -1.3173
   8023SM  H14C10561   0.086   0.303   7.117 -0.4365 -0.3476  1.1216
   8023SM   C1310562   0.262   0.463   7.352 -0.4620  0.3693 -0.2057
   8023SM  H13A10563   0.360   0.459   7.397 -1.3660  0.9143  1.9613
   8023SM  H13B10564   0.201   0.462   7.441  2.4389 -2.5834  2.0028
   8023SM  H13C10565   0.251   0.557   7.299  1.7160 -0.0833 -1.5580
   8023SM   C1210566   0.347   0.373   7.140  0.0500 -0.6496  0.3841
   8023SM  H12A10567   0.341   0.290   7.072 -1.2300  0.5622 -1.0582
   8023SM  H12B10568   0.442   0.380   7.191 -1.5560 -0.3451  3.6234
   8023SM   C1110569   0.335   0.493   7.046 -0.7803  0.0281 -0.3206
   8023SM  H11A10570   0.230   0.498   7.010 -0.7659  0.4700 -0.3159
   8023SM  H11B10571   0.407   0.480   6.962 -0.9960  0.0663 -0.5146
   8023SM     P10572   0.494   0.674   7.140 -0.1307 -0.1027  0.0995
   8023SM   O1310573   0.482   0.802   7.207 -0.2936  0.1459 -0.4365
   8023SM   O1410574   0.579   0.589   7.216 -0.1187  0.3309 -0.0279
   8023SM   O1110575   0.543   0.687   6.986  0.0194 -0.4081 -0.2498
   8023SM   O1210576   0.351   0.611   7.118 -0.2744  0.0915  0.2849
   8023SM   C1S10577   0.513   0.812   6.918  0.0586  0.4413  0.0201
   8023SM   H1S10578   0.532   0.897   6.988  0.9489  1.2470 -1.1721
   8023SM   H1T10579   0.405   0.798   6.894 -0.0559  0.4996  0.4867
   8023SM    NF10580   0.594   0.985   6.761 -0.4168  0.1085 -0.2913
   8023SM   HNF10581   0.535   1.024   6.691  0.3483 -2.0772 -2.2941
   8023SM   C2S10582   0.609   0.841   6.795  0.1277  0.0756  0.1202
   8023SM   H2S10583   0.714   0.823   6.825  0.2898  1.1980  0.3005
   8023SM   C3S10584   0.561   0.743   6.684 -0.7762  0.1419 -0.1325
   8023SM   H3S10585   0.455   0.766   6.660 -0.8666  0.4932  0.5817
   8023SM    O310586   0.564   0.610   6.731  0.4105 -0.7801 -0.2698
   8023SM   HO310587   0.559   0.619   6.826 -2.3505 -0.3446 -0.3999
   8023SM   C4S10588   0.644   0.754   6.552  0.0556 -0.2644 -0.3274
   8023SM   H4S10589   0.586   0.816   6.482  0.6914  1.7457  0.8504
   8023SM   C5S10590   0.761   0.691   6.508  0.2982  0.2992  0.9747
   8023SM   H5S10591   0.797   0.605   6.565 -0.2316 -0.6441 -0.0641
   8023SM   C6S10592   0.823   0.702   6.372 -0.2962 -0.1427 -0.1750
   8023SM   H6S10593   0.860   0.600   6.346 -1.0442 -0.4628 -0.0071
   8023SM   H6T10594   0.917   0.760   6.381  0.2514 -1.2081  1.2859
   8023SM   C7S10595   0.732   0.748   6.253  0.1889  0.6202 -0.8811
   8023SM   H7S10596   0.691   0.850   6.270 -1.2055 -0.2199  1.0171
   8023SM   H7T10597   0.645   0.680   6.243  1.1444 -0.8283  0.2636
   8023SM   C8S10598   0.802   0.747   6.117  0.4855 -0.4209 -0.0401
   8023SM   H8S10599   0.821   0.652   6.063  0.3075 -0.5213  0.0728
   8023SM   H8T10600   0.907   0.775   6.137 -0.1600  0.7992  1.9174
   8023SM   C9S10601   0.727   0.825   6.011 -0.0817  0.0744  0.3001
   8023SM   H9S10602   0.714   0.934   6.029 -1.5151 -0.1361  0.7072
   8023SM   H9T10603   0.620   0.795   6.006 -0.5096  1.7333 -1.7206
   8023SM  C10S10604   0.783   0.809   5.872 -0.5736 -0.1846  0.5590
   8023SM  H10S10605   0.763   0.707   5.835 -0.0773  0.5536 -1.9150
   8023SM  H10T10606   0.893   0.825   5.877 -0.3234 -2.0701  3.0500
   8023SM  C11S10607   0.728   0.909   5.764  0.1584 -1.0082  0.1639
   8023SM  H11S10608   0.726   1.005   5.819  1.6824 -0.8218 -0.0514
   8023SM  H11T10609   0.623   0.883   5.742  0.5065 -1.4060 -1.1130
   8023SM  C12S10610   0.815   0.907   5.645 -1.1118 -0.1220 -0.4902
   8023SM  H12S10611   0.835   0.800   5.623 -1.2580 -0.5869  1.3948
   8023SM  H12T10612   0.912   0.954   5.672 -1.6162 -0.3448  2.0166
   8023SM  C13S10613   0.767   0.970   5.512  0.1759 -0.7698  0.3057
   8023SM  H13S10614   0.741   1.077   5.522 -1.4291 -1.0290 -0.7901
   8023SM  H13T10615   0.674   0.913   5.493  0.0132 -0.3653 -0.1250
   8023SM  C14S10616   0.860   0.946   5.400  0.6779  0.1284  0.1891
   8023SM  H14S10617   0.795   0.960   5.311 -3.5018  0.4103  2.9785
   8023SM  H14T10618   0.883   0.838   5.395 -1.3915 -0.5469  2.7456
   8023SM  C15S10619   0.985   1.027   5.389  0.3179  0.2537 -0.9686
   8023SM  H15S10620   1.052   1.018   5.477  0.3746  1.8824 -0.8163
   8023SM  H15T10621   0.967   1.136   5.382  2.2653  0.6097 -0.8737
   8023SM  C16S10622   1.059   0.995   5.258  0.8010  0.3386  0.0138
   8023SM  H16S10623   0.984   0.996   5.176  1.5399  1.4878 -0.6801
   8023SM  H16T10624   1.122   0.903   5.256  2.0772  1.1747 -1.9303
   8023SM  C17S10625   1.171   1.094   5.215 -0.0816 -0.4485  0.1078
   8023SM  H17S10626   1.268   1.080   5.266  1.3457  0.5749 -2.1982
   8023SM  H17T10627   1.138   1.197   5.242 -0.8952 -0.1753 -1.8173
   8023SM  C18S10628   1.195   1.101   5.065 -0.0430  0.0566 -0.2861
   8023SM  H18S10629   1.261   1.022   5.026 -0.0020 -0.1038  0.1012
   8023SM  H18T10630   1.230   1.205   5.045  1.8388 -0.4591  0.1488
   8023SM  H18U10631   1.104   1.086   5.002  1.2212 -2.3134 -1.6832
   8023SM   C1F10632   0.662   1.076   6.832  0.3151  0.6530  0.1558
   8023SM    OF10633   0.750   1.045   6.916  0.0406 -0.0043  0.4514
   8023SM   C2F10634   0.630   1.223   6.793  0.4813 -0.1689 -0.2301
   8023SM   H2F10635   0.520   1.237   6.792  0.4477 -0.4380 -0.6564
   8023SM   H2G10636   0.662   1.245   6.688 -0.5134  0.5639 -0.3951
   8023SM   C3F10637   0.708   1.317   6.891  0.4517 -0.8420  0.0653
   8023SM   H3F10638   0.814   1.308   6.858  0.2765  0.8668 -1.0948
   8023SM   H3G10639   0.693   1.290   6.997  0.3869  1.7843  0.7936
   8023SM   C4F10640   0.689   1.469   6.855  0.2441 -0.9833  0.2839
   8023SM   H4F10641   0.682   1.542   6.939 -1.7504  0.1652 -0.7959
   8023SM   H4G10642   0.593   1.470   6.799  0.5356  0.8883 -0.2679
   8023SM   C5F10643   0.795   1.536   6.764 -0.1135 -0.3314  0.3286
   8023SM   H5F10644   0.895   1.517   6.810  1.0375  1.2450 -1.3635
   8023SM   H5G10645   0.788   1.646   6.777 -2.2175 -0.5236  1.1316
   8023SM   C6F10646   0.788   1.491   6.616 -0.5286  0.5361 -0.7374
   8023SM   H6F10647   0.683   1.509   6.585 -1.6706 -2.0773  1.2513
   8023SM   H6G10648   0.813   1.383   6.613  0.5437  0.6554  1.4850
   8023SM   C7F10649   0.861   1.581   6.529  0.6409 -0.5542 -0.0047
   8023SM   H7F10650   0.969   1.562   6.548  1.2108  2.6925  0.5599
   8023SM   H7G10651   0.850   1.685   6.567  0.7203 -0.7704  0.6312
   8023SM   C8F10652   0.825   1.542   6.376  0.4968  0.4623  0.1173
   8023SM   H8F10653   0.723   1.577   6.349 -0.1515 -1.6025 -0.2972
   8023SM   H8G10654   0.823   1.431   6.369 -0.4619  0.3729  1.3810
   8023SM   C9F10655   0.923   1.609   6.277  0.3268 -0.3653 -0.2545
   8023SM   H9F10656   1.022   1.565   6.302  1.8812  1.6737 -2.3924
   8023SM   H9G10657   0.931   1.717   6.302 -0.4338  0.0722 -1.7918
   8023SM  C10F10658   0.884   1.589   6.131 -0.0344 -0.3933 -0.3967
   8023SM  H10F10659   0.778   1.619   6.123 -0.0966 -0.4529  0.1429
   8023SM  H10G10660   0.886   1.478   6.130  0.7834 -0.4289  1.2451
   8023SM  C11F10661   0.974   1.654   6.016  0.6903  0.0368  0.0156
   8023SM  H11F10662   1.078   1.617   6.025  0.3601 -0.6083  1.6000
   8023SM  H11G10663   0.974   1.766   6.018  2.2682  0.0773 -0.6809
   8023SM  C12F10664   0.925   1.602   5.877  0.2776 -0.1144  0.1979
   8023SM  H12F10665   0.825   1.645   5.854 -0.6965 -2.3443 -0.0218
   8023SM  H12G10666   0.905   1.495   5.896 -2.5558  0.5218  1.3568
   8023SM  C13F10667   1.035   1.626   5.762 -0.2129  0.3983 -0.0174
   8023SM  H13F10668   1.120   1.560   5.785  0.0906 -0.2015 -2.5443
   8023SM  H13G10669   1.052   1.736   5.771 -0.6786  0.5510 -0.8825
   8023SM  C14F10670   0.985   1.601   5.623 -0.4362  0.9064 -0.3886
   8023SM  H14F10671   1.037   1.659   5.544 -0.0649  0.6267 -0.3509
   8023SM  H14G10672   0.875   1.615   5.618 -0.8904 -2.1001 -0.8898
   8023SM  C15F10673   1.010   1.456   5.577  0.8617 -0.0805  0.0933
   8023SM  H15F10674   0.943   1.391   5.637 -0.6222  0.8754 -0.4776
   8023SM  H15G10675   1.115   1.419   5.585  0.7102 -1.0731 -1.7561
   8023SM  C16F10676   0.964   1.431   5.431 -0.0328  0.2700  0.1357
   8023SM  H16F10677   1.018   1.342   5.392  1.8112  1.6339 -0.5133
   8023SM  H16G10678   0.996   1.523   5.378  2.0019 -0.8172 -0.6251
   8023SM  C17F10679   0.808   1.410   5.410  0.2080  0.2771  0.0303
   8023SM  H17F10680   0.745   1.500   5.422 -0.8283 -0.5028  0.6059
   8023SM  H17G10681   0.785   1.343   5.495  0.1996 -1.2838 -1.1581
   8023SM  C18F10682   0.763   1.340   5.284  0.2556 -0.3770 -0.5584
   8023SM  H18F10683   0.652   1.350   5.279  0.2737  0.1035 -0.1034
   8023SM  H18G10684   0.769   1.229   5.283  1.2490 -0.3520  0.8706
   8023SM  C19F10685   0.811   1.407   5.156 -0.4784 -0.4035 -0.1518
   8023SM  H19F10686   0.919   1.381   5.149  0.2035  1.9768  0.5130
   8023SM  H19G10687   0.811   1.517   5.173  1.6295 -0.2983 -0.5824
   8023SM  C20F10688   0.712   1.373   5.037  0.1587  0.0147  0.0260
   8023SM  H20F10689   0.612   1.414   5.059 -0.4280 -1.6488  0.6357
   8023SM  H20G10690   0.697   1.263   5.031  1.3851 -0.0908 -2.0350
   8023SM  C21F10691   0.767   1.427   4.903  0.0386  0.4458  0.8409
   8023SM  H21F10692   0.746   1.534   4.882  0.7561  0.2367 -1.2119
   8023SM  H21G10693   0.703   1.375   4.830  0.5453 -2.0962  2.1071
   8023SM  C22F10694   0.912   1.395   4.871 -0.3224 -0.4131 -0.0667
   8023SM  H22F10695   0.927   1.291   4.908  0.8971 -0.6046 -1.0395
   8023SM  H22G10696   0.977   1.470   4.920  0.2586 -1.1769  0.3628
   8023SM  C23F10697   0.961   1.413   4.727 -0.0248 -0.4349 -0.1161
   8023SM  H23F10698   0.970   1.520   4.698  0.7410 -0.7364 -1.0385
   8023SM  H23G10699   0.882   1.363   4.665 -0.4149 -0.7051  0.5882
   8023SM  H23H10700   1.059   1.363   4.713 -0.1723 -0.2460 -2.1948
   8123SM     N10701   3.308   2.553   2.886 -0.2727 -0.0655 -0.6290
   8123SM   C1510702   3.281   2.513   3.032 -0.2772 -0.6035  0.2034
   8123SM  H15A10703   3.333   2.592   3.084  0.6035  0.6710 -2.4048
   8123SM  H15B10704   3.315   2.413   3.056 -1.8667 -1.2182  0.0218
   8123SM  H15C10705   3.174   2.512   3.050 -0.4188  0.4164 -0.4856
   8123SM   C1410706   3.248   2.453   2.800  0.4726  0.3692 -0.1661
   8123SM  H14A10707   3.141   2.463   2.790  0.5979  0.6226 -1.4425
   8123SM  H14B10708   3.282   2.352   2.817  0.3287  0.1297 -1.2096
   8123SM  H14C10709   3.276   2.471   2.697 -1.5562 -0.8853 -0.9970
   8123SM   C1310710   3.258   2.690   2.865 -0.6704 -0.3681 -0.5079
   8123SM  H13A10711   3.242   2.712   2.761  1.0997 -0.8369 -0.8996
   8123SM  H13B10712   3.321   2.771   2.899 -0.5404 -0.3322 -0.8316
   8123SM  H13C10713   3.163   2.710   2.913 -0.2633  2.4417 -0.7091
   8123SM   C1210714   3.460   2.539   2.863  0.8471 -0.0163 -0.2658
   8123SM  H12A10715   3.473   2.525   2.757  1.7445  1.2725 -0.3430
   8123SM  H12B10716   3.499   2.447   2.905  0.0309  0.4442  1.6394
   8123SM   C1110717   3.554   2.648   2.922  0.0108  0.3242  0.5801
   8123SM  H11A10718   3.656   2.605   2.911 -0.7832 -1.2700 -0.9519
   8123SM  H11B10719   3.534   2.665   3.030 -0.1079  1.8419  0.3449
   8123SM     P10720   3.617   2.794   2.714 -0.1225 -0.4905 -0.2177
   8123SM   O1310721   3.624   2.667   2.639 -0.0736  0.1397  0.2501
   8123SM   O1410722   3.567   2.917   2.642  1.1322 -0.0307 -0.1128
   8123SM   O1110723   3.765   2.832   2.761 -0.7797  0.2093  0.6285
   8123SM   O1210724   3.535   2.769   2.850  0.2771  0.0585  0.0095
   8123SM   C1S10725   3.793   2.933   2.859 -0.1869  0.2505 -0.6301
   8123SM   H1S10726   3.696   2.968   2.901  0.3981  1.1189  0.0200
   8123SM   H1T10727   3.855   3.015   2.819 -0.8506  1.6741  1.1165
   8123SM    NF10728   3.867   2.999   3.080 -0.1415  0.5404 -0.4811
   8123SM   HNF10729   3.949   3.056   3.071  0.9892 -1.3125 -3.0492
   8123SM   C2S10730   3.863   2.883   2.988  0.1576  0.3955  1.0395
   8123SM   H2S10731   3.790   2.814   3.035 -0.4623  1.5272  1.7928
   8123SM   C3S10732   3.995   2.814   2.955 -0.0038 -0.1724 -0.0359
   8123SM   H3S10733   4.054   2.892   2.902 -0.6433 -0.7936 -1.7378
   8123SM    O310734   3.976   2.704   2.875  0.0330 -0.0678  0.1293
   8123SM   HO310735   3.888   2.708   2.835  1.2220  0.9443 -2.7073
   8123SM   C4S10736   4.071   2.777   3.080  0.7977  0.1048 -0.5011
   8123SM   H4S10737   4.039   2.685   3.130  1.9603  0.3181  0.6696
   8123SM   C5S10738   4.177   2.835   3.126 -0.0228 -0.0615 -0.4594
   8123SM   H5S10739   4.235   2.897   3.056 -0.9900 -0.8218 -2.0053
   8123SM   C6S10740   4.255   2.793   3.250  0.2837  1.0281 -0.0700
   8123SM   H6S10741   4.325   2.875   3.274 -1.1908  2.3510 -0.1278
   8123SM   H6T10742   4.311   2.704   3.213 -2.6792 -0.7639 -0.6208
   8123SM   C7S10743   4.184   2.764   3.383 -0.1773 -0.3860 -0.4237
   8123SM   H7S10744   4.267   2.733   3.450 -1.7174 -1.4692  1.0850
   8123SM   H7T10745   4.112   2.680   3.378 -1.6655  0.6343  1.9344
   8123SM   C8S10746   4.112   2.881   3.443  0.9710  0.4662 -0.2997
   8123SM   H8S10747   4.048   2.912   3.358 -0.7707  0.4043  0.9097
   8123SM   H8T10748   4.185   2.963   3.460 -0.5667  1.4776  1.9758
   8123SM   C9S10749   4.031   2.851   3.568 -0.0244  0.5168 -0.6256
   8123SM   H9S10750   4.104   2.813   3.643 -4.0135 -0.8307  3.0463
   8123SM   H9T10751   3.973   2.758   3.549  1.4945 -1.1311  2.0463
   8123SM  C10S10752   3.935   2.959   3.623  0.5794  0.2239 -0.0435
   8123SM  H10S10753   3.870   2.980   3.535 -2.1946 -0.7244  1.6377
   8123SM  H10T10754   3.990   3.050   3.654 -2.9124  2.4931  0.0405
   8123SM  C11S10755   3.836   2.902   3.728  0.4010 -0.0773  0.1816
   8123SM  H11S10756   3.761   2.832   3.686  1.6583 -2.0795  1.1202
   8123SM  H11T10757   3.782   2.987   3.775  1.1527  0.9886 -0.8439
   8123SM  C12S10758   3.909   2.822   3.840  0.4970  0.4502 -0.0509
   8123SM  H12S10759   3.977   2.894   3.891  0.9084 -0.4690  0.7282
   8123SM  H12T10760   3.971   2.744   3.789  1.4310  0.7053  0.6589
   8123SM  C13S10761   3.814   2.747   3.933 -0.1992  0.3594 -0.1481
   8123SM  H13S10762   3.782   2.647   3.897 -1.5236  1.3795 -2.0072
   8123SM  H13T10763   3.718   2.803   3.938  0.0949  1.0535 -1.6541
   8123SM  C14S10764   3.870   2.735   4.076  0.2771  0.0158 -0.5475
   8123SM  H14S10765   3.914   2.832   4.105  0.5838 -0.1403 -0.4825
   8123SM  H14T10766   3.958   2.668   4.066 -1.2708 -2.0389 -1.1355
   8123SM  C15S10767   3.770   2.686   4.176 -0.2554  0.4801  0.0556
   8123SM  H15S10768   3.830   2.646   4.260  3.1014  2.2869 -1.2942
   8123SM  H15T10769   3.705   2.614   4.122 -1.9699  2.3639 -0.5063
   8123SM  C16S10770   3.680   2.801   4.220 -0.3811 -0.3894 -0.6221
   8123SM  H16S10771   3.598   2.814   4.146 -0.7467 -0.8205 -0.2956
   8123SM  H16T10772   3.739   2.894   4.231 -0.0542 -0.9321  5.2606
   8123SM  C17S10773   3.604   2.773   4.353 -0.3029  0.3352  0.0350
   8123SM  H17S10774   3.679   2.752   4.433 -0.0718 -1.9611 -0.7048
   8123SM  H17T10775   3.547   2.677   4.353 -3.5140  2.0879 -0.9115
   8123SM  C18S10776   3.514   2.887   4.400  0.6915  0.0429 -0.4463
   8123SM  H18S10777   3.449   2.928   4.320 -1.3328 -2.0242  0.0351
   8123SM  H18T10778   3.575   2.972   4.436 -0.8096  1.7667 -1.7662
   8123SM  H18U10779   3.453   2.855   4.487  2.3761  0.3281  0.9127
   8123SM   C1F10780   3.762   3.046   3.142  0.2510 -0.3533  0.1717
   8123SM    OF10781   3.651   2.992   3.149  0.1250 -0.0416  0.2344
   8123SM   C2F10782   3.792   3.187   3.204 -0.0373 -0.1027  0.0512
   8123SM   H2F10783   3.789   3.276   3.138 -1.8767  0.8099  1.2834
   8123SM   H2G10784   3.888   3.181   3.261 -0.6022  1.0244  1.1716
   8123SM   C3F10785   3.686   3.222   3.311  0.4292 -0.5633  0.4931
   8123SM   H3F10786   3.687   3.129   3.372 -0.2594 -1.1567 -0.3709
   8123SM   H3G10787   3.582   3.232   3.274  0.3938  1.7721  1.0491
   8123SM   C4F10788   3.698   3.357   3.394 -0.6990 -0.0988 -0.0059
   8123SM   H4F10789   3.655   3.437   3.331 -0.0079  0.5948  0.3881
   8123SM   H4G10790   3.801   3.387   3.423 -1.2282  0.9025  0.8744
   8123SM   C5F10791   3.609   3.347   3.516 -0.1691  0.1006  0.4007
   8123SM   H5F10792   3.669   3.295   3.594 -1.3479 -3.3127 -0.7897
   8123SM   H5G10793   3.522   3.284   3.489 -0.9035  1.6293 -1.0050
   8123SM   C6F10794   3.580   3.483   3.580  0.2683 -0.1020  0.1554
   8123SM   H6F10795   3.514   3.543   3.514  2.4256  0.2484 -1.8166
   8123SM   H6G10796   3.674   3.543   3.584 -0.7486  1.6152 -0.8278
   8123SM   C7F10797   3.540   3.475   3.727  0.6835 -0.7118  0.1137
   8123SM   H7F10798   3.633   3.465   3.788 -0.0814 -0.5922  1.3290
   8123SM   H7G10799   3.469   3.389   3.731 -1.1416  0.6207 -1.6740
   8123SM   C8F10800   3.465   3.604   3.778 -0.4182  0.5178  0.4594
   8123SM   H8F10801   3.366   3.595   3.729 -1.1241  0.8536  1.7739
   8123SM   H8G10802   3.524   3.695   3.753  0.4764 -0.0441  0.4584
   8123SM   C9F10803   3.423   3.596   3.922  0.1075  0.1447 -0.2388
   8123SM   H9F10804   3.515   3.590   3.985  0.1943 -1.3148 -0.4566
   8123SM   H9G10805   3.363   3.504   3.937  0.0615 -0.2087 -2.3225
   8123SM  C10F10806   3.350   3.721   3.978 -0.3513  0.4381  0.3861
   8123SM  H10F10807   3.267   3.757   3.913 -1.5310 -0.3301  1.4274
   8123SM  H10G10808   3.417   3.806   4.002  0.4223 -0.1880  0.4908
   8123SM  C11F10809   3.282   3.689   4.114 -0.2638 -0.7995  0.5630
   8123SM  H11F10810   3.364   3.652   4.180 -0.9659 -3.7607 -0.1002
   8123SM  H11G10811   3.222   3.600   4.086 -2.4648  0.7981 -0.1282
   8123SM  C12F10812   3.196   3.797   4.182 -0.3758 -0.9243 -0.3650
   8123SM  H12F10813   3.110   3.837   4.124 -0.8800 -0.5910  0.5772
   8123SM  H12G10814   3.268   3.881   4.182  0.5736 -1.6098  2.4866
   8123SM  C13F10815   3.161   3.776   4.330  0.0125 -0.3554  0.2011
   8123SM  H13F10816   3.250   3.746   4.390  2.0226 -0.5820 -2.6896
   8123SM  H13G10817   3.100   3.683   4.330 -0.1006 -0.2862  0.8344
   8123SM  C14F10818   3.075   3.883   4.397 -0.1118  0.2111  0.3866
   8123SM  H14F10819   3.023   3.824   4.476  0.0017 -1.2923 -0.6180
   8123SM  H14G10820   2.999   3.921   4.325  1.6477  1.8996 -0.6651
   8123SM  C15F10821   3.167   3.995   4.437 -0.3253  0.6646  0.6260
   8123SM  H15F10822   3.236   4.019   4.353 -1.9796  0.3783 -0.8764
   8123SM  H15G10823   3.222   3.959   4.526 -2.0962 -1.7340  0.8325
   8123SM  C16F10824   3.089   4.127   4.471 -0.0300 -0.7197 -0.0798
   8123SM  H16F10825   3.003   4.128   4.540 -0.6152  1.9625 -0.7357
   8123SM  H16G10826   3.042   4.166   4.378 -0.6138  0.8075  0.8200
   8123SM  C17F10827   3.187   4.236   4.518  0.2852  0.2332  0.3167
   8123SM  H17F10828   3.281   4.227   4.460  0.2183  1.3650  0.0167
   8123SM  H17G10829   3.219   4.213   4.622  0.9317  3.5856  0.9655
   8123SM  C18F10830   3.131   4.380   4.509 -0.6967  0.5637  0.0392
   8123SM  H18F10831   3.103   4.374   4.402  0.2353  0.2390 -0.2004
   8123SM  H18G10832   3.209   4.458   4.522  1.3611 -1.5165  0.9639
   8123SM  C19F10833   3.009   4.405   4.586  0.4521 -0.5210 -0.8008
   8123SM  H19F10834   2.938   4.320   4.593  1.6109 -1.6341 -2.1250
   8123SM  H19G10835   2.957   4.497   4.551  1.6400  0.7882  0.7021
   8123SM  C20F10836   3.057   4.444   4.733 -0.1256  0.0620  0.4329
   8123SM  H20F10837   3.133   4.524   4.725  0.4273 -0.4450  0.5360
   8123SM  H20G10838   3.102   4.357   4.785 -0.8675  0.5230  1.9103
   8123SM  C21F10839   2.936   4.490   4.813 -0.2648  0.0907  0.1230
   8123SM  H21F10840   2.857   4.413   4.828 -2.1781  2.2237  1.7067
   8123SM  H21G10841   2.898   4.572   4.750  3.0832  0.9750 -0.9546
   8123SM  C22F10842   2.961   4.544   4.958 -0.1471  0.0787 -0.1313
   8123SM  H22F10843   3.014   4.640   4.939  3.3490 -1.9723 -1.7011
   8123SM  H22G10844   3.032   4.480   5.014 -1.3732  0.2894  1.7488
   8123SM  C23F10845   2.836   4.568   5.042  0.0917  0.5671 -0.5234
   8123SM  H23F10846   2.806   4.472   5.090  1.8853  0.1123 -0.2261
   8123SM  H23G10847   2.747   4.605   4.988  0.6225  0.8094 -1.2457
   8123SM  H23H10848   2.861   4.647   5.116 -0.5712 -0.3985  0.7733
   8223SM     N10849   4.814   3.673   2.634 -0.3070 -0.0626 -0.5609
   8223SM   C1510850   4.794   3.818   2.674  0.0945  0.3915  0.0098
   8223SM  H15A10851   4.855   3.839   2.762 -0.5177 -1.2937  0.8794
   8223SM  H15B10852   4.687   3.823   2.683  0.0082 -1.3285  0.3914
   8223SM  H15C10853   4.820   3.881   2.590  2.0689  0.0175  0.2740
   8223SM   C1410854   4.737   3.638   2.512 -0.2678 -0.4612 -0.2592
   8223SM  H14A10855   4.769   3.543   2.472 -1.2272 -0.2482 -1.5956
   8223SM  H14B10856   4.735   3.718   2.440 -1.1745  0.3910  0.6763
   8223SM  H14C10857   4.632   3.627   2.538 -0.8059  1.7681 -1.3044
   8223SM   C1310858   4.955   3.661   2.606 -0.2417  0.0349 -0.1967
   8223SM  H13A10859   5.016   3.699   2.686 -1.0266 -0.7370  0.7964
   8223SM  H13B10860   4.990   3.713   2.518  2.2167  1.7461  1.6537
   8223SM  H13C10861   4.984   3.558   2.593  1.5648  0.2145  1.8681
   8223SM   C1210862   4.779   3.584   2.750 -0.8335 -0.1101  0.0912
   8223SM  H12A10863   4.847   3.587   2.834 -0.6628  1.4329 -0.0590
   8223SM  H12B10864   4.790   3.486   2.706 -1.2823  0.3874 -1.1691
   8223SM   C1110865   4.642   3.590   2.815 -0.2986 -0.0948  0.4799
   8223SM  H11A10866   4.634   3.694   2.854 -2.5116  0.2028 -0.6131
   8223SM  H11B10867   4.629   3.518   2.899 -1.5351  0.4679  0.7992
   8223SM     P10868   4.423   3.463   2.724 -0.0873 -0.3289 -0.1928
   8223SM   O1310869   4.377   3.433   2.586 -0.1530 -0.5424 -0.2735
   8223SM   O1410870   4.492   3.354   2.794  0.3002 -0.1000  0.0550
   8223SM   O1110871   4.310   3.541   2.794  0.3638 -0.5287  0.1513
   8223SM   O1210872   4.528   3.584   2.727  0.1413  0.1368 -0.4918
   8223SM   C1S10873   4.334   3.621   2.910 -0.0705 -0.0140 -0.2256
   8223SM   H1S10874   4.397   3.707   2.881 -0.3630 -0.3516 -1.9551
   8223SM   H1T10875   4.388   3.559   2.985  1.7647  2.7861  0.9042
   8223SM    NF10876   4.259   3.752   3.102 -0.3432  0.8692 -0.0739
   8223SM   HNF10877   4.246   3.703   3.188  1.0729  1.4696  0.5296
   8223SM   C2S10878   4.211   3.669   2.991 -0.1825  0.6331  0.1440
   8223SM   H2S10879   4.153   3.734   2.922  1.4595  1.5980 -0.3720
   8223SM   C3S10880   4.118   3.552   3.044 -0.8093  0.2904 -0.4411
   8223SM   H3S10881   4.181   3.502   3.121 -0.9804  0.4032 -0.2282
   8223SM    O310882   4.103   3.443   2.948  0.2871  0.0844 -0.2205
   8223SM   HO310883   4.164   3.464   2.878 -2.2117  0.6039 -2.4089
   8223SM   C4S10884   3.990   3.598   3.109 -0.5857 -0.0122 -0.1662
   8223SM   H4S10885   4.000   3.617   3.217  1.4024 -3.2302  0.3308
   8223SM   C5S10886   3.874   3.611   3.052  0.0660 -0.6955  0.4253
   8223SM   H5S10887   3.869   3.602   2.943  1.4685  0.6007  0.2178
   8223SM   C6S10888   3.746   3.657   3.113  0.5245 -0.8397  0.1031
   8223SM   H6S10889   3.682   3.568   3.132 -0.0691 -0.3499  0.4003
   8223SM   H6T10890   3.694   3.711   3.031 -0.1405  1.9784  2.2316
   8223SM   C7S10891   3.733   3.743   3.242 -0.9457 -0.2480  0.2675
   8223SM   H7S10892   3.800   3.831   3.233  0.0006 -1.0043 -0.1584
   8223SM   H7T10893   3.773   3.684   3.327  0.4001  0.2593  0.0013
   8223SM   C8S10894   3.595   3.797   3.269  0.2809 -0.0703 -0.4466
   8223SM   H8S10895   3.518   3.718   3.275  1.2806 -1.0261  0.1803
   8223SM   H8T10896   3.562   3.863   3.186 -0.2127 -0.9128 -0.9340
   8223SM   C9S10897   3.590   3.885   3.398 -0.9421  0.2550 -0.2569
   8223SM   H9S10898   3.643   3.978   3.369  0.7399 -1.8011 -4.8425
   8223SM   H9T10899   3.660   3.836   3.469  0.6497  1.3954 -0.9931
   8223SM  C10S10900   3.461   3.900   3.464  0.5401  0.4979 -0.2685
   8223SM  H10S10901   3.427   3.802   3.503 -1.9999  0.7502 -1.6272
   8223SM  H10T10902   3.377   3.934   3.399 -0.9784  1.1014  1.9019
   8223SM  C11S10903   3.458   4.004   3.580 -0.1695  0.3282 -0.0046
   8223SM  H11S10904   3.430   4.105   3.542 -0.7181 -0.2566 -1.1721
   8223SM  H11T10905   3.554   4.005   3.636 -0.8077 -1.4286  1.2086
   8223SM  C12S10906   3.343   3.974   3.687  0.7487 -0.3292  0.0555
   8223SM  H12S10907   3.327   3.867   3.713  1.6651 -0.2443  1.0198
   8223SM  H12T10908   3.247   4.004   3.639  0.2817  0.0194  1.1941
   8223SM  C13S10909   3.344   4.075   3.808 -0.4772  0.2031 -0.1018
   8223SM  H13S10910   3.372   4.179   3.781 -0.0482 -0.2252 -1.3425
   8223SM  H13T10911   3.418   4.040   3.883 -0.7124 -0.0033  0.0357
   8223SM  C14S10912   3.214   4.075   3.886 -0.6965 -0.6108 -0.6489
   8223SM  H14S10913   3.162   3.977   3.890 -1.1711 -0.3096  2.3846
   8223SM  H14T10914   3.139   4.148   3.851 -2.2357 -1.4060  0.8325
   8223SM  C15S10915   3.247   4.129   4.027  0.0408  0.1986  0.3627
   8223SM  H15S10916   3.324   4.067   4.077 -1.6244 -1.8539  0.5004
   8223SM  H15T10917   3.158   4.114   4.092  0.0017 -3.8094 -0.3933
   8223SM  C16S10918   3.286   4.287   4.029 -0.2772  0.3321  0.1299
   8223SM  H16S10919   3.202   4.337   3.977 -1.3503 -0.5762  0.9626
   8223SM  H16T10920   3.369   4.291   3.955 -0.5696  2.0322 -0.1463
   8223SM  C17S10921   3.311   4.353   4.160  0.1140  0.0967 -0.0034
   8223SM  H17S10922   3.225   4.340   4.229  0.9528 -2.3306  0.6689
   8223SM  H17T10923   3.315   4.464   4.148 -0.5653  0.0339 -0.8365
   8223SM  C18S10924   3.442   4.307   4.226 -0.3488 -0.0752  0.7841
   8223SM  H18S10925   3.449   4.196   4.217 -1.3204  0.0116 -1.5950
   8223SM  H18T10926   3.452   4.339   4.332 -0.5472  0.3689  0.6690
   8223SM  H18U10927   3.528   4.343   4.166  0.1397  0.4745  1.7878
   8223SM   C1F10928   4.317   3.870   3.098 -0.8563 -0.2309 -0.2365
   8223SM    OF10929   4.314   3.938   2.995  0.0837  0.2869  0.1867
   8223SM   C2F10930   4.385   3.918   3.235  0.2607 -0.3435  0.3599
   8223SM   H2F10931   4.463   3.846   3.268 -0.8801 -1.4628  0.6893
   8223SM   H2G10932   4.293   3.918   3.296 -0.3665 -0.5227 -0.5635
   8223SM   C3F10933   4.451   4.062   3.219 -0.1676 -0.0186  0.2152
   8223SM   H3F10934   4.379   4.131   3.169 -0.6093 -1.7399 -1.6399
   8223SM   H3G10935   4.539   4.064   3.152 -0.0240  1.9031  0.3840
   8223SM   C4F10936   4.503   4.123   3.351  0.2864 -0.5761  0.0940
   8223SM   H4F10937   4.419   4.165   3.409  0.5112 -1.5623  1.1734
   8223SM   H4G10938   4.571   4.208   3.331  1.3669 -1.4054  0.1253
   8223SM   C5F10939   4.568   4.016   3.446 -0.0466  0.0755 -0.4334
   8223SM   H5F10940   4.652   3.968   3.392  1.0259  0.9014  0.4645
   8223SM   H5G10941   4.492   3.938   3.470 -0.0882  0.5180  0.9490
   8223SM   C6F10942   4.618   4.072   3.577 -0.3806 -0.2811  0.1207
   8223SM   H6F10943   4.527   4.105   3.631 -0.0422  1.5368 -0.3264
   8223SM   H6G10944   4.675   4.166   3.558  0.1583 -0.4675  0.7663
   8223SM   C7F10945   4.713   3.982   3.663  0.5389 -0.5153 -0.0455
   8223SM   H7F10946   4.821   4.006   3.661  1.1707 -2.9977  0.5835
   8223SM   H7G10947   4.686   3.878   3.633 -1.5053 -0.3360  1.0171
   8223SM   C8F10948   4.690   3.990   3.816 -0.0707  0.1817  0.1649
   8223SM   H8F10949   4.609   3.919   3.845  0.0430  1.1029  3.0186
   8223SM   H8G10950   4.651   4.087   3.855  0.7752  0.5811  0.0343
   8223SM   C9F10951   4.813   3.958   3.903 -0.2123  0.1363 -0.1918
   8223SM   H9F10952   4.779   3.958   4.008 -0.7782 -0.2568 -0.3687
   8223SM   H9G10953   4.887   4.039   3.884  1.4651 -2.0635 -4.5188
   8223SM  C10F10954   4.872   3.818   3.865  0.4511  0.4774 -0.2710
   8223SM  H10F10955   4.891   3.809   3.756 -0.2205 -0.1797 -0.3449
   8223SM  H10G10956   4.787   3.750   3.885 -0.1238  0.8603 -1.3501
   8223SM  C11F10957   4.997   3.788   3.940 -0.1079 -0.2490 -0.9829
   8223SM  H11F10958   5.065   3.875   3.933 -0.2212  0.2071  2.1022
   8223SM  H11G10959   5.048   3.695   3.909  2.4233  0.1431  1.6189
   8223SM  C12F10960   4.965   3.758   4.084 -0.2652  0.1449 -0.0903
   8223SM  H12F10961   5.017   3.667   4.120  0.2864  0.3630 -0.3252
   8223SM  H12G10962   4.860   3.722   4.092 -0.6596  0.9036 -1.4980
   8223SM  C13F10963   4.990   3.885   4.173 -0.1400 -0.5794 -0.4427
   8223SM  H13F10964   4.959   3.977   4.119  0.0183 -0.3206 -0.0937
   8223SM  H13G10965   5.098   3.889   4.199  0.3350  3.2978 -2.2394
   8223SM  C14F10966   4.901   3.884   4.296  0.1018 -0.7906  0.0604
   8223SM  H14F10967   4.917   3.789   4.352  1.5763 -0.6067 -0.0183
   8223SM  H14G10968   4.798   3.880   4.254  0.4501 -0.6575 -0.8083
   8223SM  C15F10969   4.919   4.007   4.380  0.0187 -0.7953 -0.2945
   8223SM  H15F10970   5.018   4.005   4.430 -0.3723 -0.7511  0.5008
   8223SM  H15G10971   4.845   4.001   4.463  0.3572 -0.3475  0.0380
   8223SM  C16F10972   4.884   4.147   4.318  0.2017  0.0961  0.6748
   8223SM  H16F10973   4.774   4.136   4.301  0.3291 -0.7899  0.4042
   8223SM  H16G10974   4.941   4.172   4.226  1.4101 -1.3603  0.9951
   8223SM  C17F10975   4.896   4.257   4.414 -0.3264 -0.9754  0.0368
   8223SM  H17F10976   4.913   4.354   4.363 -0.1005 -0.6561  0.6973
   8223SM  H17G10977   4.993   4.237   4.465  0.4270  2.4955  0.1837
   8223SM  C18F10978   4.774   4.266   4.513 -0.6763  0.3503 -0.4998
   8223SM  H18F10979   4.763   4.165   4.558  1.4763  1.2628  2.3263
   8223SM  H18G10980   4.683   4.298   4.458 -1.9204 -0.8659  0.7633
   8223SM  C19F10981   4.780   4.337   4.644 -0.1669  0.2438  0.2014
   8223SM  H19F10982   4.777   4.447   4.628  2.4761  0.1662 -1.5401
   8223SM  H19G10983   4.881   4.317   4.687 -0.5527  0.4026  1.2269
   8223SM  C20F10984   4.675   4.286   4.738  0.0941 -0.3661  0.2841
   8223SM  H20F10985   4.681   4.177   4.760 -0.1953 -0.3819  0.2856
   8223SM  H20G10986   4.574   4.305   4.696 -0.3076  1.3723  1.8968
   8223SM  C21F10987   4.668   4.361   4.874  0.3605 -0.1776  0.7729
   8223SM  H21F10988   4.624   4.462   4.856  0.0221 -0.3988  0.3499
   8223SM  H21G10989   4.777   4.368   4.895  0.5646 -3.1235  1.0477
   8223SM  C22F10990   4.597   4.277   4.981  0.3636 -0.5439 -0.6746
   8223SM  H22F10991   4.649   4.182   5.006  1.4749 -0.0951 -1.2388
   8223SM  H22G10992   4.493   4.260   4.946  0.1927  0.4194 -0.6423
   8223SM  C23F10993   4.594   4.363   5.113  0.3285  0.7106 -0.0267
   8223SM  H23F10994   4.509   4.337   5.179  3.0399 -0.5310  3.2665
   8223SM  H23G10995   4.576   4.466   5.074 -1.0051  0.8331  0.8428
   8223SM  H23H10996   4.682   4.346   5.178  0.0529 -0.5821  0.0390
   8323SM     N10997   4.193   5.071   2.592 -0.7607 -0.3011 -0.1633
   8323SM   C1510998   4.309   5.115   2.506  0.5675  0.1915  0.2995
   8323SM  H15A10999   4.365   5.193   2.557  2.4020 -0.6310 -0.3845
   8323SM  H15B11000   4.268   5.143   2.410  0.8932 -0.6165 -0.0802
   8323SM  H15C11001   4.380   5.039   2.477  3.0916  2.7968 -0.9421
   8323SM   C1411002   4.110   5.196   2.631 -0.4576  0.2587  0.5187
   8323SM  H14A11003   4.074   5.231   2.535  0.2145 -0.5662 -0.0432
   8323SM  H14B11004   4.172   5.268   2.682  0.4958  0.3123 -0.6521
   8323SM  H14C11005   4.021   5.177   2.689 -0.0937 -1.0552  0.6670
   8323SM   C1311006   4.108   4.974   2.509  0.1015 -0.2365  0.4197
   8323SM  H13A11007   4.033   4.920   2.565 -2.5965  0.2257 -2.4633
   8323SM  H13B11008   4.171   4.899   2.467  1.6396  0.2545  1.7430
   8323SM  H13C11009   4.054   5.035   2.439  0.1817 -0.4391  0.1828
   8323SM   C1211010   4.247   5.014   2.724  0.7536 -0.2148 -0.1312
   8323SM  H12A11011   4.292   5.089   2.786 -0.1462  0.6828 -0.5417
   8323SM  H12B11012   4.331   4.951   2.697  2.0409  2.0298 -1.7324
   8323SM   C1111013   4.139   4.952   2.816  0.3747  0.1905  0.1571
   8323SM  H11A11014   4.195   4.902   2.898 -2.4080 -0.1173  1.9991
   8323SM  H11B11015   4.083   4.865   2.775  0.4624  0.3220 -0.2500
   8323SM     P11016   3.894   5.021   2.859  0.1706 -0.0053  0.1682
   8323SM   O1311017   3.830   5.142   2.922  0.0999 -0.9150 -0.1094
   8323SM   O1411018   3.865   4.991   2.720  0.2742  0.4500  0.2515
   8323SM   O1111019   3.866   4.886   2.947 -0.0521 -0.2110  0.2001
   8323SM   O1211020   4.048   5.040   2.881 -0.3612 -0.0318 -0.3842
   8323SM   C1S11021   3.869   4.891   3.088 -0.9576  0.4734 -0.4074
   8323SM   H1S11022   3.787   4.955   3.126  0.3162  0.1244  3.3473
   8323SM   H1T11023   3.962   4.943   3.120 -1.8341  1.4148  0.6851
   8323SM    NF11024   3.868   4.760   3.301 -0.1903 -0.1072 -0.1043
   8323SM   HNF11025   3.939   4.713   3.354 -2.3177 -0.0899  3.0810
   8323SM   C2S11026   3.866   4.748   3.157  0.3789 -0.3376 -0.1627
   8323SM   H2S11027   3.776   4.697   3.117  0.4862 -0.9972  0.4172
   8323SM   C3S11028   3.985   4.665   3.102  0.0427 -0.3334  0.1657
   8323SM   H3S11029   4.088   4.702   3.124  0.2774 -0.6251 -0.4234
   8323SM    O311030   4.002   4.670   2.962  0.0020  0.0182 -0.5606
   8323SM   HO311031   3.946   4.747   2.944  0.8913  0.5789 -1.0189
   8323SM   C4S11032   3.975   4.521   3.161  0.6111 -0.3838  0.2449
   8323SM   H4S11033   4.046   4.493   3.241  0.5404  0.3797  0.5859
   8323SM   C5S11034   3.904   4.423   3.104  0.5382  0.1269  0.1560
   8323SM   H5S11035   3.841   4.452   3.020 -0.8073 -0.0939  1.0607
   8323SM   C6S11036   3.905   4.276   3.149 -0.1692 -0.5966 -0.1767
   8323SM   H6S11037   3.968   4.217   3.080 -2.2475 -1.1872 -1.6780
   8323SM   H6T11038   3.806   4.228   3.133 -2.3107  3.0974  0.8620
   8323SM   C7S11039   3.969   4.239   3.288  0.2482 -0.1653 -0.4059
   8323SM   H7S11040   3.915   4.294   3.368  1.7461  1.2465 -0.2975
   8323SM   H7T11041   4.071   4.280   3.304  0.3297 -0.7988  0.8011
   8323SM   C8S11042   3.952   4.092   3.328  0.3229  0.8182  0.4314
   8323SM   H8S11043   3.989   4.023   3.249 -1.2769 -0.4387  0.7476
   8323SM   H8T11044   3.843   4.074   3.332  0.6308 -1.1298  0.6566
   8323SM   C9S11045   4.029   4.066   3.458 -0.3005  0.4469  0.0844
   8323SM   H9S11046   3.972   4.107   3.545  1.8805  0.6558  1.4886
   8323SM   H9T11047   4.130   4.109   3.443  0.9280 -2.2597  0.1403
   8323SM  C10S11048   4.044   3.916   3.500 -0.1192  0.0897  0.1379
   8323SM  H10S11049   4.099   3.854   3.427 -0.5987 -2.5452  1.8574
   8323SM  H10T11050   3.945   3.866   3.511 -0.9440  1.8020  0.7548
   8323SM  C11S11051   4.108   3.884   3.635 -0.5752  0.6798  0.3093
   8323SM  H11S11052   4.074   3.787   3.676  1.5910  0.5440  1.9901
   8323SM  H11T11053   4.076   3.962   3.707 -2.3616 -0.8375  1.2343
   8323SM  C12S11054   4.257   3.880   3.615 -0.1218 -0.0228 -0.1091
   8323SM  H12S11055   4.304   3.969   3.568 -0.6558 -0.1474 -0.9078
   8323SM  H12T11056   4.288   3.800   3.545 -0.0507  0.0499 -0.1603
   8323SM  C13S11057   4.335   3.851   3.747  0.3884  0.3473  0.0247
   8323SM  H13S11058   4.290   3.883   3.843 -0.3723  1.0824 -0.5617
   8323SM  H13T11059   4.440   3.889   3.743  0.0281  1.3299 -0.8258
   8323SM  C14S11060   4.335   3.701   3.771  0.7005  0.4206  0.0726
   8323SM  H14S11061   4.371   3.652   3.678  2.1041 -0.7378  1.1803
   8323SM  H14T11062   4.229   3.670   3.784  0.8242 -0.0582 -0.0335
   8323SM  C15S11063   4.426   3.650   3.886 -0.0460  0.0643 -0.1735
   8323SM  H15S11064   4.404   3.707   3.979 -0.2035  0.2874 -0.3461
   8323SM  H15T11065   4.531   3.679   3.863 -0.2517  0.4062 -0.7201
   8323SM  C16S11066   4.421   3.495   3.901  0.1993 -0.0324 -0.2737
   8323SM  H16S11067   4.451   3.449   3.804  0.0225 -1.7650  0.4598
   8323SM  H16T11068   4.314   3.470   3.920 -0.7795  2.4449 -1.8999
   8323SM  C17S11069   4.502   3.441   4.015  0.3532  0.3523 -0.0382
   8323SM  H17S11070   4.471   3.483   4.113  0.4055 -0.1987  0.2184
   8323SM  H17T11071   4.610   3.466   4.009  0.3536  0.3085 -0.2130
   8323SM  C18S11072   4.485   3.291   4.022  0.1754  0.0258 -0.5317
   8323SM  H18S11073   4.570   3.248   4.079 -0.1375 -0.1630 -0.2094
   8323SM  H18T11074   4.490   3.250   3.919  0.1829 -0.1795 -0.4506
   8323SM  H18U11075   4.389   3.264   4.069  0.7403 -1.1565 -0.0150
   8323SM   C1F11076   3.788   4.833   3.375 -0.4832 -0.0081 -0.7353
   8323SM    OF11077   3.681   4.871   3.335 -0.0496  0.4854  0.2201
   8323SM   C2F11078   3.834   4.878   3.513  0.0834 -0.1040 -0.1954
   8323SM   H2F11079   3.886   4.976   3.508 -1.5170  0.7842 -0.2483
   8323SM   H2G11080   3.899   4.795   3.548 -0.4483 -0.6351 -0.4498
   8323SM   C3F11081   3.708   4.915   3.590 -0.5330 -0.2845 -0.6308
   8323SM   H3F11082   3.640   4.828   3.581  1.5969 -2.3161  1.5888
   8323SM   H3G11083   3.662   5.006   3.544  1.5733  1.1859  0.0355
   8323SM   C4F11084   3.740   4.934   3.738  0.1740 -0.7487  0.7631
   8323SM   H4F11085   3.641   4.937   3.787 -0.4916 -0.7472 -0.5242
   8323SM   H4G11086   3.797   5.028   3.757  1.0350 -0.2250 -3.3376
   8323SM   C5F11087   3.807   4.807   3.800 -0.2104 -0.4529 -0.8642
   8323SM   H5F11088   3.906   4.785   3.754  0.0302  2.0872 -1.7137
   8323SM   H5G11089   3.745   4.716   3.802 -1.2746  0.2087  2.0497
   8323SM   C6F11090   3.840   4.824   3.950  0.0477 -0.2183 -0.2124
   8323SM   H6F11091   3.920   4.901   3.947  0.0449 -0.2498 -2.7603
   8323SM   H6G11092   3.894   4.733   3.985 -0.3764  0.3021  1.9954
   8323SM   C7F11093   3.717   4.849   4.041 -0.4270  0.1552 -0.5242
   8323SM   H7F11094   3.633   4.782   4.013 -1.9367 -0.0193  3.7191
   8323SM   H7G11095   3.682   4.951   4.014 -1.1030 -0.3201 -1.5156
   8323SM   C8F11096   3.740   4.844   4.198 -0.3805  0.2368 -0.5391
   8323SM   H8F11097   3.791   4.937   4.228 -0.6594  0.1124  0.3522
   8323SM   H8G11098   3.805   4.756   4.220 -1.0912 -0.0641  0.4755
   8323SM   C9F11099   3.612   4.816   4.268 -0.2699  0.0708 -0.9838
   8323SM   H9F11100   3.578   4.719   4.228  0.8192 -0.7854  0.0959
   8323SM   H9G11101   3.552   4.906   4.243 -0.4163  1.1617  2.6360
   8323SM  C10F11102   3.616   4.814   4.425 -0.3834 -0.1770  0.0931
   8323SM  H10F11103   3.521   4.784   4.474  0.3725  2.3119  3.4572
   8323SM  H10G11104   3.633   4.920   4.454 -0.1835 -0.3811  0.7266
   8323SM  C11F11105   3.729   4.728   4.484  0.8327 -0.1614 -0.0362
   8323SM  H11F11106   3.724   4.737   4.595  0.3666  0.2952 -0.0904
   8323SM  H11G11107   3.833   4.758   4.457  1.9618 -1.9225  2.0484
   8323SM  C12F11108   3.705   4.581   4.438 -0.2126  0.4649  0.1882
   8323SM  H12F11109   3.757   4.575   4.340  1.3433  0.7816  0.9608
   8323SM  H12G11110   3.600   4.559   4.413  0.0611 -0.1123 -0.4721
   8323SM  C13F11111   3.773   4.485   4.539  0.2275  0.7510 -0.4119
   8323SM  H13F11112   3.748   4.383   4.505  2.4815 -0.5131  1.4351
   8323SM  H13G11113   3.730   4.512   4.638 -2.1537  0.0992 -1.1889
   8323SM  C14F11114   3.924   4.494   4.553 -0.2356 -0.1116  0.3078
   8323SM  H14F11115   3.950   4.579   4.619 -0.2087 -0.1187  0.3068
   8323SM  H14G11116   3.977   4.523   4.459 -0.5619  0.6692  0.3555
   8323SM  C15F11117   3.986   4.368   4.615 -0.6633  0.1525 -0.3483
   8323SM  H15F11118   3.972   4.283   4.544 -0.2450  0.6289 -1.0157
   8323SM  H15G11119   3.934   4.339   4.709  0.7074  1.3542  0.8226
   8323SM  C16F11120   4.134   4.392   4.653  0.3853 -1.0236  0.0372
   8323SM  H16F11121   4.133   4.466   4.735  0.0849 -1.9177  0.8524
   8323SM  H16G11122   4.187   4.428   4.562 -0.4927  0.4004  0.0680
   8323SM  C17F11123   4.201   4.256   4.693  1.2304 -0.1549  0.8086
   8323SM  H17F11124   4.309   4.274   4.677  1.3096  0.0360  1.5059
   8323SM  H17G11125   4.174   4.187   4.611  1.0236  0.8374  0.0227
   8323SM  C18F11126   4.168   4.207   4.833  0.5298 -0.2198  0.0693
   8323SM  H18F11127   4.058   4.190   4.835  0.3023  0.8004 -1.6575
   8323SM  H18G11128   4.203   4.286   4.903 -1.5186 -0.1862  1.1313
   8323SM  C19F11129   4.244   4.084   4.881 -0.0034  0.2310  0.2165
   8323SM  H19F11130   4.354   4.093   4.865 -0.4087  0.4879 -3.2690
   8323SM  H19G11131   4.201   3.991   4.839  0.2098 -1.0979  2.7483
   8323SM  C20F11132   4.223   4.067   5.031 -0.1970  0.2969 -0.2293
   8323SM  H20F11133   4.247   4.164   5.081  0.9765  0.0761 -0.3431
   8323SM  H20G11134   4.292   3.987   5.065 -1.5115 -1.3912 -1.3849
   8323SM  C21F11135   4.082   4.029   5.074  0.2876 -0.2586 -0.2704
   8323SM  H21F11136   4.038   3.952   5.006 -0.1296  1.1262 -1.6222
   8323SM  H21G11137   4.021   4.118   5.049 -0.6933 -1.4469 -2.4409
   8323SM  C22F11138   4.076   3.972   5.219  0.2183 -0.3099  0.3770
   8323SM  H22F11139   4.114   4.047   5.291 -4.8336  2.3725  0.6506
   8323SM  H22G11140   4.140   3.881   5.220  1.4246  0.5111 -0.2033
   8323SM  C23F11141   3.936   3.928   5.261  0.1127 -0.0014 -0.1048
   8323SM  H23F11142   3.919   3.828   5.215 -1.6592  0.7599 -1.2180
   8323SM  H23G11143   3.852   3.996   5.235 -0.5174 -0.3595  0.9375
   8323SM  H23H11144   3.940   3.916   5.371 -2.3546  0.0820  0.0334
   8423SM     N11145   4.554   2.292   2.517  0.7022  0.4095  0.4795
   8423SM   C1511146   4.691   2.252   2.482 -0.7090  0.0675 -0.0130
   8423SM  H15A11147   4.691   2.153   2.440 -1.2865  0.6260 -1.4060
   8423SM  H15B11148   4.767   2.266   2.557  1.0378 -2.6280 -1.1473
   8423SM  H15C11149   4.725   2.317   2.402 -0.7422 -0.4388 -0.4420
   8423SM   C1411150   4.564   2.437   2.562  0.3983 -0.6131 -0.2975
   8423SM  H14A11151   4.622   2.447   2.653 -0.0437  3.8661 -0.2614
   8423SM  H14B11152   4.472   2.491   2.577  1.5036  0.9583  1.3702
   8423SM  H14C11153   4.620   2.503   2.497  1.3328  0.5225  1.5581
   8423SM   C1311154   4.472   2.299   2.394 -0.1673  0.3683  0.2312
   8423SM  H13A11155   4.504   2.383   2.334 -2.3021  2.1446  1.4123
   8423SM  H13B11156   4.375   2.332   2.430 -0.4462 -0.9728  0.7570
   8423SM  H13C11157   4.468   2.208   2.336 -0.1378  1.9589 -2.4232
   8423SM   C1211158   4.495   2.205   2.625  0.1638 -0.0726  0.5172
   8423SM  H12A11159   4.407   2.249   2.669  1.0688 -0.3865  2.7915
   8423SM  H12B11160   4.570   2.218   2.702 -0.6304  0.8027  1.1561
   8423SM   C1111161   4.468   2.054   2.600  0.4767 -0.1791  1.2307
   8423SM  H11A11162   4.402   2.062   2.511  2.3281  2.1663 -0.0733
   8423SM  H11B11163   4.412   2.021   2.689 -0.3025  0.9310  1.1701
   8423SM     P11164   4.687   1.934   2.672 -0.3323  0.2238 -0.2296
   8423SM   O1311165   4.763   1.820   2.611 -0.1172 -0.1478 -0.6575
   8423SM   O1411166   4.762   2.051   2.719  0.3754  0.4157  0.0517
   8423SM   O1111167   4.605   1.878   2.787  0.0629  0.1334  0.4304
   8423SM   O1211168   4.584   1.975   2.559  0.5462  0.0411  0.1367
   8423SM   C1S11169   4.530   1.762   2.775  0.1354  0.2597 -0.8246
   8423SM   H1S11170   4.566   1.680   2.709 -2.5757 -1.1726 -0.6378
   8423SM   H1T11171   4.429   1.789   2.739  0.1128  0.3617 -0.6858
   8423SM    NF11172   4.433   1.581   2.930 -0.1497 -0.1720  0.2736
   8423SM   HNF11173   4.352   1.599   2.986 -1.5585 -0.9225 -1.4238
   8423SM   C2S11174   4.521   1.698   2.920 -0.3110 -0.1788  0.9791
   8423SM   H2S11175   4.622   1.655   2.939 -0.1556 -2.1105 -3.0218
   8423SM   C3S11176   4.498   1.793   3.039  0.4084 -0.2439  0.2970
   8423SM   H3S11177   4.400   1.838   3.013  0.8372  0.1801 -0.6195
   8423SM    O311178   4.582   1.907   3.038 -0.1100 -0.0718  0.0357
   8423SM   HO311179   4.619   1.920   2.951 -1.7207  0.3221 -0.6076
   8423SM   C4S11180   4.492   1.721   3.169  0.1332  0.0739 -0.6636
   8423SM   H4S11181   4.390   1.710   3.209 -0.2857 -1.0458 -1.9684
   8423SM   C5S11182   4.609   1.678   3.233 -0.5249 -0.0425 -0.1438
   8423SM   H5S11183   4.706   1.716   3.198  0.0796 -1.9245 -0.6194
   8423SM   C6S11184   4.616   1.612   3.369 -0.1001  0.2156  0.2969
   8423SM   H6S11185   4.691   1.671   3.427  0.0115  2.3772 -1.9166
   8423SM   H6T11186   4.657   1.510   3.358  1.6970  1.0694 -1.3505
   8423SM   C7S11187   4.491   1.608   3.451 -0.9302 -0.2292 -0.0229
   8423SM   H7S11188   4.415   1.562   3.384 -0.0705 -0.3932 -0.8974
   8423SM   H7T11189   4.461   1.708   3.490 -2.7449 -0.8521  0.3174
   8423SM   C8S11190   4.513   1.532   3.580 -0.4791  0.2073 -0.1086
   8423SM   H8S11191   4.584   1.449   3.562  1.2796  1.5247  0.4026
   8423SM   H8T11192   4.411   1.501   3.610 -1.0595  0.5715 -1.5688
   8423SM   C9S11193   4.570   1.618   3.695  0.4285  0.7667  0.1112
   8423SM   H9S11194   4.527   1.719   3.674  0.6719  0.8435 -0.0086
   8423SM   H9T11195   4.680   1.624   3.694  0.5984 -1.4504 -1.4713
   8423SM  C10S11196   4.521   1.563   3.828 -0.3171  0.0566  0.1058
   8423SM  H10S11197   4.412   1.543   3.831 -0.3195 -0.1045 -0.8177
   8423SM  H10T11198   4.534   1.648   3.898 -1.5538  0.3317  0.0192
   8423SM  C11S11199   4.599   1.431   3.870 -0.0040  0.1614  0.1045
   8423SM  H11S11200   4.700   1.475   3.886 -0.3573  1.1899 -0.4070
   8423SM  H11T11201   4.609   1.363   3.782  1.9639 -0.6358  0.8842
   8423SM  C12S11202   4.550   1.365   4.003  0.1086 -0.4845 -0.5094
   8423SM  H12S11203   4.471   1.290   3.984  0.8489 -1.3304 -0.3025
   8423SM  H12T11204   4.495   1.448   4.053  0.5658 -1.0760  1.0594
   8423SM  C13S11205   4.650   1.297   4.100 -0.3486  0.3737 -0.1254
   8423SM  H13S11206   4.723   1.373   4.134 -1.5841  0.7158  1.9366
   8423SM  H13T11207   4.714   1.217   4.057  0.4874 -0.2930  2.1824
   8423SM  C14S11208   4.583   1.242   4.222  0.4689  0.3631  0.3257
   8423SM  H14S11209   4.508   1.167   4.190  0.5631  0.6192 -0.5168
   8423SM  H14T11210   4.542   1.323   4.286  0.5847  1.4476 -0.9452
   8423SM  C15S11211   4.681   1.171   4.319 -0.3109 -0.3258 -0.1933
   8423SM  H15S11212   4.772   1.234   4.325  1.1330 -2.3161 -0.1917
   8423SM  H15T11213   4.719   1.084   4.261 -1.3685 -0.1681 -1.1500
   8423SM  C16S11214   4.634   1.131   4.457 -0.8292 -0.6096 -0.3844
   8423SM  H16S11215   4.719   1.075   4.501  0.8486  0.8259 -1.6753
   8423SM  H16T11216   4.549   1.060   4.444 -2.9271  2.0454 -2.6673
   8423SM  C17S11217   4.589   1.252   4.539  0.2429 -0.3124 -0.9452
   8423SM  H17S11218   4.557   1.212   4.638 -0.1003  1.4218 -0.3164
   8423SM  H17T11219   4.503   1.307   4.496 -0.1820  0.2217  0.5355
   8423SM  C18S11220   4.704   1.357   4.571  0.8248 -0.8921 -0.4580
   8423SM  H18S11221   4.790   1.310   4.623 -0.8348 -1.0430  2.3698
   8423SM  H18T11222   4.673   1.438   4.642  1.2128 -1.4728  0.3911
   8423SM  H18U11223   4.733   1.395   4.471  0.7885 -0.1200 -0.1873
   8423SM   C1F11224   4.448   1.467   2.867  0.0311  0.0102  0.0431
   8423SM    OF11225   4.550   1.426   2.816  0.0792  0.3768 -0.2954
   8423SM   C2F11226   4.321   1.383   2.855 -0.1702 -0.1286  0.2793
   8423SM   H2F11227   4.310   1.342   2.752 -1.3841  2.1461 -0.5652
   8423SM   H2G11228   4.238   1.453   2.877 -1.6214 -2.0525  1.2192
   8423SM   C3F11229   4.305   1.266   2.957 -0.4299  0.0577 -0.4836
   8423SM   H3F11230   4.396   1.204   2.953 -1.4848 -1.5338 -0.6437
   8423SM   H3G11231   4.221   1.202   2.921 -0.2466  0.6706 -2.0700
   8423SM   C4F11232   4.281   1.315   3.102  0.5641 -0.4224  0.2283
   8423SM   H4F11233   4.216   1.405   3.101 -0.1483 -0.9227  0.7939
   8423SM   H4G11234   4.377   1.351   3.146  1.0579  2.5298 -2.8360
   8423SM   C5F11235   4.230   1.204   3.195 -0.0795 -0.3366 -0.2339
   8423SM   H5F11236   4.306   1.123   3.189  1.6485  1.2305 -0.3426
   8423SM   H5G11237   4.130   1.170   3.160 -1.4861  2.3560  0.8986
   8423SM   C6F11238   4.228   1.256   3.341  0.4231 -0.1539  0.3244
   8423SM   H6F11239   4.145   1.331   3.341 -2.0373 -2.6314 -1.9693
   8423SM   H6G11240   4.328   1.299   3.362 -0.0856  1.7209 -0.8129
   8423SM   C7F11241   4.197   1.156   3.448  0.2923  0.2214  0.4831
   8423SM   H7F11242   4.289   1.111   3.490  0.8235  2.2840  1.6714
   8423SM   H7G11243   4.134   1.077   3.401 -2.4475  1.4207  1.9061
   8423SM   C8F11244   4.125   1.210   3.568  0.1222 -0.0717  0.0262
   8423SM   H8F11245   4.021   1.240   3.545  0.2211 -0.1883 -0.5859
   8423SM   H8G11246   4.183   1.296   3.610 -0.4533  0.3349 -0.0052
   8423SM   C9F11247   4.099   1.118   3.692 -0.1886  0.1208 -0.2035
   8423SM   H9F11248   4.031   1.034   3.666  0.0505 -0.8098  1.9935
   8423SM   H9G11249   4.042   1.178   3.766 -0.6621  0.0629 -0.5217
   8423SM  C10F11250   4.222   1.044   3.754  0.2568  0.6657  0.5268
   8423SM  H10F11251   4.314   1.105   3.770  0.3643  0.2591  1.5756
   8423SM  H10G11252   4.256   0.970   3.679 -0.4088  1.3982 -0.5260
   8423SM  C11F11253   4.183   0.979   3.889 -0.2113  0.4197  0.5130
   8423SM  H11F11254   4.260   0.908   3.925 -1.8923 -0.7298  2.0587
   8423SM  H11G11255   4.084   0.929   3.888 -2.5879  4.5856  1.1677
   8423SM  C12F11256   4.159   1.080   3.998  0.0356 -0.1675 -0.1774
   8423SM  H12F11257   4.079   1.153   3.973  1.7859  1.7179 -0.5168
   8423SM  H12G11258   4.253   1.136   4.017 -0.0977 -0.3124  0.9843
   8423SM  C13F11259   4.119   1.020   4.132 -0.5808  0.4778  0.8617
   8423SM  H13F11260   4.192   0.942   4.163 -1.4308 -0.1492  1.3486
   8423SM  H13G11261   4.015   0.980   4.136  0.0281 -1.3639 -0.2596
   8423SM  C14F11262   4.136   1.113   4.249 -0.2214 -0.1133 -0.2108
   8423SM  H14F11263   4.064   1.196   4.239  0.8026  0.8661  0.3853
   8423SM  H14G11264   4.239   1.153   4.258  0.5037 -2.0860  0.8524
   8423SM  C15F11265   4.111   1.044   4.386  0.0940  0.0850 -0.4351
   8423SM  H15F11266   4.166   0.948   4.379  0.1675  0.2119 -1.8956
   8423SM  H15G11267   4.001   1.032   4.387 -0.3684  3.1499 -1.8673
   8423SM  C16F11268   4.153   1.140   4.505 -0.2977 -0.1769 -0.5845
   8423SM  H16F11269   4.095   1.233   4.489 -0.1564  0.1297  0.6066
   8423SM  H16G11270   4.262   1.157   4.515 -0.1872 -1.6499  1.3670
   8423SM  C17F11271   4.091   1.092   4.633  0.6677  0.5412 -1.0443
   8423SM  H17F11272   3.981   1.081   4.635  0.5188  1.7063 -1.5845
   8423SM  H17G11273   4.120   1.161   4.715  2.0253 -1.2477  0.0477
   8423SM  C18F11274   4.161   0.967   4.689  0.1968  0.7626  0.8563
   8423SM  H18F11275   4.141   0.889   4.613 -1.2417  1.2829  0.6731
   8423SM  H18G11276   4.103   0.933   4.777  0.8087 -0.9399  0.6284
   8423SM  C19F11277   4.306   0.976   4.735 -0.4729 -0.1126  0.2873
   8423SM  H19F11278   4.322   1.055   4.812  2.1621 -0.3999  0.1337
   8423SM  H19G11279   4.371   1.006   4.650 -0.6891  1.9935  0.7999
   8423SM  C20F11280   4.359   0.846   4.803  0.6570  0.0699  0.6300
   8423SM  H20F11281   4.329   0.759   4.741 -0.5711  2.7016 -2.8074
   8423SM  H20G11282   4.301   0.848   4.898 -0.2112  0.3793  0.1040
   8423SM  C21F11283   4.513   0.854   4.827 -0.5896 -0.3693  0.3762
   8423SM  H21F11284   4.563   0.876   4.730  1.4744  0.7042  1.6187
   8423SM  H21G11285   4.548   0.755   4.863  1.0566  0.9452  2.6197
   8423SM  C22F11286   4.557   0.955   4.927  0.6756 -0.4300  0.1074
   8423SM  H22F11287   4.541   0.918   5.030  2.2046 -1.1433  0.1049
   8423SM  H22G11288   4.501   1.051   4.918 -0.9238 -1.3645 -0.3204
   8423SM  C23F11289   4.697   0.981   4.901 -0.3280 -0.1851 -0.1711
   8423SM  H23F11290   4.771   0.900   4.919 -0.5005 -0.1289  0.8154
   8423SM  H23G11291   4.730   1.063   4.968 -0.3211  2.1743 -2.8568
   8423SM  H23H11292   4.705   1.017   4.796  1.2000  1.0579  0.3307
   8523SM     N11293   5.795   3.025   2.387 -0.2444  0.3704  0.1609
   8523SM   C1511294   5.674   2.952   2.364 -0.1036  0.3074  0.1676
   8523SM  H15A11295   5.662   2.930   2.259  0.2721  0.2889  0.1295
   8523SM  H15B11296   5.588   3.002   2.407 -0.4215 -0.0624 -0.0301
   8523SM  H15C11297   5.693   2.854   2.405  1.1302  0.3044 -0.3939
   8523SM   C1411298   5.902   2.957   2.311 -0.0425 -0.2938 -0.3084
   8523SM  H14A11299   5.992   3.012   2.336 -0.9830  0.5744  1.3512
   8523SM  H14B11300   5.894   2.961   2.204 -0.9432  1.5345 -0.2163
   8523SM  H14C11301   5.908   2.853   2.340 -0.8207 -0.3115 -0.1917
   8523SM   C1311302   5.766   3.161   2.341  0.4801 -0.1783 -0.3934
   8523SM  H13A11303   5.726   3.157   2.240  0.5316  0.0901 -0.4243
   8523SM  H13B11304   5.854   3.223   2.348 -1.2711  2.6046 -1.1810
   8523SM  H13C11305   5.696   3.204   2.411  1.9541 -0.8076  1.5484
   8523SM   C1211306   5.830   3.032   2.535  0.3999  0.3571  0.0643
   8523SM  H12A11307   5.917   3.094   2.551  0.7443 -0.0346 -0.2316
   8523SM  H12B11308   5.872   2.937   2.565  1.2374  0.3958 -0.9055
   8523SM   C1111309   5.727   3.083   2.640 -0.5893  0.7306  0.9660
   8523SM  H11A11310   5.764   3.059   2.742 -0.3826  1.1771  0.9976
   8523SM  H11B11311   5.630   3.030   2.626  0.9790 -1.6221 -2.5379
   8523SM     P11312   5.790   3.336   2.676  0.1034  0.1129  0.2408
   8523SM   O1311313   5.929   3.312   2.627 -0.5754  0.5713  0.3598
   8523SM   O1411314   5.727   3.471   2.646  0.2533  0.4884  0.3160
   8523SM   O1111315   5.798   3.314   2.830 -0.1615 -0.3937 -0.0098
   8523SM   O1211316   5.694   3.222   2.628  0.3479  0.2847 -0.4000
   8523SM   C1S11317   5.682   3.301   2.911 -0.2423 -0.6092  0.8212
   8523SM   H1S11318   5.639   3.202   2.886 -1.2442  0.2840 -1.1880
   8523SM   H1T11319   5.607   3.380   2.887  0.5122 -0.8775 -3.0749
   8523SM    NF11320   5.605   3.253   3.138  0.1245 -0.0658 -1.0073
   8523SM   HNF11321   5.523   3.304   3.162 -0.4405  0.1764 -3.1714
   8523SM   C2S11322   5.715   3.315   3.064 -0.2688 -0.3260  0.2639
   8523SM   H2S11323   5.809   3.260   3.090  0.5408  0.1915 -1.4248
   8523SM   C3S11324   5.737   3.467   3.090  0.1086  0.1215 -0.0222
   8523SM   H3S11325   5.643   3.525   3.090  1.2990  2.1202  0.2907
   8523SM    O311326   5.813   3.531   2.991  0.4836  0.4122  0.3296
   8523SM   HO311327   5.798   3.466   2.923 -0.0955 -1.4014  2.0853
   8523SM   C4S11328   5.792   3.477   3.228 -0.5050 -0.1976 -0.3920
   8523SM   H4S11329   5.901   3.482   3.236 -0.6288  1.5765  0.9422
   8523SM   C5S11330   5.730   3.511   3.345 -0.3260 -0.3019 -0.3663
   8523SM   H5S11331   5.621   3.521   3.347 -0.1873  1.3368  1.0467
   8523SM   C6S11332   5.794   3.538   3.475 -0.0506  0.1558 -0.2922
   8523SM   H6S11333   5.756   3.479   3.561 -0.4804 -0.8098 -1.1319
   8523SM   H6T11334   5.771   3.645   3.496  0.5773 -0.0876  1.9047
   8523SM   C7S11335   5.948   3.535   3.476  0.4192  0.0699  0.3256
   8523SM   H7S11336   5.981   3.633   3.436  0.3580  0.3774  1.0075
   8523SM   H7T11337   5.976   3.452   3.408 -2.5087  0.4761 -1.5422
   8523SM   C8S11338   6.001   3.514   3.617 -0.2032 -0.7319  0.0630
   8523SM   H8S11339   6.101   3.468   3.597  1.1802  1.1454  2.1414
   8523SM   H8T11340   5.937   3.439   3.668 -0.6145 -0.2256  0.2955
   8523SM   C9S11341   6.010   3.642   3.703 -0.0954 -0.0241  0.1811
   8523SM   H9S11342   5.914   3.685   3.739  0.0559 -0.1077  0.6904
   8523SM   H9T11343   6.070   3.720   3.651  0.7738  0.3791  1.7302
   8523SM  C10S11344   6.078   3.607   3.835  0.5103  0.3675 -0.4534
   8523SM  H10S11345   6.179   3.568   3.811 -0.0760 -1.2026 -0.5002
   8523SM  H10T11346   6.022   3.529   3.891  0.0211  1.4422  0.6125
   8523SM  C11S11347   6.098   3.734   3.930  0.7616  0.2504  0.0471
   8523SM  H11S11348   6.123   3.703   4.034 -1.7209 -1.9514  0.0749
   8523SM  H11T11349   6.001   3.788   3.930 -0.2073 -1.4028 -0.8958
   8523SM  C12S11350   6.217   3.820   3.895 -0.7996  1.2264 -0.4094
   8523SM  H12S11351   6.210   3.868   3.795 -1.8814  2.4604  0.2335
   8523SM  H12T11352   6.313   3.766   3.911 -1.1273  1.0055  0.9830
   8523SM  C13S11353   6.237   3.936   3.988 -0.2399  0.0783  0.3203
   8523SM  H13S11354   6.238   3.910   4.096  0.2001  2.5568  0.9903
   8523SM  H13T11355   6.145   3.999   3.985  0.5479  1.2754  0.7825
   8523SM  C14S11356   6.359   4.014   3.950 -0.6533 -0.1644  0.2890
   8523SM  H14S11357   6.358   4.005   3.840 -1.9101 -1.4793  0.3737
   8523SM  H14T11358   6.452   3.967   3.989 -0.5990 -1.5076 -1.3807
   8523SM  C15S11359   6.357   4.164   3.990  0.1630 -1.1108 -0.6139
   8523SM  H15S11360   6.263   4.215   3.960  0.5258 -0.7363 -1.1311
   8523SM  H15T11361   6.451   4.197   3.939  0.1144  0.7962  0.4028
   8523SM  C16S11362   6.396   4.190   4.134  0.2307 -0.7042  0.1598
   8523SM  H16S11363   6.467   4.109   4.159  0.8252 -0.9055 -1.9746
   8523SM  H16T11364   6.299   4.186   4.188 -0.9068 -0.7920 -1.7981
   8523SM  C17S11365   6.452   4.327   4.170 -0.0650 -0.5565  0.7911
   8523SM  H17S11366   6.377   4.402   4.136 -1.9685 -1.7250  2.1665
   8523SM  H17T11367   6.548   4.342   4.117  0.1711 -1.0947  1.0618
   8523SM  C18S11368   6.471   4.360   4.321  0.2508  0.2421  0.0922
   8523SM  H18S11369   6.375   4.380   4.372  0.2171  1.1721 -0.3195
   8523SM  H18T11370   6.540   4.447   4.327  1.9414 -1.1121  2.8971
   8523SM  H18U11371   6.537   4.284   4.369  2.1063  1.0017 -1.1112
   8523SM   C1F11372   5.604   3.125   3.158 -0.1796  0.1218  0.4138
   8523SM    OF11373   5.694   3.050   3.117 -0.7111 -0.4718  0.4855
   8523SM   C2F11374   5.488   3.085   3.245 -0.1851  0.0087  0.0135
   8523SM   H2F11375   5.410   3.024   3.193 -1.7628  0.8064  1.3482
   8523SM   H2G11376   5.436   3.170   3.294 -0.7123  0.0698 -0.6273
   8523SM   C3F11377   5.541   2.986   3.352  0.0357 -0.3222  0.6212
   8523SM   H3F11378   5.582   2.895   3.303 -0.3777 -0.8406  1.2205
   8523SM   H3G11379   5.452   2.959   3.414 -0.1822  2.1402  1.4980
   8523SM   C4F11380   5.643   3.040   3.450 -0.5362 -0.1161 -0.3429
   8523SM   H4F11381   5.737   3.050   3.391  0.2668 -0.8762  0.7712
   8523SM   H4G11382   5.667   2.961   3.524 -0.5431  0.3068  0.1078
   8523SM   C5F11383   5.599   3.166   3.525 -0.0868 -0.1851 -0.7111
   8523SM   H5F11384   5.498   3.140   3.563  0.4603 -2.0043 -0.3944
   8523SM   H5G11385   5.587   3.251   3.455 -0.5718  1.2126  0.9864
   8523SM   C6F11386   5.687   3.205   3.652  0.8200  0.0561  0.5065
   8523SM   H6F11387   5.768   3.273   3.619  1.4578 -0.8602  0.1377
   8523SM   H6G11388   5.735   3.113   3.692  0.7139  0.5991  1.9418
   8523SM   C7F11389   5.599   3.260   3.765  0.7038 -0.5757 -0.6951
   8523SM   H7F11390   5.665   3.273   3.854  0.3426 -0.1807 -0.4823
   8523SM   H7G11391   5.509   3.201   3.792  1.5545 -0.8051  2.0027
   8523SM   C8F11392   5.547   3.399   3.736 -0.2869  0.2478  0.5357
   8523SM   H8F11393   5.438   3.397   3.761 -0.3829 -1.5621  0.0986
   8523SM   H8G11394   5.548   3.413   3.626  0.7288 -0.7874  0.4032
   8523SM   C9F11395   5.623   3.525   3.796 -0.1933 -0.4305  0.2168
   8523SM   H9F11396   5.571   3.619   3.767 -1.4938 -0.6340  1.7398
   8523SM   H9G11397   5.727   3.528   3.758 -1.0332 -0.7952 -2.3285
   8523SM  C10F11398   5.615   3.525   3.948 -0.1017  0.1486 -0.8841
   8523SM  H10F11399   5.622   3.421   3.987  0.7336  0.9676  1.3052
   8523SM  H10G11400   5.525   3.572   3.991 -0.0455 -1.1068  0.7141
   8523SM  C11F11401   5.741   3.597   4.006  0.3761  0.6601 -0.4247
   8523SM  H11F11402   5.764   3.693   3.955  0.3648  0.8464 -0.0815
   8523SM  H11G11403   5.826   3.530   3.980  0.7035  0.5416  0.8697
   8523SM  C12F11404   5.741   3.614   4.157  0.1921  0.3566 -0.1722
   8523SM  H12F11405   5.735   3.511   4.200  0.7898  0.4705  0.1985
   8523SM  H12G11406   5.649   3.670   4.183  0.5845  0.1285  1.8763
   8523SM  C13F11407   5.874   3.680   4.211  0.8578  0.0612 -0.2884
   8523SM  H13F11408   5.895   3.782   4.173 -2.3279  0.6483 -0.7237
   8523SM  H13G11409   5.961   3.623   4.171 -1.3855 -2.3806 -2.0383
   8523SM  C14F11410   5.885   3.669   4.368 -0.5629 -0.4994  0.4962
   8523SM  H14F11411   5.804   3.734   4.408 -0.8045 -1.5360  1.7706
   8523SM  H14G11412   5.983   3.716   4.392 -1.2244  0.4544  1.4437
   8523SM  C15F11413   5.883   3.528   4.428  0.1456  0.3228 -0.0095
   8523SM  H15F11414   5.790   3.476   4.395  0.7020 -2.1998  2.0737
   8523SM  H15G11415   5.867   3.528   4.537  1.5485  0.4340  0.2193
   8523SM  C16F11416   6.001   3.433   4.405 -0.1803  0.2416  0.6409
   8523SM  H16F11417   6.093   3.462   4.460 -0.1051  0.0972  0.5894
   8523SM  H16G11418   6.036   3.432   4.299  1.5803 -0.8230  1.1980
   8523SM  C17F11419   5.955   3.289   4.438 -0.4736  0.3656 -0.2262
   8523SM  H17F11420   6.022   3.210   4.399 -0.2227  0.6455 -0.3655
   8523SM  H17G11421   5.860   3.266   4.386 -0.3990  2.1611 -1.2473
   8523SM  C18F11422   5.920   3.251   4.588  0.1860 -0.1597  0.5691
   8523SM  H18F11423   5.821   3.298   4.611 -1.5227 -2.3188 -1.7668
   8523SM  H18G11424   5.999   3.291   4.655  2.4282 -2.3964 -0.6117
   8523SM  C19F11425   5.913   3.099   4.618  0.2846 -0.2842  0.3452
   8523SM  H19F11426   5.889   3.099   4.726 -1.3535  0.5754  0.0217
   8523SM  H19G11427   6.018   3.066   4.603  1.2427  2.3349  0.6721
   8523SM  C20F11428   5.809   3.012   4.543  0.3189  0.3020 -0.4542
   8523SM  H20F11429   5.846   2.986   4.441  1.8985 -3.5272  0.9101
   8523SM  H20G11430   5.706   3.055   4.547  0.0412 -0.3890  2.7170
   8523SM  C21F11431   5.784   2.867   4.609  0.7931 -0.6224  0.5016
   8523SM  H21F11432   5.720   2.806   4.541 -0.1678  0.3468  0.5082
   8523SM  H21G11433   5.727   2.889   4.702  2.5242  0.9769  1.2567
   8523SM  C22F11434   5.916   2.792   4.635 -0.1193  0.7410 -0.1174
   8523SM  H22F11435   5.877   2.697   4.678  0.6482  0.5024  0.0646
   8523SM  H22G11436   5.976   2.847   4.710 -1.0145 -0.7547  1.7875
   8523SM  C23F11437   5.997   2.771   4.512 -0.3237 -0.0116  0.4028
   8523SM  H23F11438   6.022   2.872   4.471 -0.8594 -0.3877 -0.9004
   8523SM  H23G11439   5.934   2.711   4.443  1.2151 -1.1334 -0.0751
   8523SM  H23H11440   6.098   2.727   4.526  0.8388  1.9047 -1.3400
   8623SM     N11441   3.732   1.688   2.416  0.7467  0.2351 -0.0141
   8623SM   C1511442   3.625   1.775   2.472  0.2547  0.3488  0.2530
   8623SM  H15A11443   3.549   1.721   2.526  1.5977 -1.4020  0.4935
   8623SM  H15B11444   3.578   1.840   2.400 -1.7368 -2.4583 -1.1515
   8623SM  H15C11445   3.656   1.835   2.556  0.0518  0.9462 -0.0944
   8623SM   C1411446   3.658   1.604   2.319  0.0559 -0.1920  0.4372
   8623SM  H14A11447   3.608   1.655   2.238  0.9482 -1.1005 -0.7416
   8623SM  H14B11448   3.577   1.544   2.357 -0.1054 -0.3304 -0.1141
   8623SM  H14C11449   3.734   1.536   2.284  0.6396  0.1013  1.1101
   8623SM   C1311450   3.824   1.781   2.349 -0.2027 -0.2584  0.5799
   8623SM  H13A11451   3.783   1.841   2.270  0.4666  1.4016  1.4495
   8623SM  H13B11452   3.889   1.723   2.285 -1.0638  1.0864 -1.6212
   8623SM  H13C11453   3.882   1.831   2.426  2.1737 -1.0025 -0.6316
   8623SM   C1211454   3.790   1.593   2.524 -0.0748 -0.3342 -0.4204
   8623SM  H12A11455   3.885   1.555   2.489  0.3185  0.3097 -0.0708
   8623SM  H12B11456   3.730   1.504   2.536  2.5769 -1.9231  3.2849
   8623SM   C1111457   3.813   1.662   2.665  0.3051 -0.3807 -0.3598
   8623SM  H11A11458   3.828   1.589   2.748  0.8394  0.5066  0.3453
   8623SM  H11B11459   3.722   1.714   2.703 -0.6064 -3.0680  1.4861
   8623SM     P11460   4.056   1.738   2.717 -0.2046 -0.2219  0.5117
   8623SM   O1311461   4.112   1.624   2.650  0.3010  0.7030  0.4081
   8623SM   O1411462   4.127   1.870   2.693 -0.2192  0.1813 -0.0360
   8623SM   O1111463   4.030   1.715   2.870  0.0109  0.5494 -0.0489
   8623SM   O1211464   3.906   1.760   2.664  0.1040 -0.4052  0.3556
   8623SM   C1S11465   3.963   1.807   2.950  0.1198 -0.1057 -0.5161
   8623SM   H1S11466   3.858   1.826   2.918  0.5772  1.8278 -1.0064
   8623SM   H1T11467   4.008   1.908   2.946  0.8832 -0.4382 -0.5698
   8623SM    NF11468   3.905   1.867   3.191 -0.7372 -0.6291 -0.2219
   8623SM   HNF11469   3.965   1.933   3.235 -0.1098  0.3366 -2.3905
   8623SM   C2S11470   3.973   1.769   3.103 -0.3628  0.2457 -0.2961
   8623SM   H2S11471   3.918   1.674   3.123  0.4712  0.0445  1.1225
   8623SM   C3S11472   4.118   1.751   3.153  0.0179  0.0711  0.1665
   8623SM   H3S11473   4.180   1.841   3.134 -0.3680  0.0246 -1.4888
   8623SM    O311474   4.188   1.649   3.081 -0.4278 -0.7555  0.6426
   8623SM   HO311475   4.121   1.623   3.018 -0.4745 -0.0905  0.4142
   8623SM   C4S11476   4.121   1.723   3.298 -0.1923 -1.1261 -0.4974
   8623SM   H4S11477   4.106   1.811   3.361 -0.7009 -1.6868  0.1826
   8623SM   C5S11478   4.114   1.602   3.356 -0.1538 -0.2380 -0.0858
   8623SM   H5S11479   4.112   1.519   3.283  2.1855  1.0444 -1.7308
   8623SM   C6S11480   4.110   1.554   3.499  0.0914 -0.6294  0.6991
   8623SM   H6S11481   4.211   1.512   3.520  1.0263  0.1650 -1.8224
   8623SM   H6T11482   4.030   1.480   3.523 -0.1990  0.1371  2.1813
   8623SM   C7S11483   4.080   1.664   3.600  0.1432  0.7285  0.2719
   8623SM   H7S11484   3.985   1.714   3.574 -2.4734 -3.8348  0.0159
   8623SM   H7T11485   4.164   1.733   3.577  0.4546 -0.2827 -1.8508
   8623SM   C8S11486   4.063   1.622   3.744 -0.0088 -0.1882  0.5390
   8623SM   H8S11487   4.131   1.536   3.756  0.5038  0.0921 -0.2590
   8623SM   H8T11488   3.961   1.588   3.771 -0.2191  0.4526  0.5790
   8623SM   C9S11489   4.100   1.735   3.839 -0.0682  0.5583  0.0040
   8623SM   H9S11490   4.108   1.692   3.941 -0.2346  0.3276 -0.0806
   8623SM   H9T11491   4.024   1.815   3.839 -0.8177 -0.1387 -0.5080
   8623SM  C10S11492   4.224   1.813   3.806  0.3517 -0.7576 -0.8929
   8623SM  H10S11493   4.224   1.868   3.710  1.0659  0.7848 -0.0534
   8623SM  H10T11494   4.317   1.752   3.809  0.4000 -0.6456  0.3434
   8623SM  C11S11495   4.256   1.923   3.909  0.5698 -1.0030  0.2928
   8623SM  H11S11496   4.285   1.862   3.997 -0.3602 -1.4807  0.2871
   8623SM  H11T11497   4.159   1.974   3.926  1.1409 -0.2270  1.2906
   8623SM  C12S11498   4.362   2.021   3.861  0.1275  0.3846  0.1407
   8623SM  H12S11499   4.313   2.086   3.785 -0.3067 -0.9664 -0.7728
   8623SM  H12T11500   4.440   1.950   3.825  0.3357  0.4741  0.4137
   8623SM  C13S11501   4.421   2.107   3.979 -0.1478 -0.5153  0.2323
   8623SM  H13S11502   4.472   2.039   4.051  3.1059 -0.0846 -1.4815
   8623SM  H13T11503   4.345   2.170   4.030 -0.5234 -1.4557  0.8663
   8623SM  C14S11504   4.534   2.196   3.934  0.4138  0.2731 -0.2077
   8623SM  H14S11505   4.493   2.274   3.866 -1.4770 -0.3810  0.1185
   8623SM  H14T11506   4.607   2.138   3.875  1.8771  1.1885  0.6319
   8623SM  C15S11507   4.624   2.251   4.050  0.3902  0.5184  0.0737
   8623SM  H15S11508   4.651   2.171   4.122 -0.8746  0.2541  0.2767
   8623SM  H15T11509   4.580   2.329   4.115  1.4917  0.8235  0.4589
   8623SM  C16S11510   4.756   2.302   3.997  0.5551 -0.4684  0.6224
   8623SM  H16S11511   4.721   2.388   3.936 -0.5788 -1.2271  0.1798
   8623SM  H16T11512   4.807   2.222   3.939  1.8279 -1.1001  2.5089
   8623SM  C17S11513   4.854   2.373   4.093  0.0243 -0.1272 -0.0284
   8623SM  H17S11514   4.804   2.467   4.127  0.5908  0.0106  0.4458
   8623SM  H17T11515   4.935   2.407   4.025  0.6246 -0.5611  0.4541
   8623SM  C18S11516   4.907   2.291   4.208 -0.0273 -0.0344  0.0872
   8623SM  H18S11517   4.947   2.206   4.148  0.7536  0.0252  0.5103
   8623SM  H18T11518   4.842   2.254   4.290  0.1349  0.3638  0.3967
   8623SM  H18U11519   4.992   2.348   4.252 -0.6821  0.9218  0.1371
   8623SM   C1F11520   3.771   1.890   3.177  0.1398 -0.4509 -0.3584
   8623SM    OF11521   3.700   1.825   3.101 -0.3492  0.1640  0.5909
   8623SM   C2F11522   3.723   2.004   3.254 -0.3376 -0.9878 -0.3272
   8623SM   H2F11523   3.703   2.092   3.189  3.6638 -0.4725 -1.1606
   8623SM   H2G11524   3.791   2.043   3.332 -0.4490 -0.9635 -0.2420
   8623SM   C3F11525   3.590   1.964   3.329  0.6161  0.5330  0.5156
   8623SM   H3F11526   3.515   1.915   3.263 -0.1540 -2.5766  3.4284
   8623SM   H3G11527   3.542   2.056   3.370 -1.1691 -0.4015  0.6373
   8623SM   C4F11528   3.625   1.860   3.438  0.7138  0.2046 -0.1262
   8623SM   H4F11529   3.667   1.771   3.387  1.0919  0.5774 -0.4811
   8623SM   H4G11530   3.533   1.842   3.497  2.3759 -1.1835  2.1952
   8623SM   C5F11531   3.728   1.900   3.550 -0.3186 -0.0517  0.0121
   8623SM   H5F11532   3.821   1.934   3.499 -0.4897  1.7109  0.7799
   8623SM   H5G11533   3.747   1.808   3.608 -0.6914  0.5271  1.0795
   8623SM   C6F11534   3.684   2.015   3.639  0.0318 -0.3457 -0.3146
   8623SM   H6F11535   3.575   1.997   3.651 -0.0163  0.6298  0.8831
   8623SM   H6G11536   3.690   2.107   3.578 -0.8012  0.6245  0.9985
   8623SM   C7F11537   3.752   2.035   3.777 -0.2138  0.0721  0.0431
   8623SM   H7F11538   3.855   2.066   3.751  1.1076 -2.8702  1.2145
   8623SM   H7G11539   3.771   1.943   3.837  1.6950  0.7819  0.6103
   8623SM   C8F11540   3.698   2.134   3.873 -0.4677 -0.1566 -0.5610
   8623SM   H8F11541   3.588   2.118   3.879 -0.3377 -1.5408 -1.4012
   8623SM   H8G11542   3.708   2.228   3.816 -5.7113 -0.3734 -2.4020
   8623SM   C9F11543   3.777   2.128   4.003  0.0262 -0.0178  0.3020
   8623SM   H9F11544   3.879   2.161   3.975 -0.4420  1.1102 -0.1449
   8623SM   H9G11545   3.771   2.023   4.037  1.7161  0.2885  1.6338
   8623SM  C10F11546   3.721   2.214   4.111  0.1939  0.1942 -0.8515
   8623SM  H10F11547   3.614   2.196   4.133 -0.0596  0.4880 -1.8405
   8623SM  H10G11548   3.712   2.319   4.076 -0.1397 -0.0436 -1.4836
   8623SM  C11F11549   3.795   2.210   4.246 -0.1882 -0.2131  1.2664
   8623SM  H11F11550   3.900   2.241   4.226  0.0497 -0.6784  1.7432
   8623SM  H11G11551   3.799   2.110   4.294 -2.0156 -1.2243 -0.5604
   8623SM  C12F11552   3.720   2.303   4.349 -0.6078 -1.1769  0.3985
   8623SM  H12F11553   3.632   2.263   4.405 -0.8068  0.3010  1.1792
   8623SM  H12G11554   3.684   2.395   4.299 -2.8836 -1.9424  0.5037
   8623SM  C13F11555   3.814   2.353   4.463 -0.0933  0.4182  0.4791
   8623SM  H13F11556   3.915   2.381   4.427 -0.5926 -0.9958 -2.2517
   8623SM  H13G11557   3.821   2.265   4.531 -0.6358 -0.1400 -0.1764
   8623SM  C14F11558   3.770   2.481   4.529 -0.1364  0.0229 -0.1983
   8623SM  H14F11559   3.662   2.478   4.556  0.3168 -0.7782  1.7192
   8623SM  H14G11560   3.784   2.567   4.460  0.7384  0.5192  0.5769
   8623SM  C15F11561   3.855   2.507   4.655 -0.2061 -0.6021  0.2696
   8623SM  H15F11562   3.955   2.544   4.626 -0.6738  0.6411  0.1416
   8623SM  H15G11563   3.881   2.412   4.705  0.6930 -0.3662  0.2740
   8623SM  C16F11564   3.779   2.594   4.748 -0.4214  0.6335 -0.2964
   8623SM  H16F11565   3.688   2.550   4.793 -0.0388  0.3450  0.2079
   8623SM  H16G11566   3.740   2.686   4.699  1.7541  1.6863 -0.2117
   8623SM  C17F11567   3.871   2.658   4.854  0.3339  0.8230  0.0120
   8623SM  H17F11568   3.938   2.726   4.797  1.3827 -0.4490 -0.3332
   8623SM  H17G11569   3.930   2.583   4.911 -0.0905 -0.5791 -1.3133
   8623SM  C18F11570   3.796   2.757   4.945  0.0261  0.7542 -0.0736
   8623SM  H18F11571   3.727   2.709   5.017 -1.2723  0.8056 -1.2471
   8623SM  H18G11572   3.732   2.805   4.868 -0.2962 -0.5615 -0.6538
   8623SM  C19F11573   3.874   2.866   5.023  0.5450 -1.2570  0.2181
   8623SM  H19F11574   3.959   2.807   5.062  0.5320 -1.4382 -0.0234
   8623SM  H19G11575   3.816   2.904   5.110  0.7644  0.6626 -0.4491
   8623SM  C20F11576   3.917   2.980   4.938 -0.8988  0.2582  0.7541
   8623SM  H20F11577   3.825   3.034   4.905 -0.7273  0.5762  0.7845
   8623SM  H20G11578   3.957   2.943   4.841 -0.3766  2.9645 -0.1652
   8623SM  C21F11579   4.008   3.086   5.003 -0.4584 -0.1079 -0.2360
   8623SM  H21F11580   3.949   3.135   5.083  0.3230 -0.2987  0.4679
   8623SM  H21G11581   4.028   3.162   4.925  1.6494 -1.2976 -0.9315
   8623SM  C22F11582   4.135   3.036   5.057 -0.2108  0.1050  0.5660
   8623SM  H22F11583   4.195   2.977   4.985 -0.0926  0.9177 -0.0160
   8623SM  H22G11584   4.104   2.976   5.145 -2.8572 -1.7571 -1.4745
   8623SM  C23F11585   4.234   3.134   5.115 -0.0125 -0.8186 -0.4158
   8623SM  H23F11586   4.190   3.193   5.198  0.7730 -0.7977 -0.0035
   8623SM  H23G11587   4.266   3.203   5.035 -1.7077  0.8460  0.2803
   8623SM  H23H11588   4.318   3.069   5.151  0.4407 -0.3685 -0.6492
   8723SM     N11589   5.361   1.064   2.322  0.1734 -0.0546  0.4271
   8723SM   C1511590   5.484   1.050   2.414 -0.4532 -0.1609  0.3474
   8723SM  H15A11591   5.455   0.998   2.504 -2.2339  0.6323  0.2769
   8723SM  H15B11592   5.530   1.147   2.430 -1.8246  1.3482 -3.6157
   8723SM  H15C11593   5.560   0.990   2.365 -0.2111  1.0218 -0.7834
   8723SM   C1411594   5.414   1.088   2.188  0.2915 -1.0831 -0.7693
   8723SM  H14A11595   5.473   1.003   2.157  0.9452 -0.8084 -0.3033
   8723SM  H14B11596   5.468   1.181   2.187  0.3607 -1.1222 -2.1651
   8723SM  H14C11597   5.337   1.106   2.114  1.4254 -1.0673 -1.9773
   8723SM   C1311598   5.289   0.940   2.316  0.4399 -0.5620 -0.1809
   8723SM  H13A11599   5.255   0.914   2.415  0.6058 -1.0975 -0.2579
   8723SM  H13B11600   5.349   0.854   2.289  0.1914 -0.2206 -1.9498
   8723SM  H13C11601   5.214   0.934   2.239  0.6913 -1.0900 -0.3902
   8723SM   C1211602   5.280   1.178   2.376 -0.4827 -0.1183  0.2134
   8723SM  H12A11603   5.183   1.171   2.329 -0.8245  1.4550  0.6213
   8723SM  H12B11604   5.313   1.275   2.341 -2.1401  0.6166  0.5528
   8723SM   C1111605   5.273   1.183   2.533 -0.6772  0.8829 -0.2685
   8723SM  H11A11606   5.208   1.270   2.558  1.9178  2.4868  1.4150
   8723SM  H11B11607   5.369   1.212   2.579  0.6707 -1.4757 -1.4242
   8723SM     P11608   5.060   1.041   2.583  0.2438 -0.4009 -0.1819
   8723SM   O1311609   4.994   1.154   2.512 -0.0177  0.1675 -0.2951
   8723SM   O1411610   5.029   0.904   2.529 -0.1066 -0.0092 -0.3442
   8723SM   O1111611   5.031   1.059   2.737  0.1714  0.1479 -0.4079
   8723SM   O1211612   5.215   1.061   2.583  0.0414 -0.5094  0.1460
   8723SM   C1S11613   5.072   0.976   2.845  0.2062  0.3072  0.1109
   8723SM   H1S11614   5.182   0.988   2.854  0.3536  0.1603 -1.2578
   8723SM   H1T11615   5.042   0.869   2.835 -0.6063  0.6130 -0.9959
   8723SM    NF11616   5.039   0.929   3.092  0.0198  0.0655 -0.0756
   8723SM   HNF11617   4.958   0.891   3.136  0.2951 -2.3354 -1.4618
   8723SM   C2S11618   5.010   1.027   2.984  0.7010 -0.2286 -0.4773
   8723SM   H2S11619   5.069   1.119   3.004  0.6951  0.1037 -1.8607
   8723SM   C3S11620   4.859   1.067   2.981 -0.4244 -0.3356  0.9545
   8723SM   H3S11621   4.795   0.976   2.990 -1.3461  0.1130 -0.7406
   8723SM    O311622   4.810   1.135   2.860  0.0947 -0.1161  0.1223
   8723SM   HO311623   4.880   1.114   2.798  2.1255  0.9338  1.9194
   8723SM   C4S11624   4.824   1.153   3.102  0.5969 -0.2305  0.0064
   8723SM   H4S11625   4.891   1.240   3.112  2.5121 -1.7158  0.9276
   8723SM   C5S11626   4.730   1.126   3.198 -0.4116 -0.1060  0.3495
   8723SM   H5S11627   4.678   1.029   3.193  0.0455 -0.3840  0.7706
   8723SM   C6S11628   4.713   1.203   3.329 -0.0595 -0.8281  1.0738
   8723SM   H6S11629   4.611   1.246   3.329  0.9539  1.7788  1.1152
   8723SM   H6T11630   4.787   1.285   3.338  0.8091 -1.4905  0.2127
   8723SM   C7S11631   4.724   1.112   3.454  0.4322 -0.0433  0.0017
   8723SM   H7S11632   4.831   1.081   3.443  0.4209  0.7455 -3.9729
   8723SM   H7T11633   4.666   1.017   3.450 -0.9870  0.8328 -1.8091
   8723SM   C8S11634   4.691   1.189   3.577 -0.5354 -0.4278 -0.3263
   8723SM   H8S11635   4.583   1.213   3.568 -0.4642  0.5422  1.0828
   8723SM   H8T11636   4.738   1.289   3.587  0.5778 -1.0497  1.0640
   8723SM   C9S11637   4.734   1.108   3.700 -0.0400 -0.0099 -0.6384
   8723SM   H9S11638   4.668   1.020   3.714  0.7474 -0.5669 -0.2876
   8723SM   H9T11639   4.710   1.170   3.789 -1.2583 -2.4683  0.8494
   8723SM  C10S11640   4.879   1.075   3.719 -0.2594 -0.4646 -0.0793
   8723SM  H10S11641   4.931   1.170   3.695 -1.3879  0.1109 -0.3151
   8723SM  H10T11642   4.908   0.990   3.653 -1.2679 -0.6595 -0.2860
   8723SM  C11S11643   4.916   1.040   3.861  0.0247  0.9921  0.2743
   8723SM  H11S11644   4.871   1.111   3.933  0.4736  0.7367  0.8154
   8723SM  H11T11645   5.027   1.042   3.866  0.1330 -0.0280 -1.0813
   8723SM  C12S11646   4.877   0.895   3.900  0.1325  0.0857 -0.0159
   8723SM  H12S11647   4.950   0.823   3.858  0.9361  0.4393  0.7244
   8723SM  H12T11648   4.777   0.872   3.858 -0.7840 -0.0763  2.1048
   8723SM  C13S11649   4.852   0.878   4.051 -0.1680  0.4841 -0.1282
   8723SM  H13S11650   4.762   0.938   4.076  0.2612  1.3812 -0.6853
   8723SM  H13T11651   4.940   0.907   4.112 -0.6035 -0.8751  1.1934
   8723SM  C14S11652   4.820   0.733   4.090  0.2023 -0.3781 -0.5747
   8723SM  H14S11653   4.891   0.653   4.060  1.2959 -0.0325  0.9612
   8723SM  H14T11654   4.733   0.712   4.024  2.0687 -0.3861 -3.1941
   8723SM  C15S11655   4.788   0.735   4.239  0.1572  0.8724 -0.6993
   8723SM  H15S11656   4.853   0.800   4.302  0.4025 -1.6960  1.9491
   8723SM  H15T11657   4.799   0.631   4.277 -0.9971  0.4018 -1.5952
   8723SM  C16S11658   4.639   0.774   4.268 -0.2821 -0.5635 -0.0611
   8723SM  H16S11659   4.566   0.719   4.207  0.8799 -2.0338 -0.1755
   8723SM  H16T11660   4.611   0.879   4.245 -1.0388 -0.6149  0.6024
   8723SM  C17S11661   4.608   0.751   4.415  0.1119  0.3236 -0.4311
   8723SM  H17S11662   4.653   0.832   4.476  0.2102  0.3569 -0.5491
   8723SM  H17T11663   4.640   0.647   4.437 -2.3486 -0.6556 -1.1357
   8723SM  C18S11664   4.459   0.754   4.450  0.2309  0.3200 -0.4082
   8723SM  H18S11665   4.398   0.697   4.377 -0.8124 -1.3187  1.6533
   8723SM  H18T11666   4.437   0.862   4.437  3.5426  1.0839 -0.6181
   8723SM  H18U11667   4.431   0.711   4.549 -0.5490 -0.4422 -0.9411
   8723SM   C1F11668   5.154   0.902   3.145 -0.7017  0.9173  0.1135
   8723SM    OF11669   5.243   0.983   3.133  0.1278 -0.4150 -0.3944
   8723SM   C2F11670   5.166   0.786   3.228  0.5960  1.0637  0.0111
   8723SM   H2F11671   5.210   0.706   3.165 -0.9644  0.6051 -0.5479
   8723SM   H2G11672   5.069   0.751   3.268  0.7888 -0.4766 -0.8143
   8723SM   C3F11673   5.259   0.807   3.350 -0.6786 -0.1661 -0.1452
   8723SM   H3F11674   5.357   0.831   3.304 -0.6468 -2.9800 -1.7471
   8723SM   H3G11675   5.268   0.711   3.406  0.7736  1.1652  2.0870
   8723SM   C4F11676   5.203   0.911   3.441  0.0745 -0.0400  0.0760
   8723SM   H4F11677   5.095   0.895   3.461  0.6119 -1.0542  2.6012
   8723SM   H4G11678   5.224   1.006   3.387  2.6658 -1.6265 -1.9723
   8723SM   C5F11679   5.284   0.907   3.572  0.4509 -0.3353  0.3586
   8723SM   H5F11680   5.267   1.006   3.619 -0.0379 -0.6403  0.8272
   8723SM   H5G11681   5.395   0.908   3.563  0.6768  0.8791  2.6971
   8723SM   C6F11682   5.246   0.799   3.674 -0.2183  0.0062 -0.1259
   8723SM   H6F11683   5.250   0.697   3.632 -0.7282  0.5242 -1.4738
   8723SM   H6G11684   5.150   0.831   3.721 -0.3174 -1.2443  0.5665
   8723SM   C7F11685   5.352   0.799   3.787 -0.2825 -0.6439 -0.6940
   8723SM   H7F11686   5.357   0.892   3.847 -1.7130 -1.8361  1.3901
   8723SM   H7G11687   5.457   0.800   3.751  0.7456 -0.7146  2.0583
   8723SM   C8F11688   5.332   0.680   3.882 -0.0325 -0.2116  0.6037
   8723SM   H8F11689   5.428   0.629   3.904  0.2353 -0.0706 -0.1897
   8723SM   H8G11690   5.265   0.609   3.828  0.3759 -0.1393 -0.0126
   8723SM   C9F11691   5.277   0.727   4.019  0.2576 -0.6115  0.0365
   8723SM   H9F11692   5.184   0.786   4.004  0.5789 -0.1202 -0.0538
   8723SM   H9G11693   5.348   0.789   4.078  0.2398 -1.0919  0.5728
   8723SM  C10F11694   5.236   0.606   4.101  0.3310 -0.7569 -0.0848
   8723SM  H10F11695   5.324   0.539   4.106  0.7188 -0.3301 -1.0471
   8723SM  H10G11696   5.159   0.545   4.048 -0.6022  2.8213 -3.2254
   8723SM  C11F11697   5.177   0.641   4.233  0.3015 -1.0282  0.9094
   8723SM  H11F11698   5.092   0.710   4.218  1.6962  0.9093  1.5695
   8723SM  H11G11699   5.246   0.709   4.287 -1.0231  2.2607 -1.2382
   8723SM  C12F11700   5.135   0.527   4.319  0.3586  0.5193  0.2697
   8723SM  H12F11701   5.226   0.468   4.346  0.8683  0.1325 -2.0562
   8723SM  H12G11702   5.068   0.456   4.266 -1.2888  1.9952  0.3118
   8723SM  C13F11703   5.067   0.579   4.447 -0.4831 -0.4276  0.1366
   8723SM  H13F11704   4.974   0.637   4.431 -0.1849 -0.3723 -1.5194
   8723SM  H13G11705   5.138   0.650   4.496  0.7398 -1.3472 -0.2769
   8723SM  C14F11706   5.038   0.474   4.559  0.1186 -0.9836  0.1569
   8723SM  H14F11707   5.132   0.446   4.610  1.7903 -0.7681 -2.5830
   8723SM  H14G11708   4.993   0.385   4.511 -0.3044 -0.4710 -0.4196
   8723SM  C15F11709   4.924   0.523   4.657 -0.8801 -0.1284  0.1364
   8723SM  H15F11710   4.853   0.577   4.590  0.6295  2.5485  0.5224
   8723SM  H15G11711   4.954   0.614   4.714 -1.3152  1.0808 -1.4983
   8723SM  C16F11712   4.858   0.416   4.733  0.6976  0.8150 -0.7262
   8723SM  H16F11713   4.938   0.384   4.803  0.2159 -1.6901 -1.2218
   8723SM  H16G11714   4.848   0.323   4.672 -0.9126 -0.2072  0.9908
   8723SM  C17F11715   4.722   0.461   4.781  0.0402 -0.0558  0.0068
   8723SM  H17F11716   4.663   0.446   4.689 -0.2324  0.7806  0.0357
   8723SM  H17G11717   4.712   0.571   4.797 -0.3937 -0.1230  0.2091
   8723SM  C18F11718   4.658   0.387   4.903 -0.2105  0.2292  0.5390
   8723SM  H18F11719   4.721   0.406   4.992 -0.4780  1.3454  0.4973
   8723SM  H18G11720   4.667   0.280   4.874 -0.0383  0.3256  0.2282
   8723SM  C19F11721   4.520   0.448   4.939 -0.0979  0.3957 -0.3508
   8723SM  H19F11722   4.464   0.466   4.845  0.4671  1.7139 -0.4704
   8723SM  H19G11723   4.552   0.546   4.981  1.2471 -0.0112 -0.3623
   8723SM  C20F11724   4.432   0.372   5.038  0.6050 -0.9083 -0.7299
   8723SM  H20F11725   4.484   0.361   5.136  0.2327 -0.6690 -0.5048
   8723SM  H20G11726   4.396   0.275   4.997 -0.9391 -1.3116  1.4173
   8723SM  C21F11727   4.307   0.456   5.057  0.1230 -0.0539  0.0528
   8723SM  H21F11728   4.250   0.404   5.137  1.2447 -1.6591 -0.1362
   8723SM  H21G11729   4.241   0.464   4.968  1.0196  1.9347 -0.4827
   8723SM  C22F11730   4.331   0.598   5.111  0.0305 -0.6294 -0.1014
   8723SM  H22F11731   4.372   0.658   5.027 -2.1764  1.1929  0.0370
   8723SM  H22G11732   4.400   0.589   5.198 -0.4376 -3.2253  0.0977
   8723SM  C23F11733   4.196   0.663   5.159 -0.1977  0.0268  0.1347
   8723SM  H23F11734   4.220   0.759   5.208 -3.0972  0.1563  1.4605
   8723SM  H23G11735   4.145   0.594   5.230  0.7111 -0.0041  0.7819
   8723SM  H23H11736   4.132   0.681   5.070 -2.3300  2.0322  1.9394
   8823SM     N11737   2.009   2.417   2.820  0.7190  0.7326  0.4106
   8823SM   C1511738   1.895   2.408   2.724 -0.3540  0.6318 -0.1993
   8823SM  H15A11739   1.927   2.462   2.636 -1.2742  1.3839 -0.0886
   8823SM  H15B11740   1.806   2.448   2.770 -1.0125 -0.8741 -0.0982
   8823SM  H15C11741   1.874   2.304   2.704 -1.2945  1.0412 -1.4563
   8823SM   C1411742   2.130   2.338   2.777  0.5150  0.5631  0.2834
   8823SM  H14A11743   2.156   2.369   2.677  2.5111  0.3601  0.6994
   8823SM  H14B11744   2.108   2.233   2.762  2.0731  0.1791  0.5631
   8823SM  H14C11745   2.211   2.360   2.844  0.2251  0.2519  0.7482
   8823SM   C1311746   2.030   2.563   2.836  0.6318  0.6446  0.1024
   8823SM  H13A11747   2.061   2.612   2.745  1.7598 -0.9623 -0.4235
   8823SM  H13B11748   2.110   2.589   2.904 -0.6407  0.5314  1.6917
   8823SM  H13C11749   1.945   2.612   2.880 -1.0148  0.3173 -2.5185
   8823SM   C1211750   1.961   2.363   2.956  1.0529  0.0500 -0.1274
   8823SM  H12A11751   2.039   2.385   3.027  1.6681  1.3873 -1.1728
   8823SM  H12B11752   1.944   2.257   2.948  0.6256  0.0300  0.9090
   8823SM   C1111753   1.823   2.428   3.010 -0.5444 -0.3237  0.0467
   8823SM  H11A11754   1.809   2.379   3.109  2.7239 -0.5804  0.4684
   8823SM  H11B11755   1.741   2.393   2.942 -1.0044 -1.9743  1.3742
   8823SM     P11756   1.826   2.656   3.139 -0.2419 -0.0872 -0.1476
   8823SM   O1311757   1.889   2.787   3.115 -0.0584  0.2018 -0.1987
   8823SM   O1411758   1.694   2.655   3.199 -0.0625  0.1341 -0.2976
   8823SM   O1111759   1.918   2.565   3.225  0.2404 -0.0679  0.4669
   8823SM   O1211760   1.819   2.573   3.012  0.4303  0.1656  0.1563
   8823SM   C1S11761   1.971   2.617   3.352 -0.2254  0.2164  0.4063
   8823SM   H1S11762   1.926   2.712   3.387 -1.9623 -0.0379 -1.0058
   8823SM   H1T11763   2.075   2.653   3.337 -0.7611  1.0282 -1.7069
   8823SM    NF11764   1.982   2.592   3.593 -0.2865 -0.1806  0.2239
   8823SM   HNF11765   2.078   2.604   3.616 -0.5808  0.9254  0.9635
   8823SM   C2S11766   1.958   2.519   3.474 -0.0473  0.4689  0.5294
   8823SM   H2S11767   1.857   2.474   3.480  0.2932 -0.1523  2.0648
   8823SM   C3S11768   2.056   2.396   3.459  0.6645  0.3550 -0.6849
   8823SM   H3S11769   2.155   2.447   3.460  1.7589 -1.5315  1.9036
   8823SM    O311770   2.039   2.318   3.339  0.0967 -0.2607 -0.2008
   8823SM   HO311771   1.980   2.376   3.290 -0.1986 -0.1623  0.2628
   8823SM   C4S11772   2.047   2.300   3.580 -0.2545 -0.3762 -0.3255
   8823SM   H4S11773   2.134   2.306   3.646 -0.6038  4.6033  0.0647
   8823SM   C5S11774   1.946   2.214   3.606 -0.6122  0.2587 -0.5086
   8823SM   H5S11775   1.860   2.208   3.538 -0.9501 -0.5746 -0.0157
   8823SM   C6S11776   1.950   2.118   3.721  0.3140 -0.0332 -0.5935
   8823SM   H6S11777   1.973   2.017   3.681  1.5070  0.1092 -0.2964
   8823SM   H6T11778   1.852   2.122   3.773 -1.1515 -0.9137 -3.1205
   8823SM   C7S11779   2.056   2.102   3.836  0.3189 -0.8850 -0.8455
   8823SM   H7S11780   2.157   2.108   3.791  0.7446  2.2856  0.2373
   8823SM   H7T11781   2.042   2.008   3.892  0.2815 -0.4798 -0.1627
   8823SM   C8S11782   2.043   2.201   3.953  0.2195 -0.3836  0.4769
   8823SM   H8S11783   2.115   2.170   4.032 -1.3049  0.5402  2.3175
   8823SM   H8T11784   1.944   2.175   3.996  1.1169 -1.1650  2.1588
   8823SM   C9S11785   2.068   2.350   3.918 -0.0498 -0.5010  0.2896
   8823SM   H9S11786   1.974   2.378   3.867  0.7342 -1.7815 -2.0138
   8823SM   H9T11787   2.150   2.361   3.843 -1.1938  1.0112 -0.8114
   8823SM  C10S11788   2.101   2.435   4.039  0.0662 -0.1246  0.1086
   8823SM  H10S11789   2.136   2.534   4.002 -0.5967 -0.2421 -0.8979
   8823SM  H10T11790   2.192   2.390   4.083  0.5689 -1.7362 -2.3483
   8823SM  C11S11791   1.984   2.454   4.140  0.4590 -0.1214  0.2897
   8823SM  H11S11792   1.938   2.355   4.160  0.5093  0.0651  1.4412
   8823SM  H11T11793   1.905   2.516   4.094 -0.0944  0.3429  1.7961
   8823SM  C12S11794   2.031   2.528   4.265 -0.3943  0.4374 -0.4068
   8823SM  H12S11795   2.083   2.623   4.241 -0.1723 -0.0111 -1.8163
   8823SM  H12T11796   2.096   2.450   4.311 -1.2392  0.6209  1.1406
   8823SM  C13S11797   1.921   2.562   4.369  0.5891  0.2033  0.0590
   8823SM  H13S11798   1.863   2.468   4.386 -1.3614  1.5698  1.3785
   8823SM  H13T11799   1.850   2.627   4.313 -0.5395 -0.9175  0.1239
   8823SM  C14S11800   1.962   2.611   4.510  0.0211  0.4782 -0.7558
   8823SM  H14S11801   2.018   2.531   4.563  0.1030  1.1167  0.1480
   8823SM  H14T11802   1.877   2.641   4.575  0.5905 -0.3397  0.3980
   8823SM  C15S11803   2.068   2.722   4.513 -0.1246 -0.7192 -0.6679
   8823SM  H15S11804   2.023   2.806   4.456 -1.1291 -0.4525  0.4663
   8823SM  H15T11805   2.151   2.667   4.465  0.6709 -0.8893  0.8194
   8823SM  C16S11806   2.108   2.779   4.653  0.1626  0.2605 -0.1566
   8823SM  H16S11807   2.127   2.698   4.726 -0.0000  1.1148  0.8598
   8823SM  H16T11808   2.030   2.834   4.710  0.1829  0.1535 -0.0253
   8823SM  C17S11809   2.234   2.864   4.632  0.7718  0.0598 -0.1370
   8823SM  H17S11810   2.321   2.808   4.593  0.2540 -1.0200  0.2092
   8823SM  H17T11811   2.260   2.902   4.733  0.6206 -0.3830  0.0729
   8823SM  C18S11812   2.216   2.984   4.543 -0.2467  0.2703  0.4903
   8823SM  H18S11813   2.297   3.058   4.553 -0.7965  0.9162  0.2290
   8823SM  H18T11814   2.125   3.035   4.580  0.3753 -0.2755  2.9274
   8823SM  H18U11815   2.205   2.973   4.433 -0.5937 -0.0368  0.5532
   8823SM   C1F11816   1.890   2.674   3.639  1.1194 -0.1321 -0.3173
   8823SM    OF11817   1.780   2.687   3.592  0.1626 -0.0897 -0.2360
   8823SM   C2F11818   1.937   2.762   3.749 -0.3601  0.2332  0.5500
   8823SM   H2F11819   1.965   2.858   3.700 -0.6770 -0.5945 -1.3131
   8823SM   H2G11820   2.034   2.728   3.793 -0.3415 -1.5276 -0.7591
   8823SM   C3F11821   1.846   2.770   3.877  0.0300 -0.2790 -0.6575
   8823SM   H3F11822   1.840   2.670   3.924  1.3700 -0.5996 -1.1298
   8823SM   H3G11823   1.740   2.791   3.853  0.1680 -1.2678 -2.2334
   8823SM   C4F11824   1.897   2.872   3.979 -0.9068 -0.1232  0.1868
   8823SM   H4F11825   1.885   2.976   3.941  1.6278 -0.6255 -2.2320
   8823SM   H4G11826   2.003   2.855   4.008 -0.8785 -0.0721  0.1140
   8823SM   C5F11827   1.814   2.867   4.106 -0.4578 -0.1537  0.7874
   8823SM   H5F11828   1.833   2.765   4.145  0.3717  0.9933  3.5607
   8823SM   H5G11829   1.706   2.875   4.078 -1.0180 -2.2792  2.1123
   8823SM   C6F11830   1.850   2.961   4.221  0.0940  0.3007  0.3730
   8823SM   H6F11831   1.837   3.062   4.176 -2.9942  0.6702  1.8643
   8823SM   H6G11832   1.956   2.950   4.252 -0.1586  2.3483  2.1479
   8823SM   C7F11833   1.753   2.952   4.338  0.8454  0.6810 -0.1256
   8823SM   H7F11834   1.756   2.848   4.379 -2.2096 -0.6387 -2.7436
   8823SM   H7G11835   1.655   2.974   4.290  1.2510  0.4257 -1.0989
   8823SM   C8F11836   1.781   3.063   4.441 -0.4082 -0.2418  0.3174
   8823SM   H8F11837   1.780   3.160   4.387  3.0493 -0.0332  0.3949
   8823SM   H8G11838   1.885   3.053   4.478 -0.2535 -1.1019 -0.3156
   8823SM   C9F11839   1.687   3.073   4.561 -0.7455  0.1268  0.5470
   8823SM   H9F11840   1.708   2.993   4.635 -0.4040  0.9791  1.3940
   8823SM   H9G11841   1.583   3.051   4.530  0.1144 -2.4992 -0.7387
   8823SM  C10F11842   1.699   3.205   4.629 -0.2735 -0.1258  0.2851
   8823SM  H10F11843   1.669   3.282   4.555  2.2617  1.0623  0.3884
   8823SM  H10G11844   1.808   3.223   4.644 -0.1424  1.3017 -1.8671
   8823SM  C11F11845   1.620   3.194   4.760  0.0468 -0.1684  0.6257
   8823SM  H11F11846   1.645   3.104   4.821  1.7231  1.1796  2.0474
   8823SM  H11G11847   1.512   3.195   4.732 -0.2687 -2.6412  1.4384
   8823SM  C12F11848   1.640   3.312   4.847  0.3103 -0.4712 -0.1880
   8823SM  H12F11849   1.653   3.408   4.792  1.2500 -0.6957 -0.3776
   8823SM  H12G11850   1.740   3.295   4.892  0.9788  0.8031 -1.1212
   8823SM  C13F11851   1.540   3.337   4.961  0.3120  0.0387  0.0349
   8823SM  H13F11852   1.439   3.368   4.925 -0.8519 -1.9070  1.4315
   8823SM  H13G11853   1.579   3.412   5.033 -0.3501  0.2408  0.1957
   8823SM  C14F11854   1.515   3.208   5.042 -0.3409  0.1708 -0.3771
   8823SM  H14F11855   1.617   3.165   5.054 -0.6980 -0.7610 -0.6118
   8823SM  H14G11856   1.449   3.139   4.986 -0.7472  1.5401 -1.6452
   8823SM  C15F11857   1.444   3.234   5.177  0.2321 -0.0331  1.0099
   8823SM  H15F11858   1.353   3.293   5.154  0.0004 -0.4162  0.9316
   8823SM  H15G11859   1.510   3.291   5.245  0.1012  0.9160  0.3536
   8823SM  C16F11860   1.398   3.101   5.243 -0.5935 -1.1815 -0.5066
   8823SM  H16F11861   1.329   3.044   5.178  0.2759 -0.2092 -2.3600
   8823SM  H16G11862   1.358   3.120   5.345  0.4751 -1.5311 -0.0018
   8823SM  C17F11863   1.515   3.002   5.274 -0.9461  0.8540 -0.0522
   8823SM  H17F11864   1.563   2.964   5.181 -2.0498 -2.2172  0.5104
   8823SM  H17G11865   1.473   2.921   5.337  1.0558  0.0672  0.3468
   8823SM  C18F11866   1.632   3.066   5.343  0.0343 -0.3348  0.2539
   8823SM  H18F11867   1.600   3.095   5.446  1.2695  2.2554 -0.0005
   8823SM  H18G11868   1.676   3.153   5.290 -1.0820 -1.8272 -3.4192
   8823SM  C19F11869   1.751   2.965   5.353 -0.2417 -0.2014  0.2105
   8823SM  H19F11870   1.804   2.969   5.256 -1.1107  0.8459 -0.2473
   8823SM  H19G11871   1.715   2.863   5.380  0.6604 -0.5772  0.0211
   8823SM  C20F11872   1.843   3.002   5.468  0.5670  1.4112  0.4138
   8823SM  H20F11873   1.784   3.006   5.562 -0.0214 -0.8738  0.1958
   8823SM  H20G11874   1.884   3.103   5.446 -1.1912  1.5940 -2.4790
   8823SM  C21F11875   1.967   2.907   5.490 -0.2422 -0.1725  0.6484
   8823SM  H21F11876   1.926   2.811   5.530  1.0805 -0.8419  0.4286
   8823SM  H21G11877   2.021   2.954   5.575 -1.9921  3.2617  0.0593
   8823SM  C22F11878   2.061   2.889   5.367  0.3288  0.0668  0.2914
   8823SM  H22F11879   2.018   2.916   5.269  0.8960  1.7081  0.4565
   8823SM  H22G11880   2.081   2.780   5.361  0.4664  0.1063  0.0253
   8823SM  C23F11881   2.188   2.970   5.375 -0.0998  0.3424 -0.0986
   8823SM  H23F11882   2.242   2.988   5.280  0.4783 -3.0044 -0.5426
   8823SM  H23G11883   2.243   2.916   5.456  0.2091  1.5401  0.5096
   8823SM  H23H11884   2.179   3.065   5.431  0.4027 -0.4936  1.4794
   8923SM     N11885   6.738   2.155   2.759 -0.5961 -0.6096  0.1178
   8923SM   C1511886   6.803   2.241   2.661  0.0603 -0.1339 -0.3297
   8923SM  H15A11887   6.875   2.308   2.706  0.5652  0.3641 -1.8076
   8923SM  H15B11888   6.737   2.296   2.595 -0.7686  0.9418  1.3381
   8923SM  H15C11889   6.864   2.173   2.602 -0.6520 -1.7111  0.6764
   8923SM   C1411890   6.619   2.234   2.805 -0.1364  0.4134  0.3511
   8923SM  H14A11891   6.646   2.337   2.826 -0.0551  0.7383 -1.2297
   8923SM  H14B11892   6.564   2.186   2.884 -0.5944 -0.9626 -0.7663
   8923SM  H14C11893   6.544   2.232   2.728 -1.8510  0.0758  1.9580
   8923SM   C1311894   6.683   2.037   2.688  0.3081  0.1047  0.0514
   8923SM  H13A11895   6.629   2.053   2.595 -1.1073  2.3085  1.1688
   8923SM  H13B11896   6.623   1.989   2.763  0.0788  2.4269  1.4672
   8923SM  H13C11897   6.757   1.964   2.657 -0.7896 -1.1044  0.1896
   8923SM   C1211898   6.827   2.104   2.866 -0.3957 -0.4277 -0.5906
   8923SM  H12A11899   6.913   2.058   2.820 -0.8621 -1.8033 -0.1408
   8923SM  H12B11900   6.777   2.024   2.919  1.1015  0.1547  1.9018
   8923SM   C1111901   6.866   2.209   2.973 -0.5291 -0.8341 -0.0884
   8923SM  H11A11902   6.934   2.158   3.043 -0.6274  0.9969  1.4200
   8923SM  H11B11903   6.769   2.238   3.019 -1.4598 -1.1753 -1.7525
   8923SM     P11904   6.885   2.467   2.953  0.1727  0.2682 -0.0813
   8923SM   O1311905   6.988   2.566   2.909 -0.3072  0.2837 -0.3815
   8923SM   O1411906   6.738   2.497   2.927  0.3362 -0.4240  0.0644
   8923SM   O1111907   6.894   2.474   3.112  0.2050  0.1666 -0.1027
   8923SM   O1211908   6.932   2.320   2.914 -0.1672  0.6718 -0.2165
   8923SM   C1S11909   7.022   2.467   3.170  0.2100  0.1488 -0.5789
   8923SM   H1S11910   7.081   2.553   3.132 -1.1623  1.8869  0.9954
   8923SM   H1T11911   7.072   2.372   3.143  0.4819  0.3369 -0.7390
   8923SM    NF11912   7.137   2.519   3.374  0.5158 -0.2013 -0.0872
   8923SM   HNF11913   7.167   2.448   3.437 -0.4752  1.2422  2.1538
   8923SM   C2S11914   7.008   2.484   3.314  0.2608  0.7624 -0.2117
   8923SM   H2S11915   6.940   2.570   3.334  0.5634  0.7374  1.0524
   8923SM   C3S11916   6.936   2.354   3.370 -0.5459 -0.3576 -0.2234
   8923SM   H3S11917   7.006   2.274   3.336  0.6064 -0.6312  2.5406
   8923SM    O311918   6.807   2.323   3.318 -0.2001  0.1868  0.2031
   8923SM   HO311919   6.808   2.374   3.237 -1.6802 -0.4140 -0.2151
   8923SM   C4S11920   6.942   2.339   3.516 -0.5840 -0.4626 -0.0146
   8923SM   H4S11921   6.932   2.437   3.565  2.2711 -0.6135  1.0301
   8923SM   C5S11922   6.968   2.226   3.587  0.0684  0.3088 -0.6403
   8923SM   H5S11923   6.985   2.130   3.536 -0.4429 -0.1852  0.1032
   8923SM   C6S11924   6.975   2.220   3.742 -0.4303  0.1761  0.6071
   8923SM   H6S11925   7.075   2.186   3.777  0.3483  1.4536 -0.2918
   8923SM   H6T11926   6.904   2.144   3.780 -0.2576  0.4069  1.4221
   8923SM   C7S11927   6.946   2.353   3.818 -0.3175  0.3225  0.0853
   8923SM   H7S11928   6.849   2.386   3.777 -0.8634  1.1395  1.8980
   8923SM   H7T11929   7.026   2.430   3.805  0.5651 -0.5859 -0.0148
   8923SM   C8S11930   6.928   2.332   3.968 -0.1695 -0.4370 -0.7147
   8923SM   H8S11931   7.028   2.310   4.011  0.2510  0.8893 -0.9576
   8923SM   H8T11932   6.870   2.240   3.986  2.3109 -2.7481 -3.4437
   8923SM   C9S11933   6.856   2.443   4.047  0.0689  0.1327  0.5344
   8923SM   H9S11934   6.750   2.440   4.012  0.8643 -1.2601 -2.0039
   8923SM   H9T11935   6.899   2.542   4.019 -0.5007  0.8546  2.0845
   8923SM  C10S11936   6.856   2.423   4.196  0.4072 -0.0935  0.2518
   8923SM  H10S11937   6.961   2.424   4.232  0.6041 -1.1924 -0.2558
   8923SM  H10T11938   6.816   2.323   4.219  1.0919 -0.3257  0.4666
   8923SM  C11S11939   6.774   2.530   4.290 -0.5324  0.3929 -0.1962
   8923SM  H11S11940   6.670   2.501   4.262  0.2478 -0.7367 -2.0782
   8923SM  H11T11941   6.802   2.634   4.266 -0.8515  1.0382  1.9635
   8923SM  C12S11942   6.803   2.506   4.444  0.9178 -0.1069 -0.7484
   8923SM  H12S11943   6.903   2.543   4.475 -0.4833  1.9412  1.7442
   8923SM  H12T11944   6.809   2.397   4.463  2.2797 -0.0243 -0.6177
   8923SM  C13S11945   6.702   2.567   4.548  0.1094  0.4666  0.4993
   8923SM  H13S11946   6.605   2.517   4.528  0.3360  0.4522 -0.6342
   8923SM  H13T11947   6.686   2.675   4.527  0.5719  0.3756 -0.3761
   8923SM  C14S11948   6.766   2.554   4.683  0.6782  0.1910 -0.6990
   8923SM  H14S11949   6.859   2.615   4.676  1.6308 -1.1401  0.0248
   8923SM  H14T11950   6.782   2.448   4.712  0.9965  0.1322 -1.0716
   8923SM  C15S11951   6.662   2.627   4.774  0.0872  0.1595  0.3514
   8923SM  H15S11952   6.612   2.706   4.715 -1.0315 -0.2229  0.7622
   8923SM  H15T11953   6.702   2.678   4.864 -3.0493  1.4821  1.1439
   8923SM  C16S11954   6.570   2.523   4.847  0.5265 -0.0434  0.9320
   8923SM  H16S11955   6.545   2.575   4.942 -0.1531  1.5238 -0.0596
   8923SM  H16T11956   6.641   2.442   4.875  3.3367  1.7556 -0.4702
   8923SM  C17S11957   6.449   2.473   4.769 -0.5910 -0.2594 -0.2996
   8923SM  H17S11958   6.385   2.417   4.841 -1.3107  0.9719  0.0513
   8923SM  H17T11959   6.495   2.407   4.693  1.7984  0.1358  0.7297
   8923SM  C18S11960   6.358   2.578   4.699  0.1218  0.6720  0.8218
   8923SM  H18S11961   6.410   2.622   4.612  0.4560 -1.2366 -0.0043
   8923SM  H18T11962   6.346   2.665   4.767  1.6280  1.0724  0.6115
   8923SM  H18U11963   6.252   2.548   4.683  0.8158 -1.7719  0.3968
   8923SM   C1F11964   7.209   2.628   3.359  0.2264 -0.2312  0.0102
   8923SM    OF11965   7.176   2.714   3.278  0.3852 -0.7968  0.4423
   8923SM   C2F11966   7.334   2.641   3.441  0.0082 -0.4679 -0.4192
   8923SM   H2F11967   7.418   2.678   3.379 -1.3204  1.2073 -1.2915
   8923SM   H2G11968   7.363   2.548   3.494  0.8999  0.2401  0.3881
   8923SM   C3F11969   7.326   2.732   3.566 -0.8269 -0.1508  0.8203
   8923SM   H3F11970   7.293   2.835   3.543  3.0178  0.9043 -0.6422
   8923SM   H3G11971   7.432   2.739   3.597 -0.7430  2.1442  0.1530
   8923SM   C4F11972   7.242   2.691   3.684 -0.1788  0.4905 -0.3659
   8923SM   H4F11973   7.282   2.600   3.735  1.3913  1.2243 -0.2443
   8923SM   H4G11974   7.138   2.685   3.644  0.1365 -2.3455 -0.9719
   8923SM   C5F11975   7.250   2.790   3.794  0.0603 -0.2185 -0.1296
   8923SM   H5F11976   7.205   2.886   3.762  0.3823 -0.0149  0.0170
   8923SM   H5G11977   7.356   2.810   3.823 -0.0340  0.5112 -0.2761
   8923SM   C6F11978   7.185   2.735   3.918  0.5017  0.3580 -0.7762
   8923SM   H6F11979   7.214   2.631   3.945 -0.7011  0.2179  0.0475
   8923SM   H6G11980   7.074   2.733   3.911  0.4331  0.9010  0.0327
   8923SM   C7F11981   7.208   2.817   4.045 -0.3850  0.7751  0.0520
   8923SM   H7F11982   7.202   2.925   4.017  0.0806  0.6139 -0.7176
   8923SM   H7G11983   7.314   2.810   4.079 -1.2531  0.4011  2.9145
   8923SM   C8F11984   7.119   2.781   4.159 -0.2515 -0.0387 -0.4343
   8923SM   H8F11985   7.160   2.689   4.205  0.3015  0.3988 -0.0360
   8923SM   H8G11986   7.015   2.764   4.124 -0.1640 -0.9537 -0.2684
   8923SM   C9F11987   7.128   2.891   4.262 -0.2791 -0.3082  0.3503
   8923SM   H9F11988   7.102   2.987   4.212 -1.9199 -0.7389  0.3243
   8923SM   H9G11989   7.231   2.892   4.304  0.1878 -1.2455 -0.7060
   8923SM  C10F11990   7.021   2.858   4.367  0.0922  0.0573 -0.3310
   8923SM  H10F11991   7.038   2.766   4.426 -0.6375  0.1693  0.0749
   8923SM  H10G11992   6.921   2.828   4.328 -1.0058  1.1008  1.5408
   8923SM  C11F11993   6.996   2.968   4.472 -0.1657  0.3221 -0.8463
   8923SM  H11F11994   6.952   3.059   4.425 -1.5715 -0.1505 -0.4867
   8923SM  H11G11995   7.092   3.004   4.514  0.5457 -0.5550 -1.6794
   8923SM  C12F11996   6.914   2.917   4.588  1.0099 -0.2310  0.0763
   8923SM  H12F11997   6.945   2.812   4.608 -3.4133 -1.5369  1.1963
   8923SM  H12G11998   6.810   2.912   4.551  0.7695 -0.0974  0.7242
   8923SM  C13F11999   6.935   2.989   4.719 -0.3837 -0.4966 -0.3531
   8923SM  H13F12000   6.928   3.098   4.697 -2.3556  0.1075  2.6342
   8923SM  H13G12001   7.041   2.969   4.746 -0.4371  0.3061  0.5201
   8923SM  C14F12002   6.836   2.957   4.830  0.0562 -0.0287 -0.9420
   8923SM  H14F12003   6.845   2.848   4.848  1.6459  0.4442  1.6363
   8923SM  H14G12004   6.734   2.986   4.797  0.4306 -0.3396 -2.4309
   8923SM  C15F12005   6.869   3.031   4.956 -0.5643 -0.2683 -0.7610
   8923SM  H15F12006   6.879   3.140   4.936 -1.7771  0.0972  0.4906
   8923SM  H15G12007   6.973   3.013   4.992 -0.7672 -1.9549 -0.9692
   8923SM  C16F12008   6.776   3.026   5.073  0.2236 -0.4768  0.0250
   8923SM  H16F12009   6.771   2.917   5.094 -0.4172 -0.5280 -0.3691
   8923SM  H16G12010   6.673   3.066   5.060  0.4433  0.3480  0.7166
   8923SM  C17F12011   6.810   3.090   5.204  0.3405 -0.1945 -0.1407
   8923SM  H17F12012   6.726   3.078   5.276 -0.3207 -0.1105 -0.8774
   8923SM  H17G12013   6.802   3.197   5.177 -0.9736 -0.5654 -1.3720
   8923SM  C18F12014   6.950   3.060   5.264 -0.7436  0.1951  0.5394
   8923SM  H18F12015   7.020   3.081   5.181 -1.2616 -1.6165 -0.3957
   8923SM  H18G12016   6.957   2.950   5.274  0.3967  0.2070  0.0784
   8923SM  C19F12017   6.996   3.134   5.389 -0.5611 -0.2752 -0.5071
   8923SM  H19F12018   6.991   3.239   5.353  1.6345 -0.1447 -0.5538
   8923SM  H19G12019   7.099   3.111   5.421 -0.0108  1.8017 -0.6528
   8923SM  C20F12020   6.899   3.104   5.511 -0.0552 -0.2027  0.3110
   8923SM  H20F12021   6.902   2.994   5.518  0.2409 -0.1227  1.8973
   8923SM  H20G12022   6.799   3.147   5.489  0.1092  2.1057  3.3128
   8923SM  C21F12023   6.950   3.169   5.638 -0.1113 -0.0931 -0.1109
   8923SM  H21F12024   7.046   3.125   5.674  1.3528  2.8792 -0.0409
   8923SM  H21G12025   6.882   3.142   5.721  0.3712 -1.9205 -0.2666
   8923SM  C22F12026   6.949   3.322   5.633  0.1598  0.7061 -0.0761
   8923SM  H22F12027   6.847   3.356   5.603 -0.6691 -1.4057  0.1921
   8923SM  H22G12028   7.018   3.352   5.552 -0.1060  1.0759 -0.1719
   8923SM  C23F12029   7.002   3.394   5.758 -0.0224 -0.1748 -0.6984
   8923SM  H23F12030   7.042   3.494   5.731  1.1122 -0.7224 -1.1234
   8923SM  H23G12031   7.096   3.343   5.790  0.8918  2.0723  0.4211
   8923SM  H23H12032   6.931   3.395   5.843 -0.4218 -0.3249 -1.0247
   9023SM     N12033   7.485   2.777   2.948  0.3628  0.2336  0.0781
   9023SM   C1512034   7.550   2.912   2.932 -0.2641 -0.0402  0.0274
   9023SM  H15A12035   7.657   2.911   2.919 -0.5553 -0.5471 -3.0250
   9023SM  H15B12036   7.526   2.986   3.007  1.6681  1.5544 -0.8181
   9023SM  H15C12037   7.523   2.968   2.844  1.7524 -1.3667 -1.5121
   9023SM   C1412038   7.346   2.806   2.968  0.8034 -0.2856 -0.0667
   9023SM  H14A12039   7.306   2.848   2.877  2.0330 -1.6680 -1.3055
   9023SM  H14B12040   7.331   2.872   3.052  0.6025 -1.0452  0.5124
   9023SM  H14C12041   7.284   2.718   2.980 -3.0617  2.0528 -0.8965
   9023SM   C1312042   7.498   2.698   2.820 -0.5059 -0.1590 -0.4524
   9023SM  H13A12043   7.594   2.700   2.771 -1.1335 -0.3208 -1.7364
   9023SM  H13B12044   7.425   2.727   2.746  0.6007  0.5693 -1.2819
   9023SM  H13C12045   7.468   2.597   2.843  1.0888 -0.7576 -0.8525
   9023SM   C1212046   7.538   2.697   3.069 -0.1173 -0.8649 -0.0903
   9023SM  H12A12047   7.527   2.767   3.150  0.0110  2.6236 -2.8555
   9023SM  H12B12048   7.642   2.677   3.047 -0.6613 -0.7511 -3.1984
   9023SM   C1112049   7.474   2.561   3.111  0.5442  0.0838  0.3772
   9023SM  H11A12050   7.364   2.575   3.104  0.8905  5.1934  1.0676
   9023SM  H11B12051   7.505   2.532   3.214 -4.2856 -0.1059  2.0484
   9023SM     P12052   7.454   2.345   2.960  0.6742  0.2793  0.0835
   9023SM   O1312053   7.354   2.401   2.862  0.0052 -0.2955  0.2155
   9023SM   O1412054   7.554   2.242   2.919  0.5585  0.1141  0.0603
   9023SM   O1112055   7.369   2.284   3.081 -0.2254  0.2383  0.0899
   9023SM   O1212056   7.529   2.471   3.014 -0.3471 -0.2808  0.1337
   9023SM   C1S12057   7.421   2.244   3.205  0.0197  0.3428 -0.0337
   9023SM   H1S12058   7.447   2.330   3.270 -0.3853  1.6126 -1.4851
   9023SM   H1T12059   7.515   2.186   3.209 -0.2134 -0.0376 -0.0282
   9023SM    NF12060   7.365   2.143   3.419 -0.1230  0.4511  0.1346
   9023SM   HNF12061   7.434   2.073   3.435 -0.2681  0.0011 -1.0914
   9023SM   C2S12062   7.320   2.156   3.277  0.7594  0.3036 -0.0148
   9023SM   H2S12063   7.223   2.210   3.270 -0.1283 -1.1139  0.8852
   9023SM   C3S12064   7.290   2.023   3.203  0.2286  0.2622 -0.1256
   9023SM   H3S12065   7.383   1.968   3.179 -0.7236 -0.0258 -3.7166
   9023SM    O312066   7.238   2.048   3.067 -0.2314  0.4061 -0.2074
   9023SM   HO312067   7.249   2.144   3.063 -1.3523  0.5838  0.7511
   9023SM   C4S12068   7.195   1.943   3.286 -0.6148 -0.1498 -0.7186
   9023SM   H4S12069   7.094   1.986   3.297 -1.2738 -2.2721  3.6810
   9023SM   C5S12070   7.231   1.831   3.352  0.5220 -0.0853 -0.1264
   9023SM   H5S12071   7.338   1.807   3.354  0.5292 -0.1090  2.4099
   9023SM   C6S12072   7.143   1.742   3.436  0.3296  0.2117  0.2748
   9023SM   H6S12073   7.209   1.677   3.497 -2.7117 -3.9503 -0.4218
   9023SM   H6T12074   7.073   1.686   3.371  1.6527 -2.3782  0.9663
   9023SM   C7S12075   7.062   1.837   3.529 -0.6859 -0.2213 -0.1153
   9023SM   H7S12076   6.980   1.889   3.475 -0.6843  0.8129  0.8363
   9023SM   H7T12077   7.121   1.910   3.587 -2.9094  0.4281  1.4869
   9023SM   C8S12078   6.992   1.757   3.643  0.2979 -0.2667  0.3663
   9023SM   H8S12079   7.071   1.686   3.675  1.6107 -0.3369 -2.7343
   9023SM   H8T12080   6.910   1.688   3.613  1.0118 -1.8325  1.8697
   9023SM   C9S12081   6.927   1.847   3.746  0.3620  0.5887  0.3165
   9023SM   H9S12082   6.859   1.914   3.690 -2.3422 -1.5072  0.8690
   9023SM   H9T12083   7.015   1.895   3.794  1.2436  0.4954 -1.1410
   9023SM  C10S12084   6.839   1.766   3.850 -0.6136 -0.6144 -0.4332
   9023SM  H10S12085   6.909   1.701   3.907 -1.5884 -0.3660  1.1192
   9023SM  H10T12086   6.770   1.692   3.804 -1.4378 -0.4203  0.4436
   9023SM  C11S12087   6.757   1.860   3.936 -0.6421  0.0817  0.1023
   9023SM  H11S12088   6.688   1.913   3.867  0.0033 -1.6053 -1.9762
   9023SM  H11T12089   6.815   1.936   3.994 -0.4841  0.8514 -1.0283
   9023SM  C12S12090   6.681   1.787   4.042  0.3888  1.0841 -0.1423
   9023SM  H12S12091   6.666   1.854   4.129  0.4780  0.2102  0.5606
   9023SM  H12T12092   6.761   1.716   4.071  1.1223 -0.0348 -4.2608
   9023SM  C13S12093   6.560   1.710   3.998  0.2057 -0.0813 -0.1184
   9023SM  H13S12094   6.583   1.662   3.901  1.6238  0.2490  0.0445
   9023SM  H13T12095   6.486   1.793   3.994  0.4927  0.2350  0.7534
   9023SM  C14S12096   6.517   1.604   4.095 -0.0404 -0.1455  1.2451
   9023SM  H14S12097   6.578   1.512   4.085  2.2301  1.4464 -0.6673
   9023SM  H14T12098   6.415   1.568   4.068  0.0115  1.1238 -0.8876
   9023SM  C15S12099   6.506   1.651   4.241 -1.1161  0.2608  0.6163
   9023SM  H15S12100   6.421   1.720   4.260 -2.3692 -1.1412  0.3420
   9023SM  H15T12101   6.601   1.703   4.262 -0.6816  1.8190 -4.0350
   9023SM  C16S12102   6.486   1.534   4.343 -0.4769  0.2066  0.1489
   9023SM  H16S12103   6.494   1.565   4.450  0.6703 -0.2367  0.2090
   9023SM  H16T12104   6.577   1.471   4.338 -0.5710 -0.0044  0.9318
   9023SM  C17S12105   6.371   1.440   4.321  0.0499 -0.4170  0.0117
   9023SM  H17S12106   6.376   1.372   4.409  2.0004 -0.9076 -0.4203
   9023SM  H17T12107   6.397   1.373   4.236 -0.0824 -0.2207 -0.1858
   9023SM  C18S12108   6.240   1.507   4.289 -0.0400  0.1437  0.0102
   9023SM  H18S12109   6.245   1.568   4.196  0.4609 -0.2924 -0.2583
   9023SM  H18T12110   6.213   1.581   4.367 -3.3425 -0.1021 -0.7203
   9023SM  H18U12111   6.148   1.444   4.281  1.0519 -1.5855  0.6422
   9023SM   C1F12112   7.351   2.231   3.514 -0.0113  0.3219  0.3734
   9023SM    OF12113   7.269   2.324   3.508 -0.4929 -0.2454 -0.4009
   9023SM   C2F12114   7.446   2.217   3.625 -0.4281  0.6358 -0.6911
   9023SM   H2F12115   7.552   2.223   3.594  0.1847  0.4213  1.2285
   9023SM   H2G12116   7.428   2.118   3.674 -0.8431  0.5198 -1.0713
   9023SM   C3F12117   7.423   2.323   3.737  0.0997  0.0166  0.4560
   9023SM   H3F12118   7.316   2.317   3.765 -0.5387  1.1755 -1.5365
   9023SM   H3G12119   7.428   2.423   3.689 -2.2588  0.6034  1.2980
   9023SM   C4F12120   7.515   2.314   3.857 -0.5149 -0.2258 -0.0438
   9023SM   H4F12121   7.619   2.346   3.834 -0.4294 -0.1058  0.4999
   9023SM   H4G12122   7.521   2.207   3.886  0.9636  0.1685  1.1724
   9023SM   C5F12123   7.467   2.393   3.979 -0.0967  0.0156 -0.4123
   9023SM   H5F12124   7.357   2.386   3.977 -0.1602  0.2115  1.1795
   9023SM   H5G12125   7.491   2.501   3.970  1.9456 -0.3551 -0.0527
   9023SM   C6F12126   7.512   2.333   4.117 -0.4353 -0.0798 -0.1323
   9023SM   H6F12127   7.616   2.367   4.138  1.1204 -3.0526 -2.2120
   9023SM   H6G12128   7.514   2.224   4.097  2.0026  0.2616 -2.3321
   9023SM   C7F12129   7.426   2.364   4.238  0.6591 -0.3784  0.0194
   9023SM   H7F12130   7.414   2.475   4.238  3.2295 -0.0457 -0.1864
   9023SM   H7G12131   7.486   2.336   4.327  1.2511  2.5309  0.6660
   9023SM   C8F12132   7.280   2.303   4.241  0.5920  0.1062 -0.3146
   9023SM   H8F12133   7.288   2.193   4.245 -0.3219  0.0673  1.5456
   9023SM   H8G12134   7.232   2.336   4.147 -1.2739 -2.2832 -0.2823
   9023SM   C9F12135   7.196   2.358   4.362 -0.1731  0.1969 -0.4893
   9023SM   H9F12136   7.095   2.313   4.354  0.3040 -0.8351 -0.8780
   9023SM   H9G12137   7.193   2.469   4.353 -0.9440  0.5311  2.5267
   9023SM  C10F12138   7.251   2.321   4.502 -0.2059 -0.9455 -0.2848
   9023SM  H10F12139   7.343   2.379   4.524  0.1327 -1.6909  0.3089
   9023SM  H10G12140   7.290   2.217   4.497  0.9370 -0.5660  0.2714
   9023SM  C11F12141   7.134   2.317   4.594 -0.4588  0.0992 -0.2128
   9023SM  H11F12142   7.054   2.240   4.587  0.0159 -0.6490  1.9462
   9023SM  H11G12143   7.082   2.413   4.579  0.8218  0.8676  0.0980
   9023SM  C12F12144   7.177   2.300   4.737  0.5538 -0.5738  0.0607
   9023SM  H12F12145   7.257   2.372   4.764 -1.0316  0.2891  2.8370
   9023SM  H12G12146   7.219   2.199   4.760  1.7475  0.0311  0.6031
   9023SM  C13F12147   7.065   2.335   4.840  0.1808 -0.5988  0.4486
   9023SM  H13F12148   7.009   2.423   4.801 -0.5169 -0.7444  1.1042
   9023SM  H13G12149   7.122   2.384   4.922  1.1399  1.3565 -1.2643
   9023SM  C14F12150   6.986   2.219   4.890  0.4140 -0.2463 -0.6496
   9023SM  H14F12151   7.064   2.142   4.913 -0.3692 -1.1767 -1.0438
   9023SM  H14G12152   6.911   2.191   4.813 -0.0535  2.6995 -1.3588
   9023SM  C15F12153   6.906   2.233   5.026 -0.3268 -0.2721  0.5823
   9023SM  H15F12154   6.842   2.321   5.004  0.4338  0.0535 -0.4261
   9023SM  H15G12155   6.980   2.266   5.102  0.4864 -1.0746  0.1742
   9023SM  C16F12156   6.824   2.113   5.070 -0.2378  0.6249  0.2157
   9023SM  H16F12157   6.900   2.037   5.098 -0.1573  1.7120  3.3612
   9023SM  H16G12158   6.764   2.087   4.981 -0.2310  3.1923 -0.6327
   9023SM  C17F12159   6.735   2.131   5.192 -0.7424 -0.3709  0.1074
   9023SM  H17F12160   6.675   2.039   5.209 -0.7410 -0.6017 -1.0160
   9023SM  H17G12161   6.669   2.219   5.176 -1.8207 -1.0680  0.5971
   9023SM  C18F12162   6.818   2.155   5.325 -0.6650 -0.0924  1.1977
   9023SM  H18F12163   6.738   2.159   5.402  0.4671 -1.5360  2.5362
   9023SM  H18G12164   6.870   2.254   5.320 -2.6552  0.9464 -1.7777
   9023SM  C19F12165   6.919   2.044   5.364  0.0207  0.3244  0.4111
   9023SM  H19F12166   6.998   2.035   5.286  0.2472 -0.5189  0.7351
   9023SM  H19G12167   6.863   1.949   5.376 -2.2448  1.7413  1.8076
   9023SM  C20F12168   6.992   2.074   5.498  0.1095  0.1899 -0.0188
   9023SM  H20F12169   6.909   2.058   5.570 -0.8587 -1.5206 -1.4271
   9023SM  H20G12170   7.014   2.181   5.517  1.4284 -0.1703  0.5684
   9023SM  C21F12171   7.115   1.979   5.528  0.5467  0.3674  0.8777
   9023SM  H21F12172   7.190   2.013   5.454 -0.5950 -0.7146 -0.8672
   9023SM  H21G12173   7.096   1.871   5.508  0.3540  0.3652  1.0617
   9023SM  C22F12174   7.182   2.011   5.663  1.6202 -0.3162  0.6642
   9023SM  H22F12175   7.102   2.003   5.740  0.7691  1.1720 -0.0100
   9023SM  H22G12176   7.217   2.116   5.665 -0.2501  0.3998 -0.8287
   9023SM  C23F12177   7.296   1.922   5.688 -0.2230  0.9909  0.5547
   9023SM  H23F12178   7.342   1.935   5.788 -0.8220  0.3234  0.9205
   9023SM  H23G12179   7.376   1.923   5.610 -0.0927  0.3412  0.6733
   9023SM  H23H12180   7.267   1.816   5.700  0.0480  0.8600  0.0956
   9123SM     N12181   7.491   5.247   3.254  0.0768 -0.0875  0.6880
   9123SM   C1512182   7.561   5.254   3.387  0.1935  0.3904 -0.3646
   9123SM  H15A12183   7.579   5.155   3.427 -1.4074  0.0855 -0.3560
   9123SM  H15B12184   7.501   5.297   3.465  2.3173  1.1600  0.9376
   9123SM  H15C12185   7.656   5.305   3.392  0.8652 -0.8570  0.2005
   9123SM   C1412186   7.457   5.380   3.195  0.0673  0.6524 -0.1833
   9123SM  H14A12187   7.383   5.424   3.261 -1.8168 -2.0630 -0.3114
   9123SM  H14B12188   7.416   5.374   3.095  0.1457 -1.5275 -0.1428
   9123SM  H14C12189   7.551   5.432   3.197  1.7415 -2.1734  1.9670
   9123SM   C1312190   7.579   5.181   3.149  0.3329 -0.1122  0.1848
   9123SM  H13A12191   7.522   5.167   3.058  1.5138 -0.5905 -0.4996
   9123SM  H13B12192   7.615   5.087   3.188  2.5358  0.8048  0.5099
   9123SM  H13C12193   7.662   5.244   3.123  1.3061 -1.6019 -0.4227
   9123SM   C1212194   7.361   5.165   3.269 -0.6741  0.2365  0.1435
   9123SM  H12A12195   7.310   5.158   3.174  0.6606  0.4095 -0.6138
   9123SM  H12B12196   7.288   5.219   3.326 -1.6136 -1.1663  0.3328
   9123SM   C1112197   7.365   5.022   3.333  0.0909 -0.6538  0.1985
   9123SM  H11A12198   7.262   4.979   3.340  0.3173 -1.1052  0.9402
   9123SM  H11B12199   7.382   5.044   3.441 -0.7515  2.4319 -0.2153
   9123SM     P12200   7.423   4.830   3.165  0.3550  0.0028  0.1456
   9123SM   O1312201   7.342   4.892   3.056  0.0567  0.0604 -0.0745
   9123SM   O1412202   7.536   4.748   3.110  0.6839  0.5218  0.2933
   9123SM   O1112203   7.320   4.728   3.248  0.8519 -0.0615  0.2666
   9123SM   O1212204   7.465   4.942   3.269  0.1058 -0.0588 -0.5063
   9123SM   C1S12205   7.356   4.665   3.371  0.4120  0.1379  0.0501
   9123SM   H1S12206   7.453   4.701   3.412  0.1489  0.3569  0.4854
   9123SM   H1T12207   7.380   4.558   3.352  0.4160  0.0182  0.7022
   9123SM    NF12208   7.285   4.653   3.614  0.4826  0.0514 -0.7705
   9123SM   HNF12209   7.277   4.563   3.655  3.5483  0.0726  0.0801
   9123SM   C2S12210   7.240   4.667   3.469  0.1420 -0.2976  0.1607
   9123SM   H2S12211   7.200   4.770   3.464  1.3700  0.1925  0.0534
   9123SM   C3S12212   7.134   4.564   3.429  0.6102  0.4664  1.1340
   9123SM   H3S12213   7.167   4.459   3.420 -2.7249 -0.5172 -1.8168
   9123SM    O312214   7.090   4.575   3.298  0.3617 -0.6290  0.2497
   9123SM   HO312215   7.138   4.649   3.262  0.0280 -1.0885 -1.2193
   9123SM   C4S12216   7.023   4.569   3.520  0.6322  0.6592 -0.4207
   9123SM   H4S12217   7.017   4.486   3.593 -2.3624  0.8712 -0.3071
   9123SM   C5S12218   6.932   4.661   3.523 -0.2363  0.4633  0.0660
   9123SM   H5S12219   6.923   4.725   3.434 -1.0405  1.2881  0.7241
   9123SM   C6S12220   6.815   4.668   3.616 -0.6638 -0.2871 -0.6170
   9123SM   H6S12221   6.722   4.660   3.555 -0.5335  0.1799 -0.8750
   9123SM   H6T12222   6.814   4.765   3.670  2.9312 -1.3618  1.7282
   9123SM   C7S12223   6.811   4.562   3.727  0.2924  0.8237 -1.1731
   9123SM   H7S12224   6.895   4.580   3.799 -0.4146 -1.7223  0.4349
   9123SM   H7T12225   6.835   4.462   3.686 -1.7235 -0.6979  1.0909
   9123SM   C8S12226   6.683   4.544   3.801 -0.1922  0.7318  0.1374
   9123SM   H8S12227   6.710   4.476   3.885 -1.2697  2.4468  1.9448
   9123SM   H8T12228   6.614   4.501   3.725  1.9231 -0.0946 -1.4292
   9123SM   C9S12229   6.617   4.668   3.867 -0.3370  0.1652 -0.1344
   9123SM   H9S12230   6.590   4.746   3.792 -3.2244 -0.7325 -0.1530
   9123SM   H9T12231   6.690   4.724   3.930  0.3747  0.0285 -0.8227
   9123SM  C10S12232   6.502   4.624   3.959 -0.2681  0.4224  0.1143
   9123SM  H10S12233   6.527   4.531   4.015 -0.2212  1.6518  2.2243
   9123SM  H10T12234   6.437   4.596   3.873  0.6270 -1.3501 -0.0409
   9123SM  C11S12235   6.443   4.735   4.047  0.5638  0.6872 -0.1935
   9123SM  H11S12236   6.340   4.706   4.077  1.6542 -3.0629  0.4528
   9123SM  H11T12237   6.448   4.835   3.998  1.1838 -0.1155 -1.8331
   9123SM  C12S12238   6.522   4.739   4.176 -0.1859  0.5675  0.2740
   9123SM  H12S12239   6.621   4.779   4.148 -0.3225  1.7501  1.3960
   9123SM  H12T12240   6.544   4.635   4.209  2.8676  0.8289 -0.6698
   9123SM  C13S12241   6.469   4.841   4.268 -0.6099 -0.5730  0.4869
   9123SM  H13S12242   6.358   4.845   4.270 -0.5730  2.1363  1.6725
   9123SM  H13T12243   6.495   4.936   4.216  0.0551 -1.3657 -0.6614
   9123SM  C14S12244   6.528   4.865   4.404 -0.2612  0.4657 -0.6083
   9123SM  H14S12245   6.491   4.956   4.456  1.1773  0.6369  0.1656
   9123SM  H14T12246   6.638   4.872   4.389  0.1474 -0.2629  1.6270
   9123SM  C15S12247   6.504   4.753   4.505 -0.6488  0.0285  0.5693
   9123SM  H15S12248   6.530   4.777   4.611  0.0693  2.3216 -0.0515
   9123SM  H15T12249   6.553   4.662   4.465  0.7493  1.0512 -0.1430
   9123SM  C16S12250   6.356   4.713   4.513 -0.1807 -0.4819  0.4484
   9123SM  H16S12251   6.309   4.680   4.418  1.0127 -1.5338  0.1982
   9123SM  H16T12252   6.306   4.803   4.556  0.3798  0.4480 -0.7586
   9123SM  C17S12253   6.346   4.597   4.604 -0.1717 -0.1612  0.0383
   9123SM  H17S12254   6.394   4.633   4.697 -0.0225 -0.3277  0.0265
   9123SM  H17T12255   6.409   4.510   4.574  1.3582  0.9798 -0.1941
   9123SM  C18S12256   6.206   4.556   4.645  0.3170  0.3919 -0.6264
   9123SM  H18S12257   6.158   4.521   4.551  0.6232  0.4020 -0.7883
   9123SM  H18T12258   6.151   4.646   4.680  1.5558  0.5783  0.9480
   9123SM  H18U12259   6.215   4.481   4.727  0.1656  0.3959 -0.6051
   9123SM   C1F12260   7.363   4.747   3.673  0.6370  0.0271  0.1655
   9123SM    OF12261   7.379   4.859   3.617 -0.4257  0.3255 -0.2088
   9123SM   C2F12262   7.417   4.710   3.813  0.2247  0.0087  0.1551
   9123SM   H2F12263   7.422   4.602   3.836 -1.5108 -0.3156 -0.8245
   9123SM   H2G12264   7.342   4.758   3.880 -0.4728  1.9253 -1.8547
   9123SM   C3F12265   7.554   4.769   3.841  0.5972 -0.7318 -0.3728
   9123SM   H3F12266   7.552   4.878   3.818  1.4454 -0.5307  0.4435
   9123SM   H3G12267   7.622   4.705   3.781  0.1932 -1.9554  0.4370
   9123SM   C4F12268   7.591   4.750   3.991  0.2622 -0.6035 -0.1417
   9123SM   H4F12269   7.501   4.776   4.051 -0.5148 -0.4312 -1.3608
   9123SM   H4G12270   7.675   4.816   4.022 -1.6142  1.7641  0.1524
   9123SM   C5F12271   7.626   4.603   4.020  0.5023  0.5353  0.5759
   9123SM   H5F12272   7.722   4.586   3.967 -0.2233 -0.8109 -0.3785
   9123SM   H5G12273   7.557   4.529   3.974 -0.8041  3.1137 -1.8719
   9123SM   C6F12274   7.645   4.560   4.169 -0.8252  0.2795  0.0060
   9123SM   H6F12275   7.702   4.632   4.231  0.8828 -2.4265  1.8288
   9123SM   H6G12276   7.695   4.460   4.167  0.4479  0.8652  1.0115
   9123SM   C7F12277   7.510   4.530   4.236 -0.4098  0.2941 -0.2852
   9123SM   H7F12278   7.452   4.464   4.169  1.2700 -0.6439 -0.8673
   9123SM   H7G12279   7.464   4.629   4.259  4.7946  2.4788  2.5652
   9123SM   C8F12280   7.526   4.462   4.375 -0.0026  0.4681  0.3348
   9123SM   H8F12281   7.557   4.541   4.447 -1.2339 -0.1460  1.5911
   9123SM   H8G12282   7.611   4.391   4.377 -0.9301 -0.6619  1.0074
   9123SM   C9F12283   7.398   4.386   4.419 -0.1358 -0.4161  0.3101
   9123SM   H9F12284   7.347   4.329   4.338  1.1280  2.7341 -2.9930
   9123SM   H9G12285   7.331   4.474   4.426  0.4007 -0.0623  1.1492
   9123SM  C10F12286   7.412   4.314   4.549  0.1242 -0.7347 -0.3665
   9123SM  H10F12287   7.475   4.377   4.614 -0.2262  0.2660 -0.9710
   9123SM  H10G12288   7.476   4.228   4.522 -0.7497 -0.7703 -2.5049
   9123SM  C11F12289   7.285   4.273   4.623  0.4095  0.2018  0.8427
   9123SM  H11F12290   7.207   4.299   4.548  0.2383  0.5592  1.1382
   9123SM  H11G12291   7.269   4.324   4.721 -0.7790  0.3711  0.5783
   9123SM  C12F12292   7.274   4.122   4.625  0.2068 -0.2697  0.2923
   9123SM  H12F12293   7.361   4.079   4.677  0.9143  0.7010 -0.0581
   9123SM  H12G12294   7.269   4.098   4.516 -2.1221  3.8717 -0.7589
   9123SM  C13F12295   7.145   4.068   4.695  0.2425 -0.4637 -0.2327
   9123SM  H13F12296   7.125   3.959   4.682 -1.5830 -0.3491  1.2738
   9123SM  H13G12297   7.060   4.129   4.657  1.1710  0.2536 -1.2340
   9123SM  C14F12298   7.137   4.106   4.844 -0.5042 -0.6980 -0.1160
   9123SM  H14F12299   7.136   4.217   4.850  1.1561 -0.5576 -1.4705
   9123SM  H14G12300   7.236   4.071   4.882 -0.2545  0.2731  0.1468
   9123SM  C15F12301   7.018   4.046   4.916 -0.0602  0.4884  0.1035
   9123SM  H15F12302   7.014   3.943   4.877 -1.8873  0.5670 -0.0263
   9123SM  H15G12303   6.921   4.097   4.897  0.0716 -0.0381 -2.2893
   9123SM  C16F12304   7.032   4.051   5.068  0.2866 -0.5070  0.5212
   9123SM  H16F12305   7.018   4.157   5.098  1.4510 -0.1664 -0.0647
   9123SM  H16G12306   7.140   4.025   5.080  0.2286 -0.2024  1.8656
   9123SM  C17F12307   6.935   3.960   5.150 -0.4324 -0.1533 -0.3399
   9123SM  H17F12308   6.950   3.855   5.117 -0.8446 -0.2743 -0.1538
   9123SM  H17G12309   6.826   3.979   5.138 -0.3950 -1.1797 -2.9986
   9123SM  C18F12310   6.980   3.950   5.298 -0.5289  0.8997  0.7885
   9123SM  H18F12311   7.090   3.935   5.299 -0.6528 -0.1950  0.1681
   9123SM  H18G12312   6.930   3.869   5.355 -0.9845  0.5104 -0.1349
   9123SM  C19F12313   6.958   4.083   5.380  0.4159  0.3634  0.9322
   9123SM  H19F12314   6.862   4.079   5.435 -0.1942 -0.0897 -0.1192
   9123SM  H19G12315   6.942   4.171   5.314  1.4527  0.7636  1.1869
   9123SM  C20F12316   7.077   4.115   5.467  0.4629 -0.2470 -0.0155
   9123SM  H20F12317   7.072   4.218   5.509 -0.2966 -1.5644  3.4863
   9123SM  H20G12318   7.170   4.103   5.407 -1.0864 -4.0829 -1.9884
   9123SM  C21F12319   7.063   4.019   5.592 -0.0836  0.1872 -0.3381
   9123SM  H21F12320   7.068   3.912   5.561  2.5824 -0.0733  0.7275
   9123SM  H21G12321   6.964   4.030   5.641 -0.1501 -0.1953 -0.3864
   9123SM  C22F12322   7.182   4.035   5.690  0.2573  0.9253  0.1257
   9123SM  H22F12323   7.203   4.139   5.723  0.5021  0.9687 -0.1603
   9123SM  H22G12324   7.278   4.008   5.641  0.6633  1.9092  0.3582
   9123SM  C23F12325   7.154   3.955   5.822  0.3141 -0.2129 -0.2757
   9123SM  H23F12326   7.091   3.868   5.791  1.2316 -0.9071 -0.2378
   9123SM  H23G12327   7.086   4.015   5.886  0.6333 -0.9497  0.7727
   9123SM  H23H12328   7.244   3.914   5.872 -0.2937 -0.7642  0.3946
   9223SM     N12329   6.395   1.138   2.531 -0.4302  0.1745 -0.1715
   9223SM   C1512330   6.516   1.060   2.589 -0.2957 -0.0765 -0.1195
   9223SM  H15A12331   6.512   1.079   2.695  2.3597 -0.1062  0.0618
   9223SM  H15B12332   6.608   1.102   2.551 -0.5590  0.9009  0.2942
   9223SM  H15C12333   6.498   0.956   2.568 -2.4039  0.7024 -2.6691
   9223SM   C1412334   6.413   1.134   2.381  0.4842  0.8008 -0.7385
   9223SM  H14A12335   6.509   1.174   2.353  0.5295  1.3302  0.1276
   9223SM  H14B12336   6.340   1.196   2.330  0.1702  0.3425 -0.8549
   9223SM  H14C12337   6.402   1.039   2.332  0.1263 -0.2028  1.2117
   9223SM   C1312338   6.275   1.062   2.580  0.2278 -0.6251 -0.1006
   9223SM  H13A12339   6.281   0.962   2.542 -1.1534 -0.2065 -1.5370
   9223SM  H13B12340   6.181   1.101   2.544 -0.2012  0.3089  1.8566
   9223SM  H13C12341   6.270   1.060   2.688 -1.1095 -2.3887 -0.1559
   9223SM   C1212342   6.396   1.287   2.566  0.0362 -0.0596 -0.1109
   9223SM  H12A12343   6.323   1.337   2.504  2.1442  1.9698 -1.1332
   9223SM  H12B12344   6.492   1.334   2.550 -0.7547  1.2176 -1.3142
   9223SM   C1112345   6.362   1.313   2.721  0.3025  0.2290  0.6480
   9223SM  H11A12346   6.265   1.264   2.745  0.5829 -0.6494  0.0541
   9223SM  H11B12347   6.344   1.422   2.733  0.9064  0.3742  0.2713
   9223SM     P12348   6.592   1.347   2.834 -0.2872  0.2219 -0.0449
   9223SM   O1312349   6.714   1.267   2.808  0.1588 -0.0840 -0.0045
   9223SM   O1412350   6.583   1.483   2.771 -0.4923  0.1091  0.0501
   9223SM   O1112351   6.576   1.365   2.993 -0.1623 -0.1553  0.4796
   9223SM   O1212352   6.462   1.259   2.807 -0.1946  1.1681  0.2586
   9223SM   C1S12353   6.445   1.394   3.044  0.5405  0.0312 -0.7822
   9223SM   H1S12354   6.400   1.294   3.063  0.3699  0.1018 -0.8139
   9223SM   H1T12355   6.376   1.450   2.977 -1.8923 -1.1252  0.6221
   9223SM    NF12356   6.316   1.503   3.241  0.1295 -0.2116 -0.0936
   9223SM   HNF12357   6.300   1.599   3.262  0.7447 -0.1347  0.0448
   9223SM   C2S12358   6.438   1.484   3.172 -0.1587 -1.1244 -0.2519
   9223SM   H2S12359   6.506   1.438   3.245  1.7821 -2.7325 -2.8953
   9223SM   C3S12360   6.519   1.613   3.139  0.0779  0.9706 -0.1887
   9223SM   H3S12361   6.460   1.664   3.059 -1.2035  0.3075  0.3070
   9223SM    O312362   6.651   1.597   3.080  0.2512  0.0996 -0.6989
   9223SM   HO312363   6.674   1.505   3.071  1.6685  0.5996 -3.4413
   9223SM   C4S12364   6.535   1.710   3.257  0.0952  0.5128  0.1309
   9223SM   H4S12365   6.473   1.800   3.243 -0.5711  0.0848  0.2564
   9223SM   C5S12366   6.614   1.687   3.364 -0.7110 -0.0372  0.0261
   9223SM   H5S12367   6.655   1.589   3.392 -0.4812 -0.1439 -0.6632
   9223SM   C6S12368   6.630   1.791   3.474  0.6991 -0.4225  0.2264
   9223SM   H6S12369   6.588   1.891   3.449 -1.0158 -0.9246  0.9687
   9223SM   H6T12370   6.733   1.814   3.508  0.8348  1.1186 -1.0667
   9223SM   C7S12371   6.550   1.734   3.595  0.0087  0.1022 -0.8824
   9223SM   H7S12372   6.561   1.805   3.679  1.9434 -0.3247 -0.7384
   9223SM   H7T12373   6.603   1.644   3.634  0.9200 -0.0177 -2.3168
   9223SM   C8S12374   6.403   1.717   3.582 -0.3670 -0.8573 -0.0539
   9223SM   H8S12375   6.383   1.660   3.488 -1.1732  2.6392 -2.2079
   9223SM   H8T12376   6.352   1.816   3.579  0.6144 -0.2940  1.0357
   9223SM   C9S12377   6.333   1.639   3.694  0.3977  0.6057  0.0121
   9223SM   H9S12378   6.225   1.641   3.669  0.6026 -0.0769 -1.0090
   9223SM   H9T12379   6.346   1.696   3.788  0.3389  0.0568  0.3580
   9223SM  C10S12380   6.381   1.497   3.709 -0.2328  0.1423  0.7090
   9223SM  H10S12381   6.478   1.485   3.762  0.7044  2.1538 -0.4296
   9223SM  H10T12382   6.402   1.466   3.604 -0.7737 -1.1649  0.9705
   9223SM  C11S12383   6.277   1.407   3.772  0.8132  0.4391 -0.1702
   9223SM  H11S12384   6.182   1.419   3.716  1.7444 -0.7673 -2.1244
   9223SM  H11T12385   6.272   1.459   3.870 -1.5768  0.0540 -0.0400
   9223SM  C12S12386   6.311   1.259   3.799 -0.1984 -0.5759  0.4207
   9223SM  H12S12387   6.420   1.240   3.804  0.2640  0.7562 -2.4623
   9223SM  H12T12388   6.260   1.208   3.714  0.1734  0.1459 -0.2468
   9223SM  C13S12389   6.259   1.207   3.929 -0.2603  0.1306 -0.0283
   9223SM  H13S12390   6.294   1.278   4.007  0.2349 -0.5547  0.3819
   9223SM  H13T12391   6.302   1.106   3.942  0.5181  0.5847  1.0316
   9223SM  C14S12392   6.111   1.183   3.933  0.3951  0.1168 -0.1506
   9223SM  H14S12393   6.081   1.129   3.840  2.3170  0.1873 -0.8586
   9223SM  H14T12394   6.058   1.280   3.919  0.1357  0.1057  0.7443
   9223SM  C15S12395   6.047   1.116   4.058 -0.9301 -0.1945 -0.1754
   9223SM  H15S12396   5.941   1.087   4.044 -0.8188 -0.2352 -1.0187
   9223SM  H15T12397   6.046   1.196   4.134  0.1927  0.6944 -1.0666
   9223SM  C16S12398   6.109   0.987   4.114  0.0629 -0.6037 -0.3503
   9223SM  H16S12399   6.217   1.001   4.136 -0.1611 -0.8470  0.9883
   9223SM  H16T12400   6.105   0.907   4.038  0.9607 -0.1965 -0.8414
   9223SM  C17S12401   6.036   0.930   4.245 -0.1151 -0.9705 -0.3843
   9223SM  H17S12402   6.090   0.838   4.277  1.2344 -0.2885 -0.6579
   9223SM  H17T12403   5.926   0.916   4.230 -0.0190 -2.2190 -0.0637
   9223SM  C18S12404   6.059   1.020   4.370  0.4916  0.2329 -0.2299
   9223SM  H18S12405   6.063   1.128   4.348  0.9273  0.6744  1.8508
   9223SM  H18T12406   6.161   1.000   4.408  1.7671  1.0543 -2.9948
   9223SM  H18U12407   5.986   1.000   4.451  1.4433  2.2373  1.1892
   9223SM   C1F12408   6.243   1.405   3.287  0.3458 -0.6308  0.0235
   9223SM    OF12409   6.275   1.288   3.270  0.2511 -0.1004  0.4272
   9223SM   C2F12410   6.115   1.438   3.363  0.1385 -0.6739  0.8178
   9223SM   H2F12411   6.056   1.501   3.292  0.1034 -1.0366  0.5200
   9223SM   H2G12412   6.150   1.495   3.452  1.4645  0.6945 -0.5099
   9223SM   C3F12413   6.018   1.321   3.401  0.4814  0.5237  0.0839
   9223SM   H3F12414   6.088   1.239   3.427  1.6982  0.7209 -2.2373
   9223SM   H3G12415   5.959   1.293   3.311  0.5342  1.8743 -0.4021
   9223SM   C4F12416   5.921   1.361   3.512 -0.2807  0.8174 -0.4180
   9223SM   H4F12417   5.974   1.377   3.608  0.2320 -0.5351 -0.4578
   9223SM   H4G12418   5.851   1.277   3.533  1.7378 -1.4088 -2.0912
   9223SM   C5F12419   5.840   1.487   3.483  0.3876 -0.3652  0.2757
   9223SM   H5F12420   5.794   1.474   3.383 -0.8497  0.5768  0.7012
   9223SM   H5G12421   5.910   1.573   3.479  1.8161 -1.5333 -2.3980
   9223SM   C6F12422   5.727   1.517   3.583 -0.1821 -0.2955  0.0288
   9223SM   H6F12423   5.656   1.432   3.585  1.9518 -2.2482 -1.6097
   9223SM   H6G12424   5.670   1.607   3.552  2.5173  0.7799 -2.2298
   9223SM   C7F12425   5.771   1.549   3.732  0.6573  0.5183 -0.3832
   9223SM   H7F12426   5.847   1.472   3.757 -2.6442 -2.7043  0.5993
   9223SM   H7G12427   5.679   1.545   3.794  1.1240 -0.5486  0.2628
   9223SM   C8F12428   5.840   1.689   3.768 -0.1782 -0.0621 -0.2484
   9223SM   H8F12429   5.762   1.766   3.751 -1.6544 -1.4107  0.1388
   9223SM   H8G12430   5.932   1.701   3.707  0.1613  1.6476  0.5516
   9223SM   C9F12431   5.878   1.705   3.920  0.8257 -0.3959 -0.2057
   9223SM   H9F12432   5.785   1.676   3.972  2.1895 -1.2098  1.9157
   9223SM   H9G12433   5.916   1.805   3.950 -0.9247 -0.1554  1.3706
   9223SM  C10F12434   5.967   1.598   3.979 -0.3183 -0.2301  0.0508
   9223SM  H10F12435   6.023   1.643   4.064  0.1549  0.5960 -0.6787
   9223SM  H10G12436   6.043   1.569   3.903 -0.8664 -0.0693 -0.5662
   9223SM  C11F12437   5.897   1.472   4.037  0.0479 -0.9586 -0.2768
   9223SM  H11F12438   5.982   1.401   4.052  1.7845  0.5411 -2.4156
   9223SM  H11G12439   5.825   1.417   3.974 -1.0929 -1.6997  1.5861
   9223SM  C12F12440   5.835   1.494   4.174 -0.0355 -0.4529 -0.6885
   9223SM  H12F12441   5.738   1.548   4.171  0.1945  0.6850  4.1220
   9223SM  H12G12442   5.907   1.562   4.226 -1.0705 -0.5776  0.9823
   9223SM  C13F12443   5.822   1.364   4.247  0.3163  0.1790  0.3490
   9223SM  H13F12444   5.921   1.321   4.272  0.7603  1.1528  0.3192
   9223SM  H13G12445   5.773   1.295   4.175 -0.1380  1.1738 -0.3128
   9223SM  C14F12446   5.725   1.383   4.367 -1.0429 -0.2694 -0.3015
   9223SM  H14F12447   5.627   1.416   4.327 -0.0238  2.7697 -0.5456
   9223SM  H14G12448   5.755   1.461   4.439  1.6627 -1.3329 -0.1505
   9223SM  C15F12449   5.700   1.248   4.441 -0.0902 -0.6489  0.3844
   9223SM  H15F12450   5.786   1.208   4.499 -0.0001 -0.5327  0.3340
   9223SM  H15G12451   5.661   1.173   4.369  1.4300 -1.2852  0.1870
   9223SM  C16F12452   5.585   1.270   4.542 -0.0559  0.4648 -0.4826
   9223SM  H16F12453   5.494   1.287   4.481 -0.4890 -1.5454 -0.4709
   9223SM  H16G12454   5.601   1.355   4.611  1.0734 -0.3917  0.3602
   9223SM  C17F12455   5.549   1.144   4.628 -0.5861 -0.1517 -0.3738
   9223SM  H17F12456   5.462   1.170   4.692  0.6416 -2.0220  2.2791
   9223SM  H17G12457   5.635   1.120   4.694 -2.8367 -2.1912  2.0733
   9223SM  C18F12458   5.517   1.018   4.540  0.1246 -0.4008 -0.6140
   9223SM  H18F12459   5.605   0.997   4.475 -0.0203 -0.5483 -0.7598
   9223SM  H18G12460   5.439   1.046   4.466 -0.1888  0.3567 -0.0177
   9223SM  C19F12461   5.473   0.906   4.629  0.1349  0.7887  1.0634
   9223SM  H19F12462   5.394   0.950   4.694  1.4580  3.1343  1.2095
   9223SM  H19G12463   5.560   0.879   4.693  2.6010 -2.1957 -3.0938
   9223SM  C20F12464   5.418   0.785   4.556 -0.4833 -0.8054 -0.4611
   9223SM  H20F12465   5.346   0.820   4.480 -1.7292 -1.1942  0.5169
   9223SM  H20G12466   5.358   0.722   4.624 -1.1634  1.2682  0.9381
   9223SM  C21F12467   5.534   0.693   4.501  0.0274  0.3178 -0.1048
   9223SM  H21F12468   5.572   0.643   4.592  1.1897  0.4684 -0.4893
   9223SM  H21G12469   5.621   0.748   4.458  0.0777  0.3637  0.0555
   9223SM  C22F12470   5.487   0.583   4.404 -0.3514 -0.4651  0.3130
   9223SM  H22F12471   5.431   0.627   4.319  0.3735 -1.5866 -0.7855
   9223SM  H22G12472   5.414   0.521   4.460 -1.5638 -0.7044 -1.4511
   9223SM  C23F12473   5.597   0.492   4.347 -0.0894 -0.5915 -0.2325
   9223SM  H23F12474   5.554   0.421   4.273  2.6442 -2.1706 -0.4366
   9223SM  H23G12475   5.645   0.429   4.425  3.1829 -0.9625 -2.3776
   9223SM  H23H12476   5.677   0.542   4.290 -0.9657  0.5035 -0.5205
   9323SM     N12477   6.700   4.130   2.912  0.4770 -0.0366 -0.8023
   9323SM   C1512478   6.605   4.205   3.008 -0.6913 -0.3697 -0.3644
   9323SM  H15A12479   6.620   4.173   3.110  1.6703 -1.0915 -0.8843
   9323SM  H15B12480   6.501   4.194   2.982 -1.2365  1.5897  0.7795
   9323SM  H15C12481   6.624   4.309   2.988  2.0197 -0.3424  1.8457
   9323SM   C1412482   6.660   4.162   2.769 -0.7453 -0.0288  0.1505
   9323SM  H14A12483   6.665   4.269   2.758 -0.1693 -0.1984 -1.4833
   9323SM  H14B12484   6.569   4.122   2.726 -0.7310  0.5640 -0.4325
   9323SM  H14C12485   6.737   4.123   2.704  0.0925 -2.0880  2.2318
   9323SM   C1312486   6.844   4.165   2.932  0.0288 -0.0669  0.3405
   9323SM  H13A12487   6.850   4.259   2.985 -2.1228  1.0073 -1.2105
   9323SM  H13B12488   6.888   4.168   2.833 -0.7932 -0.3198 -0.0368
   9323SM  H13C12489   6.889   4.089   2.994  0.4447 -0.4386 -0.3934
   9323SM   C1212490   6.671   3.982   2.919  0.1066  0.1346 -0.0097
   9323SM  H12A12491   6.563   3.979   2.913  0.0434  1.0652  0.4967
   9323SM  H12B12492   6.695   3.951   3.020  0.7814 -0.9929 -0.4904
   9323SM   C1112493   6.760   3.881   2.832  0.3589  0.4496 -0.5199
   9323SM  H11A12494   6.751   3.912   2.725  1.1109 -0.9237 -0.9943
   9323SM  H11B12495   6.721   3.777   2.834  0.5828  0.3639 -0.5578
   9323SM     P12496   6.992   3.767   2.880 -0.2231  0.3374 -0.2802
   9323SM   O1312497   6.986   3.672   2.762 -0.1093  0.2363 -0.3847
   9323SM   O1412498   7.123   3.816   2.923 -0.3834 -0.1553  0.1775
   9323SM   O1112499   6.918   3.674   2.992 -0.6309 -0.0854 -0.0002
   9323SM   O1212500   6.901   3.895   2.855  0.2430 -0.4654 -0.1716
   9323SM   C1S12501   6.983   3.636   3.110  0.2365  0.6689 -0.4237
   9323SM   H1S12502   7.036   3.714   3.169 -0.4629 -0.1698  1.3892
   9323SM   H1T12503   7.041   3.546   3.080 -2.0494 -0.4801 -1.7433
   9323SM    NF12504   6.936   3.543   3.345  0.5262  0.4985  0.6565
   9323SM   HNF12505   6.940   3.444   3.356 -0.8532  0.4823  1.2413
   9323SM   C2S12506   6.874   3.581   3.211 -0.5051  0.7022 -0.4069
   9323SM   H2S12507   6.793   3.653   3.235 -0.8929  0.7432 -1.7371
   9323SM   C3S12508   6.811   3.453   3.147  0.2654  0.6270  0.4914
   9323SM   H3S12509   6.886   3.373   3.131 -1.3067 -0.4774 -2.0944
   9323SM    O312510   6.753   3.472   3.017 -0.5125 -0.0748 -0.1020
   9323SM   HO312511   6.806   3.545   2.986 -1.6683  1.2179  0.8485
   9323SM   C4S12512   6.716   3.400   3.247  0.0285  0.7916  0.6365
   9323SM   H4S12513   6.762   3.327   3.314  2.0736  1.0410 -0.4374
   9323SM   C5S12514   6.592   3.440   3.274  0.7099 -0.2842  0.1074
   9323SM   H5S12515   6.541   3.516   3.213 -1.0366 -0.8901  0.7564
   9323SM   C6S12516   6.510   3.390   3.388  1.0133 -0.1451  0.0090
   9323SM   H6S12517   6.404   3.373   3.359  1.5784 -0.5732 -1.9638
   9323SM   H6T12518   6.499   3.474   3.460 -2.3297  0.2595 -0.8025
   9323SM   C7S12519   6.549   3.260   3.468  0.5207 -0.1023 -0.1995
   9323SM   H7S12520   6.650   3.262   3.514  0.0187 -1.6830  1.0458
   9323SM   H7T12521   6.545   3.178   3.393  2.7548 -0.3827 -0.0729
   9323SM   C8S12522   6.447   3.227   3.576  0.6184  0.0566 -0.1626
   9323SM   H8S12523   6.460   3.127   3.622  0.7135  1.3665  2.8938
   9323SM   H8T12524   6.341   3.231   3.544  0.7255 -0.5085 -0.5964
   9323SM   C9S12525   6.463   3.323   3.697 -0.5378  0.4654  0.2936
   9323SM   H9S12526   6.458   3.430   3.668 -0.8535  0.1082 -1.0108
   9323SM   H9T12527   6.568   3.306   3.731 -0.9422 -1.5642  0.6215
   9323SM  C10S12528   6.353   3.294   3.813 -0.4219 -0.4959  1.0573
   9323SM  H10S12529   6.361   3.185   3.830 -2.3360 -0.8783 -0.2437
   9323SM  H10T12530   6.253   3.320   3.772 -0.1643 -0.0434  0.6974
   9323SM  C11S12531   6.385   3.390   3.930  0.0965  0.6556  0.2162
   9323SM  H11S12532   6.355   3.491   3.899  0.1828  0.4859 -0.4332
   9323SM  H11T12533   6.494   3.398   3.953 -0.4647  2.4017  2.7388
   9323SM  C12S12534   6.304   3.347   4.047  0.1051 -0.1656  0.1762
   9323SM  H12S12535   6.307   3.236   4.057  0.5991 -0.1043  0.8164
   9323SM  H12T12536   6.198   3.378   4.041  0.6369  2.4519  2.2247
   9323SM  C13S12537   6.370   3.402   4.175 -0.0428  0.0894 -0.4302
   9323SM  H13S12538   6.478   3.377   4.179 -0.2156 -0.4921  1.3110
   9323SM  H13T12539   6.327   3.345   4.260  2.1257  0.5689  1.0768
   9323SM  C14S12540   6.341   3.547   4.208  0.0483 -0.4532 -0.4743
   9323SM  H14S12541   6.236   3.578   4.228  0.5313 -0.1042  1.7957
   9323SM  H14T12542   6.377   3.609   4.123  0.2745  0.9002  0.5667
   9323SM  C15S12543   6.415   3.589   4.336  0.5970 -0.5384  0.5694
   9323SM  H15S12544   6.364   3.553   4.428 -2.1060  2.2284  0.2860
   9323SM  H15T12545   6.514   3.538   4.330 -0.0910 -1.9178  0.3779
   9323SM  C16S12546   6.434   3.742   4.347 -0.0989  0.3440  0.1357
   9323SM  H16S12547   6.469   3.793   4.254  0.3513 -0.0336  0.0945
   9323SM  H16T12548   6.521   3.762   4.414 -1.1778  1.1225  1.3554
   9323SM  C17S12549   6.313   3.824   4.401  0.8653  0.0939  0.7287
   9323SM  H17S12550   6.244   3.816   4.314  1.7907  0.7127 -0.0994
   9323SM  H17T12551   6.345   3.931   4.404  0.8135  0.3415 -2.6842
   9323SM  C18S12552   6.243   3.768   4.527  0.8133  0.4932 -0.6311
   9323SM  H18S12553   6.318   3.767   4.609  1.0867 -0.3178 -0.8810
   9323SM  H18T12554   6.198   3.670   4.499  0.8319  0.3920 -0.3105
   9323SM  H18U12555   6.156   3.828   4.559  2.8775  3.4406 -0.1753
   9323SM   C1F12556   7.002   3.624   3.428 -0.1882  0.6352  0.1250
   9323SM    OF12557   7.038   3.740   3.400  0.4483 -0.2259 -0.0790
   9323SM   C2F12558   7.031   3.567   3.560 -0.4546  0.1357 -0.4362
   9323SM   H2F12559   7.066   3.461   3.551  1.3169  0.7271 -0.8989
   9323SM   H2G12560   6.943   3.584   3.625  0.3093 -1.5508  1.1314
   9323SM   C3F12561   7.145   3.634   3.630 -0.4552  0.1409  0.2269
   9323SM   H3F12562   7.126   3.742   3.647 -0.5402 -0.0724  1.6082
   9323SM   H3G12563   7.240   3.634   3.573 -0.0055 -0.7783  0.9475
   9323SM   C4F12564   7.186   3.571   3.762  0.3533 -0.5530 -0.3223
   9323SM   H4F12565   7.218   3.467   3.739 -1.2653 -1.0563 -0.4323
   9323SM   H4G12566   7.093   3.576   3.822  1.5111 -0.1317  1.5424
   9323SM   C5F12567   7.296   3.647   3.837 -0.0678 -0.7797 -0.2564
   9323SM   H5F12568   7.301   3.752   3.802 -2.1352 -0.5323  0.0773
   9323SM   H5G12569   7.392   3.610   3.795  0.4098  0.9794 -0.8081
   9323SM   C6F12570   7.294   3.638   3.993  0.1104 -0.0899  0.8705
   9323SM   H6F12571   7.397   3.670   4.018  0.9861 -0.8130 -1.5425
   9323SM   H6G12572   7.288   3.534   4.030 -0.1570 -0.4805 -0.2407
   9323SM   C7F12573   7.178   3.711   4.063  0.3216  0.1669 -0.0887
   9323SM   H7F12574   7.084   3.661   4.030 -0.0295  0.4684  0.4334
   9323SM   H7G12575   7.177   3.819   4.038 -1.1669  0.4235  0.9466
   9323SM   C8F12576   7.167   3.689   4.209 -0.7847  0.3388 -0.5468
   9323SM   H8F12577   7.123   3.588   4.226 -0.8632  0.3784 -0.5140
   9323SM   H8G12578   7.102   3.770   4.248  0.6143  0.7227  1.0776
   9323SM   C9F12579   7.302   3.697   4.293 -0.2077 -0.5805  0.0743
   9323SM   H9F12580   7.374   3.614   4.273  0.9080  0.2248  0.6432
   9323SM   H9G12581   7.274   3.682   4.399  0.9905 -0.8492  0.3696
   9323SM  C10F12582   7.365   3.833   4.278 -1.1686  0.6128 -0.1147
   9323SM  H10F12583   7.297   3.920   4.294 -0.0442  1.6377 -0.7263
   9323SM  H10G12584   7.419   3.840   4.181 -1.9004  2.8571 -0.4263
   9323SM  C11F12585   7.470   3.855   4.387  0.3661  0.0138  0.0705
   9323SM  H11F12586   7.547   3.775   4.393  1.7366  1.3354  0.6638
   9323SM  H11G12587   7.425   3.868   4.487 -1.6240 -3.0100 -0.3000
   9323SM  C12F12588   7.548   3.985   4.358  0.6044  0.6963 -1.1176
   9323SM  H12F12589   7.604   4.015   4.449  0.4110 -2.1800  0.0408
   9323SM  H12G12590   7.474   4.067   4.347  0.4209  0.7390  0.2987
   9323SM  C13F12591   7.641   3.981   4.238  0.5121 -0.7172  0.1037
   9323SM  H13F12592   7.589   3.945   4.146  0.5569 -2.8890  0.8588
   9323SM  H13G12593   7.724   3.908   4.250  0.5224 -0.7995 -0.4429
   9323SM  C14F12594   7.697   4.123   4.212 -0.1276  0.1074  0.0378
   9323SM  H14F12595   7.609   4.191   4.212 -2.5250 -2.7477 -0.7553
   9323SM  H14G12596   7.750   4.125   4.114  1.2929 -1.7892  0.7133
   9323SM  C15F12597   7.802   4.172   4.312  0.1321  0.2285 -0.0423
   9323SM  H15F12598   7.748   4.162   4.409 -0.2972  0.4288 -0.2582
   9323SM  H15G12599   7.844   4.273   4.291 -0.5427  0.5137 -0.0429
   9323SM  C16F12600   7.916   4.073   4.325 -0.7601 -0.1258 -0.7283
   9323SM  H16F12601   7.877   3.973   4.350  0.8778  0.1675  4.0007
   9323SM  H16G12602   7.971   4.091   4.420 -0.5542 -1.2291 -0.6331
   9323SM  C17F12603   8.014   4.076   4.204  0.5589  0.2344 -0.4714
   9323SM  H17F12604   8.045   4.182   4.197  2.4964 -0.2346  0.2359
   9323SM  H17G12605   7.972   4.039   4.108 -2.5402 -0.8020  1.1224
   9323SM  C18F12606   8.139   3.996   4.245 -0.1686 -0.2047  0.6252
   9323SM  H18F12607   8.147   3.973   4.354  2.7777  0.4543  0.6294
   9323SM  H18G12608   8.230   4.055   4.224 -0.4885 -0.2016 -0.9178
   9323SM  C19F12609   8.147   3.864   4.174 -0.5601 -0.0690  0.0647
   9323SM  H19F12610   8.141   3.885   4.065  0.2229  1.5764  0.3070
   9323SM  H19G12611   8.052   3.813   4.203 -1.6633  0.9245 -1.6017
   9323SM  C20F12612   8.262   3.777   4.237  0.0537  0.6883 -0.0930
   9323SM  H20F12613   8.231   3.759   4.342 -0.5448  0.1961 -0.3511
   9323SM  H20G12614   8.354   3.839   4.247 -0.9055  1.8718  2.2408
   9323SM  C21F12615   8.280   3.651   4.168  0.3420 -0.1760 -0.1109
   9323SM  H21F12616   8.177   3.614   4.154 -0.4526  1.6593  0.5971
   9323SM  H21G12617   8.336   3.581   4.234  1.0490  0.2454 -0.2523
   9323SM  C22F12618   8.355   3.658   4.036 -0.3941 -0.3276 -0.0537
   9323SM  H22F12619   8.461   3.632   4.054 -0.9200 -2.0427  0.7659
   9323SM  H22G12620   8.353   3.765   4.004  1.4939  0.1365  1.2246
   9323SM  C23F12621   8.310   3.566   3.926  0.7037  0.4402 -0.5732
   9323SM  H23F12622   8.346   3.593   3.824  0.5579  1.8918 -0.2722
   9323SM  H23G12623   8.200   3.568   3.915  0.2404 -2.9285  2.0215
   9323SM  H23H12624   8.344   3.462   3.941 -1.4369 -0.4840 -1.7171
   9423SM     N12625   4.821   5.889   2.559 -0.4535 -0.4201 -0.1097
   9423SM   C1512626   4.930   5.997   2.557 -0.4811  0.0714  0.4638
   9423SM  H15A12627   5.005   5.981   2.481  1.0128 -0.6569  2.0223
   9423SM  H15B12628   4.985   6.000   2.650  0.7288 -3.0994 -0.0158
   9423SM  H15C12629   4.885   6.092   2.532  1.1688  0.7009 -0.2306
   9423SM   C1412630   4.720   5.912   2.673  0.4403  0.6090  0.1541
   9423SM  H14A12631   4.758   5.876   2.767 -0.8174 -0.9076  0.1290
   9423SM  H14B12632   4.631   5.854   2.652  0.0442  0.6061  1.7175
   9423SM  H14C12633   4.689   6.015   2.685  0.0266  0.5731 -0.5311
   9423SM   C1312634   4.750   5.908   2.428 -0.7093 -0.3892 -0.6050
   9423SM  H13A12635   4.657   5.855   2.418 -1.2507  0.7670 -2.2313
   9423SM  H13B12636   4.828   5.887   2.356 -0.8685  0.1481 -0.9382
   9423SM  H13C12637   4.723   6.011   2.408  1.1186  0.2669  0.0779
   9423SM   C1212638   4.881   5.749   2.559 -0.4177  0.1734 -0.3607
   9423SM  H12A12639   4.962   5.763   2.630 -2.4787  0.5991  2.0318
   9423SM  H12B12640   4.931   5.731   2.465  0.1352  0.6604 -0.1691
   9423SM   C1112641   4.794   5.623   2.588 -0.2000 -0.1039 -0.2193
   9423SM  H11A12642   4.848   5.531   2.558 -0.6394  0.6837 -3.9316
   9423SM  H11B12643   4.704   5.638   2.524 -0.4830 -2.1547 -0.3721
   9423SM     P12644   4.620   5.568   2.769  0.1369  0.2044  0.1594
   9423SM   O1312645   4.538   5.688   2.797  0.4354  0.1535  0.0806
   9423SM   O1412646   4.560   5.480   2.671  0.2801 -0.1486 -0.2839
   9423SM   O1112647   4.645   5.487   2.901  0.3414 -0.8211 -0.0099
   9423SM   O1212648   4.763   5.606   2.724 -0.3767  0.6512 -0.7501
   9423SM   C1S12649   4.728   5.545   3.008  0.7256  0.0846  1.1122
   9423SM   H1S12650   4.755   5.650   2.987  1.0638 -0.5893 -2.6065
   9423SM   H1T12651   4.818   5.479   3.005  0.3544 -0.9356 -6.2540
   9423SM    NF12652   4.733   5.613   3.248  1.0316  0.0885 -0.8771
   9423SM   HNF12653   4.813   5.571   3.290  0.4288  0.8788  1.1904
   9423SM   C2S12654   4.661   5.532   3.141  0.9053  0.2519  0.0878
   9423SM   H2S12655   4.557   5.569   3.124  0.7699  0.3787  1.0909
   9423SM   C3S12656   4.641   5.382   3.172 -0.0048 -0.0113  0.6830
   9423SM   H3S12657   4.738   5.329   3.163 -1.1929 -2.8882  3.1846
   9423SM    O312658   4.566   5.310   3.075 -0.4605 -0.4522  0.0786
   9423SM   HO312659   4.563   5.372   3.002 -0.7340  1.4795  1.6350
   9423SM   C4S12660   4.584   5.371   3.314  0.1620  0.1474 -0.0262
   9423SM   H4S12661   4.652   5.338   3.394  1.4211 -1.3282 -1.6174
   9423SM   C5S12662   4.460   5.416   3.347  0.2538  0.2231  0.2340
   9423SM   H5S12663   4.401   5.467   3.269 -1.8062 -1.8698  0.3207
   9423SM   C6S12664   4.412   5.413   3.487 -0.0437  0.3511  0.1858
   9423SM   H6S12665   4.473   5.343   3.548  0.1414  1.2641  1.0778
   9423SM   H6T12666   4.312   5.364   3.492  0.6389 -1.2820 -1.2571
   9423SM   C7S12667   4.408   5.545   3.557 -0.6047 -0.1075 -0.4517
   9423SM   H7S12668   4.355   5.625   3.501  1.2368  2.8978  1.7869
   9423SM   H7T12669   4.507   5.595   3.570 -1.7844  2.2320 -0.0743
   9423SM   C8S12670   4.350   5.536   3.695 -0.2081  0.2167 -0.4503
   9423SM   H8S12671   4.401   5.461   3.758 -0.0696  1.5464  1.0882
   9423SM   H8T12672   4.244   5.505   3.684  0.4699 -1.6083 -2.6550
   9423SM   C9S12673   4.358   5.669   3.768  0.0843  0.5811  0.5233
   9423SM   H9S12674   4.304   5.744   3.707  1.1164  2.8462  2.2373
   9423SM   H9T12675   4.463   5.704   3.782  0.1762  0.3687  0.3683
   9423SM  C10S12676   4.291   5.658   3.905  0.2597  0.3762  0.1929
   9423SM  H10S12677   4.360   5.585   3.952  1.9158  0.5423 -1.8499
   9423SM  H10T12678   4.182   5.636   3.910  0.2844 -0.0802 -1.0338
   9423SM  C11S12679   4.313   5.784   3.989 -0.2673 -0.2351  0.1671
   9423SM  H11S12680   4.277   5.874   3.935  3.0536  2.3159  1.8251
   9423SM  H11T12681   4.424   5.795   3.993 -0.3967  0.6794  1.4175
   9423SM  C12S12682   4.256   5.760   4.124 -0.1048 -0.0021 -0.1972
   9423SM  H12S12683   4.323   5.820   4.190  0.6977 -0.4168 -0.6257
   9423SM  H12T12684   4.272   5.656   4.161  0.9749  0.8817  2.0549
   9423SM  C13S12685   4.107   5.804   4.149 -0.3672  0.3553 -0.4256
   9423SM  H13S12686   4.040   5.755   4.074  0.4809  1.6294 -2.0807
   9423SM  H13T12687   4.100   5.915   4.150  1.1422  0.6126 -3.9127
   9423SM  C14S12688   4.050   5.756   4.286 -0.1509  0.3527  0.8730
   9423SM  H14S12689   4.061   5.647   4.301  0.1945  0.1210 -0.8705
   9423SM  H14T12690   3.941   5.775   4.291  0.2729  2.7672  4.1266
   9423SM  C15S12691   4.106   5.822   4.414 -0.4101 -0.3784  0.0678
   9423SM  H15S12692   4.134   5.926   4.388 -1.3534 -0.5312 -1.7596
   9423SM  H15T12693   4.195   5.774   4.459 -0.3886 -0.2976  0.1105
   9423SM  C16S12694   4.003   5.842   4.530 -0.1240 -0.3003 -0.1017
   9423SM  H16S12695   3.983   5.748   4.585 -1.2230  0.9409  1.7088
   9423SM  H16T12696   3.906   5.882   4.493 -0.1036 -0.7189 -0.6228
   9423SM  C17S12697   4.059   5.947   4.622 -0.8522 -0.9032  0.0379
   9423SM  H17S12698   4.056   6.046   4.571 -1.8916 -1.1289 -0.3505
   9423SM  H17T12699   4.162   5.928   4.658 -0.7052  2.9418  2.1926
   9423SM  C18S12700   3.979   5.964   4.751  0.3574 -0.4736 -0.6917
   9423SM  H18S12701   3.975   5.871   4.811 -0.8056  0.1765  0.2816
   9423SM  H18T12702   3.877   6.001   4.731  0.0905 -0.9735 -0.2685
   9423SM  H18U12703   4.028   6.038   4.818  1.9030 -1.2774 -0.8825
   9423SM   C1F12704   4.703   5.741   3.274 -0.3026  0.2110 -0.3169
   9423SM    OF12705   4.612   5.794   3.216  0.2418 -0.2423  0.3151
   9423SM   C2F12706   4.804   5.818   3.363  0.4949  0.1179  0.2713
   9423SM   H2F12707   4.902   5.812   3.311  0.0294 -0.0402 -0.6104
   9423SM   H2G12708   4.808   5.779   3.467  1.0530  0.6307  0.4473
   9423SM   C3F12709   4.769   5.970   3.367  0.5964 -0.1546 -0.3474
   9423SM   H3F12710   4.738   6.000   3.264  2.1486  0.9102 -0.5434
   9423SM   H3G12711   4.859   6.034   3.381 -0.0889  0.7386  0.1253
   9423SM   C4F12712   4.667   6.011   3.473 -0.4126  0.0190  0.4425
   9423SM   H4F12713   4.574   5.951   3.473 -0.1692 -0.3599  0.7213
   9423SM   H4G12714   4.631   6.113   3.448  0.7682  0.9756  2.3438
   9423SM   C5F12715   4.730   6.036   3.610  0.4684  0.1282 -0.6049
   9423SM   H5F12716   4.815   6.106   3.606 -0.4686  1.3113 -0.3914
   9423SM   H5G12717   4.778   5.942   3.643  2.3917  0.1455 -3.0553
   9423SM   C6F12718   4.620   6.062   3.713 -0.0740  0.4036  1.3208
   9423SM   H6F12719   4.526   6.006   3.692  0.9966 -1.9308  2.3287
   9423SM   H6G12720   4.604   6.171   3.703  1.5506  0.5743  0.2287
   9423SM   C7F12721   4.669   6.033   3.859  0.2634 -0.2654 -0.0346
   9423SM   H7F12722   4.760   5.969   3.856  0.3123 -0.2019  0.0627
   9423SM   H7G12723   4.584   5.985   3.911 -0.4056  0.3649 -0.5162
   9423SM   C8F12724   4.695   6.168   3.937 -0.0369  0.7156 -0.6586
   9423SM   H8F12725   4.602   6.228   3.923 -1.8539 -1.7449  0.1154
   9423SM   H8G12726   4.780   6.220   3.888  0.2756  1.5229  0.7088
   9423SM   C9F12727   4.726   6.143   4.085  0.0379 -0.2119 -0.4145
   9423SM   H9F12728   4.647   6.097   4.147  1.9837 -1.8449  0.9811
   9423SM   H9G12729   4.757   6.236   4.138  1.4446 -0.9247  0.0481
   9423SM  C10F12730   4.841   6.040   4.107 -0.1584 -0.2159 -0.4709
   9423SM  H10F12731   4.932   6.081   4.058  0.1173  0.3425  0.4747
   9423SM  H10G12732   4.798   5.946   4.066 -3.5233 -0.5858  3.2219
   9423SM  C11F12733   4.864   6.017   4.257  0.4550 -0.0683 -0.6165
   9423SM  H11F12734   4.913   5.918   4.266 -1.4111 -1.0616 -0.9232
   9423SM  H11G12735   4.765   6.008   4.306  1.6352 -0.4353  1.8311
   9423SM  C12F12736   4.949   6.121   4.332  0.3322  0.4001 -0.3484
   9423SM  H12F12737   4.914   6.223   4.307 -0.6304  0.2921  0.4996
   9423SM  H12G12738   5.059   6.118   4.317  0.7533  1.8185  1.9943
   9423SM  C13F12739   4.940   6.109   4.489  0.6145 -0.4328  0.5015
   9423SM  H13F12740   4.996   6.020   4.523 -0.1186 -1.1390 -0.0892
   9423SM  H13G12741   4.836   6.077   4.510  1.1155 -3.1271 -0.7733
   9423SM  C14F12742   4.979   6.246   4.558  0.1864 -0.1553  0.2417
   9423SM  H14F12743   4.908   6.327   4.530 -0.8026 -0.9603  0.3541
   9423SM  H14G12744   5.086   6.266   4.537 -0.0658 -0.1883 -1.2063
   9423SM  C15F12745   4.978   6.242   4.722 -0.3485  0.8920  0.3061
   9423SM  H15F12746   5.014   6.345   4.737 -1.8766  2.0894 -3.1156
   9423SM  H15G12747   5.046   6.159   4.751 -1.0405 -0.0290 -0.6087
   9423SM  C16F12748   4.839   6.225   4.790 -0.1109  0.3168  0.4957
   9423SM  H16F12749   4.803   6.123   4.768 -3.0410  1.4806 -0.5237
   9423SM  H16G12750   4.764   6.290   4.742  0.9662  2.2599  1.3139
   9423SM  C17F12751   4.836   6.259   4.933  0.1227  0.9544  0.2616
   9423SM  H17F12752   4.906   6.192   4.988 -0.3856  1.4428  1.5401
   9423SM  H17G12753   4.730   6.244   4.964 -0.0854 -0.5978 -1.0551
   9423SM  C18F12754   4.874   6.401   4.971 -0.2285  0.0365  0.0631
   9423SM  H18F12755   4.851   6.463   4.881 -1.4483  0.3787  0.5816
   9423SM  H18G12756   4.979   6.408   5.004 -0.8190 -0.1171  2.1176
   9423SM  C19F12757   4.795   6.443   5.099  0.0830  0.1812  0.3143
   9423SM  H19F12758   4.833   6.390   5.189  0.2969 -0.2110 -0.0052
   9423SM  H19G12759   4.685   6.428   5.085  0.2911 -1.1472 -0.0205
   9423SM  C20F12760   4.809   6.596   5.113  0.6136 -1.0105 -0.6341
   9423SM  H20F12761   4.757   6.638   5.025 -0.4031 -0.4797  0.2004
   9423SM  H20G12762   4.912   6.638   5.118  0.2061  0.1687 -1.5669
   9423SM  C21F12763   4.754   6.644   5.252  0.0204 -0.4008 -0.1435
   9423SM  H21F12764   4.647   6.613   5.259  0.8416 -3.4544  0.1155
   9423SM  H21G12765   4.761   6.755   5.246 -0.4241 -0.4479 -2.3054
   9423SM  C22F12766   4.820   6.597   5.376  0.9493  0.3666 -0.1691
   9423SM  H22F12767   4.919   6.550   5.357  0.2813 -1.7799  1.1635
   9423SM  H22G12768   4.761   6.508   5.407  2.8038 -1.1199 -0.6982
   9423SM  C23F12769   4.819   6.690   5.497 -0.3007 -0.4292 -0.2019
   9423SM  H23F12770   4.871   6.660   5.590  0.0514  2.2588  0.5620
   9423SM  H23G12771   4.713   6.704   5.529 -0.1143  0.0799  0.1994
   9423SM  H23H12772   4.859   6.792   5.473 -0.6768  0.1628  1.5702
   9523SM     N12773   1.530   1.720   2.767 -0.1437  0.3759  0.0317
   9523SM   C1512774   1.409   1.750   2.687  0.6236 -0.5308  0.3707
   9523SM  H15A12775   1.438   1.722   2.586 -2.4957 -0.7211 -0.5730
   9523SM  H15B12776   1.388   1.856   2.679  2.2525 -0.3236 -2.5666
   9523SM  H15C12777   1.319   1.694   2.704  0.1994 -0.3962 -1.2264
   9523SM   C1412778   1.500   1.757   2.907  0.0119 -0.1250  0.0716
   9523SM  H14A12779   1.472   1.860   2.924 -0.0230 -0.1860  0.3986
   9523SM  H14B12780   1.593   1.742   2.960  0.2072 -0.6737 -0.4194
   9523SM  H14C12781   1.430   1.687   2.950 -0.3158  0.9899  1.4208
   9523SM   C1312782   1.564   1.579   2.759 -0.0598 -0.2677 -0.4646
   9523SM  H13A12783   1.486   1.522   2.807 -0.7910  0.8221 -0.3229
   9523SM  H13B12784   1.659   1.571   2.810 -0.9130  1.0983  1.4717
   9523SM  H13C12785   1.573   1.539   2.658  0.5493 -2.0040  0.2390
   9523SM   C1212786   1.641   1.803   2.710  0.5416 -0.0306  0.3961
   9523SM  H12A12787   1.614   1.908   2.705  1.5260  0.2575  0.7023
   9523SM  H12B12788   1.667   1.766   2.612  0.6584 -2.2915  1.2259
   9523SM   C1112789   1.775   1.823   2.799 -0.2768 -0.0168  0.5822
   9523SM  H11A12790   1.856   1.871   2.742 -2.0370  1.6372 -0.6578
   9523SM  H11B12791   1.817   1.723   2.821  1.1654  0.0288 -1.7408
   9523SM     P12792   1.768   2.042   2.932  0.0596  0.6144 -0.1591
   9523SM   O1312793   1.905   2.081   2.880  0.2514 -0.1383  1.0186
   9523SM   O1412794   1.651   2.107   2.873 -0.4912 -0.1989 -0.0505
   9523SM   O1112795   1.756   2.064   3.087 -0.2420 -0.4031 -0.0384
   9523SM   O1212796   1.745   1.889   2.916 -0.4053 -0.2917 -0.4739
   9523SM   C1S12797   1.682   1.985   3.173  0.2134  0.3724 -0.2785
   9523SM   H1S12798   1.749   1.899   3.192 -1.3789 -1.3424 -1.8939
   9523SM   H1T12799   1.586   1.948   3.131 -1.3257  2.4179  1.2750
   9523SM    NF12800   1.612   1.970   3.415 -0.0949  0.6471  0.0684
   9523SM   HNF12801   1.517   1.952   3.439 -0.0385 -1.0810 -0.8411
   9523SM   C2S12802   1.648   2.063   3.305  0.2884 -0.0268 -0.6538
   9523SM   H2S12803   1.739   2.121   3.332 -0.4828 -0.4359  3.4152
   9523SM   C3S12804   1.536   2.167   3.292 -0.4559 -0.6317 -0.6493
   9523SM   H3S12805   1.441   2.112   3.281  0.0623 -1.7749  0.3625
   9523SM    O312806   1.531   2.245   3.170 -0.4093  0.0563  0.1419
   9523SM   HO312807   1.589   2.204   3.106 -2.2288  1.6617 -2.7765
   9523SM   C4S12808   1.524   2.251   3.427  0.3236  0.4725 -0.0474
   9523SM   H4S12809   1.482   2.197   3.513 -0.8855  1.0966 -0.2280
   9523SM   C5S12810   1.556   2.382   3.443 -0.0919  0.9776  0.0892
   9523SM   H5S12811   1.597   2.439   3.358  1.1086 -2.4970 -1.8305
   9523SM   C6S12812   1.551   2.443   3.579 -0.0382  0.3055  0.0714
   9523SM   H6S12813   1.494   2.537   3.568 -1.6835 -0.8490 -1.9703
   9523SM   H6T12814   1.651   2.486   3.600 -0.3106  1.7807 -1.4403
   9523SM   C7S12815   1.511   2.370   3.710  0.4158  0.3801  0.7952
   9523SM   H7S12816   1.568   2.274   3.712 -1.6176 -0.9210  0.3131
   9523SM   H7T12817   1.404   2.343   3.697  0.4134  1.3570 -1.7971
   9523SM   C8S12818   1.514   2.449   3.834 -0.1153 -0.1297 -0.0709
   9523SM   H8S12819   1.454   2.542   3.826 -0.1942 -0.2247 -0.6279
   9523SM   H8T12820   1.618   2.482   3.847 -0.6947  1.9898 -0.4992
   9523SM   C9S12821   1.469   2.367   3.956 -0.0820  0.2924  0.2115
   9523SM   H9S12822   1.523   2.270   3.952  1.4337  1.1323 -0.5980
   9523SM   H9T12823   1.362   2.343   3.942  0.6370 -1.6804 -2.9276
   9523SM  C10S12824   1.510   2.439   4.080  0.6441 -0.0692 -0.3060
   9523SM  H10S12825   1.498   2.546   4.052 -0.4112  0.1976  1.0600
   9523SM  H10T12826   1.618   2.422   4.097  0.7941 -0.4790 -1.5304
   9523SM  C11S12827   1.441   2.416   4.209 -0.3109  0.1174 -0.5006
   9523SM  H11S12828   1.451   2.315   4.254 -2.6647  0.7764  1.7182
   9523SM  H11T12829   1.332   2.430   4.190 -0.7569 -2.1309  0.1519
   9523SM  C12S12830   1.481   2.524   4.314  0.0494  0.0594 -0.1003
   9523SM  H12S12831   1.483   2.629   4.276  1.0667  2.0121  4.6164
   9523SM  H12T12832   1.587   2.507   4.343  0.3453  1.9365  0.1033
   9523SM  C13S12833   1.388   2.511   4.439  0.0533  0.2157  0.7570
   9523SM  H13S12834   1.378   2.403   4.465  0.5519 -0.3653 -1.1997
   9523SM  H13T12835   1.290   2.551   4.407  0.9574  0.8509 -1.4500
   9523SM  C14S12836   1.423   2.590   4.559  0.0869  0.5719  0.3006
   9523SM  H14S12837   1.350   2.571   4.640  1.1641 -2.7338  0.6485
   9523SM  H14T12838   1.417   2.699   4.536 -1.2341  0.6621  0.9686
   9523SM  C15S12839   1.570   2.562   4.611  0.5694  0.3428  0.2022
   9523SM  H15S12840   1.590   2.614   4.707 -0.5880  0.8066  0.2093
   9523SM  H15T12841   1.646   2.602   4.539 -1.0427  0.7432 -1.3442
   9523SM  C16S12842   1.610   2.412   4.629 -0.1658 -0.4436 -0.0521
   9523SM  H16S12843   1.605   2.361   4.530  0.1474 -0.1186 -0.2388
   9523SM  H16T12844   1.540   2.370   4.705  0.5982 -1.3993  0.1486
   9523SM  C17S12845   1.751   2.389   4.683  0.3418 -0.4069 -0.1311
   9523SM  H17S12846   1.779   2.476   4.746 -1.5340 -0.4464  0.8090
   9523SM  H17T12847   1.818   2.391   4.594 -0.6375 -1.8701 -0.9436
   9523SM  C18S12848   1.777   2.254   4.755 -0.5996 -0.4292 -0.7032
   9523SM  H18S12849   1.743   2.245   4.860 -0.6547 -1.2505 -0.7852
   9523SM  H18T12850   1.884   2.237   4.780 -0.9914 -0.2246  1.2892
   9523SM  H18U12851   1.738   2.164   4.704 -1.1289 -1.6358  1.6896
   9523SM   C1F12852   1.704   1.891   3.473  0.5547  0.3377  0.3222
   9523SM    OF12853   1.825   1.897   3.456  0.1341  0.2899 -0.2329
   9523SM   C2F12854   1.658   1.770   3.553 -0.4198 -0.0322  0.0027
   9523SM   H2F12855   1.735   1.690   3.549 -1.7645 -1.3758  0.2448
   9523SM   H2G12856   1.558   1.737   3.518 -1.0780  1.8112  0.0622
   9523SM   C3F12857   1.656   1.828   3.693  1.0695  0.0469 -0.3805
   9523SM   H3F12858   1.747   1.886   3.718  0.2574  0.8098  0.9353
   9523SM   H3G12859   1.655   1.742   3.762 -0.3844  0.4180  0.1072
   9523SM   C4F12860   1.529   1.916   3.735  0.7626 -0.1143 -0.8338
   9523SM   H4F12861   1.437   1.869   3.695  0.6950 -0.5802 -0.1493
   9523SM   H4G12862   1.548   2.016   3.690 -0.6372  0.1830 -0.8110
   9523SM   C5F12863   1.527   1.929   3.897 -0.3372  0.2269 -0.6677
   9523SM   H5F12864   1.491   1.833   3.941  0.3147  0.8040  1.2338
   9523SM   H5G12865   1.443   1.999   3.911 -1.1275 -0.8202 -0.0116
   9523SM   C6F12866   1.652   1.987   3.966 -0.4072  0.2904  0.1651
   9523SM   H6F12867   1.670   2.089   3.925 -1.5477  0.6556  0.5423
   9523SM   H6G12868   1.741   1.923   3.951  0.1533  1.3661 -1.3699
   9523SM   C7F12869   1.626   2.008   4.111  0.3662  0.0256 -0.0911
   9523SM   H7F12870   1.582   1.923   4.167  1.2460  0.1472  0.8183
   9523SM   H7G12871   1.554   2.091   4.126 -1.5717 -1.6340  0.1600
   9523SM   C8F12872   1.745   2.058   4.194 -0.4323 -0.4734 -0.2497
   9523SM   H8F12873   1.712   2.075   4.299  1.3062 -0.5815  0.3442
   9523SM   H8G12874   1.781   2.159   4.164 -1.6854 -0.0641 -0.4343
   9523SM   C9F12875   1.870   1.966   4.223 -0.0569  0.1674  0.1748
   9523SM   H9F12876   1.933   1.964   4.132  1.3977 -1.2130  1.1559
   9523SM   H9G12877   1.854   1.859   4.245  1.5899  0.1010  1.2454
   9523SM  C10F12878   1.943   2.019   4.352  0.2284  0.2168 -0.0298
   9523SM  H10F12879   1.874   2.019   4.439 -1.0140  1.9490 -0.9631
   9523SM  H10G12880   1.955   2.128   4.333 -0.0128  0.0211 -1.3624
   9523SM  C11F12881   2.075   1.950   4.386  0.8446  0.3305  0.5244
   9523SM  H11F12882   2.140   1.942   4.296  0.1141 -0.3580  0.0412
   9523SM  H11G12883   2.062   1.847   4.427 -0.5496 -0.2668 -1.2843
   9523SM  C12F12884   2.157   2.029   4.494  0.1487  0.0144  0.2747
   9523SM  H12F12885   2.100   2.124   4.506 -0.2925  0.0112 -1.4304
   9523SM  H12G12886   2.255   2.059   4.451 -0.1219 -0.4310 -0.6945
   9523SM  C13F12887   2.152   1.969   4.631 -0.3688 -0.4893 -0.6990
   9523SM  H13F12888   2.194   1.867   4.637 -0.1756 -0.3960 -0.4379
   9523SM  H13G12889   2.044   1.952   4.651  0.3487 -3.0716  1.4766
   9523SM  C14F12890   2.211   2.058   4.742  0.2547  1.0395 -0.0771
   9523SM  H14F12891   2.155   2.153   4.746 -0.3999  0.7037 -0.9695
   9523SM  H14G12892   2.316   2.091   4.728  0.4831  0.1962 -0.4190
   9523SM  C15F12893   2.207   1.987   4.880  0.8662 -0.1448 -0.1416
   9523SM  H15F12894   2.104   1.947   4.897  0.6564  0.2530 -0.4714
   9523SM  H15G12895   2.224   2.067   4.955 -0.8440  0.6830 -0.5868
   9523SM  C16F12896   2.311   1.878   4.908 -0.2550 -0.2398  0.0381
   9523SM  H16F12897   2.412   1.924   4.912  0.4243 -1.5868 -0.8890
   9523SM  H16G12898   2.307   1.808   4.821 -0.4759 -1.0977  0.7234
   9523SM  C17F12899   2.295   1.796   5.037  0.5226 -1.0514 -0.3317
   9523SM  H17F12900   2.189   1.763   5.036  0.2161 -0.1738 -2.7199
   9523SM  H17G12901   2.323   1.864   5.120  0.5864 -0.1811 -1.0430
   9523SM  C18F12902   2.387   1.680   5.045 -0.4929  0.4442  0.1742
   9523SM  H18F12903   2.483   1.711   4.999  0.2738  1.0006  2.0741
   9523SM  H18G12904   2.340   1.599   4.985 -0.4987 -0.3922  1.2898
   9523SM  C19F12905   2.406   1.622   5.185  0.0150 -0.0060  0.6572
   9523SM  H19F12906   2.307   1.595   5.228 -2.1358  3.6919 -1.3908
   9523SM  H19G12907   2.439   1.706   5.250 -1.0678  1.4639 -0.5926
   9523SM  C20F12908   2.511   1.513   5.181  0.2353 -0.3839  0.5520
   9523SM  H20F12909   2.611   1.559   5.162  0.3536 -0.3482  1.2256
   9523SM  H20G12910   2.487   1.426   5.116 -0.0079 -1.2328  1.7583
   9523SM  C21F12911   2.522   1.457   5.326  0.2062 -0.2377 -0.2657
   9523SM  H21F12912   2.443   1.380   5.341 -0.4909  0.2554 -1.2369
   9523SM  H21G12913   2.505   1.538   5.400 -1.0524  0.1260 -0.9144
   9523SM  C22F12914   2.650   1.379   5.354 -0.2884 -0.1893 -0.5319
   9523SM  H22F12915   2.658   1.362   5.464 -0.8215  1.1069 -0.2754
   9523SM  H22G12916   2.737   1.446   5.337 -1.2015  1.3768  0.6330
   9523SM  C23F12917   2.655   1.255   5.274 -0.0010 -0.2874 -0.8802
   9523SM  H23F12918   2.757   1.211   5.279  0.5926  0.5554 -3.7466
   9523SM  H23G12919   2.624   1.284   5.172  0.4391  0.3593 -0.8333
   9523SM  H23H12920   2.574   1.182   5.297 -3.8306  3.2449 -1.9212
   9623SM     N12921   2.879   6.332   3.112 -0.2820  0.1188  0.3229
   9623SM   C1512922   2.990   6.242   3.064 -1.1068  0.8115 -0.5287
   9623SM  H15A12923   3.049   6.280   2.982  1.6287 -1.3526  0.2801
   9623SM  H15B12924   2.956   6.146   3.027  1.2022  0.6109 -2.3337
   9623SM  H15C12925   3.066   6.229   3.139  0.0171 -0.1846 -1.7980
   9623SM   C1412926   2.800   6.375   2.996  0.2533  0.3417 -0.2539
   9623SM  H14A12927   2.721   6.443   3.022  0.3306 -0.9679  4.2883
   9623SM  H14B12928   2.757   6.292   2.943 -0.2859 -1.2717  2.5221
   9623SM  H14C12929   2.866   6.427   2.927 -0.8033 -0.5881 -2.0371
   9623SM   C1312930   2.787   6.258   3.206  0.1341 -0.5149  0.0009
   9623SM  H13A12931   2.833   6.253   3.303 -0.7341 -2.2497  0.3608
   9623SM  H13B12932   2.767   6.164   3.156 -1.1952 -0.6270  0.7065
   9623SM  H13C12933   2.702   6.324   3.218  0.3426 -0.4525  1.2331
   9623SM   C1212934   2.917   6.463   3.177  0.5062 -0.1384 -1.0315
   9623SM  H12A12935   2.829   6.518   3.208  0.4913  0.3573 -1.9127
   9623SM  H12B12936   2.960   6.533   3.107  2.0165 -0.7510 -0.7577
   9623SM   C1112937   3.007   6.453   3.305 -0.4817 -0.1148  0.1603
   9623SM  H11A12938   2.963   6.378   3.375  2.8744 -2.2857  0.1418
   9623SM  H11B12939   3.007   6.553   3.354 -0.9862 -0.3947  0.7510
   9623SM     P12940   3.248   6.492   3.207 -0.4703  0.0393  0.5135
   9623SM   O1312941   3.356   6.403   3.168  0.5878  0.6085 -0.2110
   9623SM   O1412942   3.169   6.562   3.101 -0.4175 -0.4499 -0.9081
   9623SM   O1112943   3.308   6.594   3.309  0.2978  0.6679 -0.3727
   9623SM   O1212944   3.143   6.404   3.284  0.4472 -0.5416  0.2129
   9623SM   C1S12945   3.322   6.552   3.449  0.0733 -0.5805  0.4221
   9623SM   H1S12946   3.396   6.470   3.464 -0.3520 -0.8032  1.3898
   9623SM   H1T12947   3.224   6.520   3.492 -0.0553  0.4786  0.9682
   9623SM    NF12948   3.370   6.607   3.689  0.1114  0.2832 -0.0276
   9623SM   HNF12949   3.299   6.633   3.754  0.1832 -1.6505  0.8989
   9623SM   C2S12950   3.361   6.663   3.552  0.4532 -0.0571  0.0786
   9623SM   H2S12951   3.460   6.707   3.525  1.1525 -1.2575  0.6066
   9623SM   C3S12952   3.251   6.780   3.543  0.6518 -0.3663  0.6327
   9623SM   H3S12953   3.151   6.738   3.566  0.2415  1.1422  1.7307
   9623SM    O312954   3.239   6.828   3.408 -0.0565 -0.0468  0.2376
   9623SM   HO312955   3.282   6.755   3.362  1.9570 -0.4269  2.5120
   9623SM   C4S12956   3.290   6.895   3.632 -0.4838 -0.3180 -0.1924
   9623SM   H4S12957   3.388   6.941   3.615 -1.0301  0.6494 -0.8077
   9623SM   C5S12958   3.211   6.949   3.726  0.6678  0.1812  0.6673
   9623SM   H5S12959   3.102   6.930   3.728  0.8644 -1.1030 -0.2369
   9623SM   C6S12960   3.260   7.043   3.839 -0.1386 -0.2415  0.0920
   9623SM   H6S12961   3.371   7.050   3.836 -0.2072  0.7362 -1.0511
   9623SM   H6T12962   3.226   6.994   3.932 -3.3027 -0.7199 -1.1669
   9623SM   C7S12963   3.194   7.182   3.831 -0.2582  0.2430  0.2193
   9623SM   H7S12964   3.083   7.179   3.825 -0.2575  1.7653 -3.2245
   9623SM   H7T12965   3.235   7.236   3.743 -0.0637 -1.9752 -1.1521
   9623SM   C8S12966   3.222   7.263   3.959  0.2769  0.0641  0.6065
   9623SM   H8S12967   3.208   7.369   3.928  0.3728 -0.2770 -0.6565
   9623SM   H8T12968   3.329   7.248   3.981  0.7054  0.2339 -1.2017
   9623SM   C9S12969   3.122   7.234   4.072  0.1223  0.7121  0.6849
   9623SM   H9S12970   3.136   7.135   4.121  2.1897 -0.2712 -1.6780
   9623SM   H9T12971   3.015   7.231   4.040  0.1483  0.2376  0.6362
   9623SM  C10S12972   3.121   7.348   4.176 -0.4180 -0.2783  0.4266
   9623SM  H10S12973   3.109   7.444   4.121  1.9666 -1.1550 -1.8201
   9623SM  H10T12974   3.228   7.360   4.204  0.3710 -0.2683 -2.3221
   9623SM  C11S12975   3.037   7.341   4.303 -0.3416  0.3183 -0.0538
   9623SM  H11S12976   3.010   7.235   4.325 -1.6559  0.2709 -1.7137
   9623SM  H11T12977   2.933   7.378   4.290 -1.1848 -1.6960  0.5185
   9623SM  C12S12978   3.107   7.406   4.421  0.1166  0.3037 -0.0742
   9623SM  H12S12979   3.131   7.514   4.414  1.8783  0.0192  0.9144
   9623SM  H12T12980   3.206   7.362   4.447  0.2164  1.7326  2.2270
   9623SM  C13S12981   3.016   7.394   4.545  0.4065  0.0346  0.6681
   9623SM  H13S12982   2.989   7.291   4.576  1.5267  0.4022  3.2045
   9623SM  H13T12983   2.924   7.447   4.514 -1.1000 -2.5709  0.3982
   9623SM  C14S12984   3.080   7.468   4.670  0.2647 -0.0993 -0.3345
   9623SM  H14S12985   3.003   7.479   4.750 -0.2361 -0.4841 -0.7557
   9623SM  H14T12986   3.121   7.564   4.631  3.3016 -0.7429  0.9819
   9623SM  C15S12987   3.196   7.400   4.748 -0.3624  0.0737 -0.1013
   9623SM  H15S12988   3.285   7.394   4.682 -0.7459 -2.1573 -0.4729
   9623SM  H15T12989   3.169   7.295   4.773 -0.4097  0.0257 -0.3447
   9623SM  C16S12990   3.236   7.465   4.877  0.0992 -0.0802  0.0460
   9623SM  H16S12991   3.281   7.389   4.945  0.6154 -1.8353 -2.1179
   9623SM  H16T12992   3.141   7.492   4.927 -0.1225 -0.1761 -0.3225
   9623SM  C17S12993   3.326   7.588   4.860  0.4563  0.5393 -0.2525
   9623SM  H17S12994   3.311   7.666   4.937  0.5380  2.0209 -1.6717
   9623SM  H17T12995   3.300   7.631   4.761 -1.0808 -2.0574 -1.0772
   9623SM  C18S12996   3.477   7.551   4.859 -0.6458 -0.2142  0.0899
   9623SM  H18S12997   3.501   7.502   4.956  0.8845  1.1741  0.4641
   9623SM  H18T12998   3.547   7.638   4.860  0.6716 -1.2469  0.2122
   9623SM  H18U12999   3.509   7.490   4.772 -0.9406 -0.2879  0.0324
   9623SM   C1F13000   3.469   6.522   3.727  0.2824  0.8948  0.3425
   9623SM    OF13001   3.544   6.462   3.651 -0.2905  0.6407  0.3855
   9623SM   C2F13002   3.478   6.490   3.866  0.3856  0.8928 -0.2051
   9623SM   H2F13003   3.568   6.431   3.896 -0.0212  0.4315  0.1243
   9623SM   H2G13004   3.400   6.412   3.876  1.0004  0.4428  1.4351
   9623SM   C3F13005   3.458   6.602   3.976 -0.1844 -0.1871  0.0440
   9623SM   H3F13006   3.475   6.544   4.070  1.6439  0.6888  0.3067
   9623SM   H3G13007   3.354   6.639   3.972 -0.3449 -0.7579 -2.6996
   9623SM   C4F13008   3.564   6.715   3.959  0.3723  0.1973 -0.3108
   9623SM   H4F13009   3.513   6.777   3.882  0.3395  0.7732  0.1687
   9623SM   H4G13010   3.660   6.683   3.914 -0.2521 -0.5006 -1.1732
   9623SM   C5F13011   3.605   6.786   4.091 -0.4917 -0.1631 -0.1524
   9623SM   H5F13012   3.707   6.830   4.096 -0.5471  0.3073 -2.0834
   9623SM   H5G13013   3.595   6.709   4.170  4.0169 -1.1730 -0.2856
   9623SM   C6F13014   3.512   6.907   4.102  0.1599  0.0369  0.0898
   9623SM   H6F13015   3.416   6.879   4.054 -1.2766  1.9606  1.6113
   9623SM   H6G13016   3.553   6.987   4.037 -1.8848  2.0174  1.1054
   9623SM   C7F13017   3.489   6.958   4.246 -0.0078  0.0113 -0.6610
   9623SM   H7F13018   3.581   6.927   4.300  0.0791  0.5685 -0.4843
   9623SM   H7G13019   3.403   6.898   4.285  1.8319 -1.0105  2.1142
   9623SM   C8F13020   3.451   7.111   4.251  0.5121 -0.0716 -0.9539
   9623SM   H8F13021   3.346   7.127   4.221  0.1727  0.9747  0.6568
   9623SM   H8G13022   3.510   7.173   4.181  2.3876  0.5591  1.0779
   9623SM   C9F13023   3.457   7.176   4.389  0.3190  0.0929  0.0731
   9623SM   H9F13024   3.404   7.108   4.459 -1.2361  1.2810  0.1069
   9623SM   H9G13025   3.397   7.269   4.388  0.3715  0.1534  1.0379
   9623SM  C10F13026   3.600   7.200   4.435 -0.6213 -0.3016  1.1221
   9623SM  H10F13027   3.657   7.276   4.377 -1.1297 -0.3193  0.5865
   9623SM  H10G13028   3.656   7.107   4.408  0.4586  0.6563 -0.0994
   9623SM  C11F13029   3.628   7.231   4.577  0.6722 -0.6975 -0.1130
   9623SM  H11F13030   3.590   7.155   4.648 -1.2831 -0.2474 -0.6233
   9623SM  H11G13031   3.572   7.325   4.599 -2.2690 -2.1572 -0.7954
   9623SM  C12F13032   3.769   7.279   4.620  1.1477 -0.5170 -0.0369
   9623SM  H12F13033   3.759   7.367   4.687  0.0658 -1.6328  1.3568
   9623SM  H12G13034   3.821   7.320   4.531  1.4530 -2.8529 -1.0086
   9623SM  C13F13035   3.843   7.159   4.681  0.1925 -0.5670  0.2855
   9623SM  H13F13036   3.875   7.094   4.597 -0.4690 -0.3904 -0.1045
   9623SM  H13G13037   3.771   7.105   4.746 -2.2479  1.3137 -0.7414
   9623SM  C14F13038   3.972   7.211   4.758  0.3068  0.2755  0.0012
   9623SM  H14F13039   3.937   7.279   4.839 -0.0603 -0.5701  0.5661
   9623SM  H14G13040   4.036   7.267   4.687  3.0606 -1.4608  0.9829
   9623SM  C15F13041   4.056   7.099   4.806  0.0103 -0.2614 -0.0832
   9623SM  H15F13042   4.079   7.025   4.726  1.1583 -2.4161  2.1162
   9623SM  H15G13043   4.013   7.050   4.897 -0.4325  0.5007  0.1330
   9623SM  C16F13044   4.197   7.160   4.849 -0.4191  0.1781 -0.8613
   9623SM  H16F13045   4.186   7.228   4.936 -0.2852 -0.1879 -0.5542
   9623SM  H16G13046   4.225   7.226   4.764 -0.0242 -0.1095 -0.9560
   9623SM  C17F13047   4.307   7.049   4.857 -0.3534 -0.2824  0.1760
   9623SM  H17F13048   4.317   6.994   4.761  0.8664 -1.3704  0.8990
   9623SM  H17G13049   4.279   6.976   4.935 -1.3295 -1.3382 -1.1131
   9623SM  C18F13050   4.452   7.106   4.883 -0.2510  0.0831 -0.2974
   9623SM  H18F13051   4.443   7.164   4.978  0.4073  1.5202 -1.0827
   9623SM  H18G13052   4.477   7.176   4.801 -0.5857  0.3638 -0.1653
   9623SM  C19F13053   4.555   6.998   4.886  0.1158  0.3200 -0.4632
   9623SM  H19F13054   4.565   6.951   4.785 -0.6878 -0.8466 -0.0267
   9623SM  H19G13055   4.530   6.916   4.957  1.5975 -2.5514 -2.9730
   9623SM  C20F13056   4.700   7.050   4.913  0.3656  0.9531 -0.2010
   9623SM  H20F13057   4.690   7.123   4.996  1.1653  0.5204  0.2862
   9623SM  H20G13058   4.730   7.096   4.816 -1.0465 -0.6031 -1.4513
   9623SM  C21F13059   4.796   6.931   4.945 -0.0832  0.4665  0.4340
   9623SM  H21F13060   4.773   6.836   4.892  0.7382  0.3508  0.2763
   9623SM  H21G13061   4.769   6.916   5.052 -0.8847  3.3857  0.7258
   9623SM  C22F13062   4.944   6.965   4.937 -0.0062  0.1165  0.2780
   9623SM  H22F13063   4.964   7.068   4.975  1.6967  0.3286 -1.0720
   9623SM  H22G13064   4.973   6.966   4.830  1.5090  0.2344  0.6665
   9623SM  C23F13065   5.048   6.870   4.995 -0.0502  0.5631  0.0567
   9623SM  H23F13066   5.029   6.769   4.953  2.0185  0.7088 -1.3924
   9623SM  H23G13067   5.035   6.869   5.105  0.6985  0.3082  0.1528
   9623SM  H23H13068   5.150   6.902   4.964  0.0866  0.3453  0.2759
   9723SM     N13069   4.095   7.349   2.750  0.1996  0.3690 -0.1614
   9723SM   C1513070   4.027   7.210   2.769  0.6450 -0.1390  0.6275
   9723SM  H15A13071   3.931   7.230   2.815  0.0580 -0.4102 -0.4531
   9723SM  H15B13072   4.091   7.142   2.823 -1.3757 -1.6626  1.2054
   9723SM  H15C13073   4.011   7.180   2.667  0.3429  0.3377  0.5302
   9723SM   C1413074   4.149   7.376   2.886 -0.6156  0.5234  0.6618
   9723SM  H14A13075   4.204   7.288   2.918 -1.5386  0.0695  1.0321
   9723SM  H14B13076   4.076   7.387   2.964 -1.4929  0.5571 -0.1507
   9723SM  H14C13077   4.220   7.458   2.893  2.4172 -1.8353  0.0103
   9723SM   C1313078   4.205   7.349   2.653 -0.3789 -0.5131  0.4528
   9723SM  H13A13079   4.245   7.445   2.623  0.3105 -0.9902 -0.1884
   9723SM  H13B13080   4.181   7.300   2.560 -0.9956  2.1169 -0.8826
   9723SM  H13C13081   4.287   7.295   2.696  1.6126  1.9592  0.0026
   9723SM   C1213082   3.991   7.457   2.723  0.3597  0.1079 -0.3105
   9723SM  H12A13083   3.929   7.436   2.637  1.2184 -1.3386 -0.6029
   9723SM  H12B13084   4.034   7.555   2.708 -0.4775  0.9195  2.1094
   9723SM   C1113085   3.883   7.484   2.836 -0.4267  0.3536  0.0895
   9723SM  H11A13086   3.832   7.581   2.816  0.7051  0.4330 -3.0010
   9723SM  H11B13087   3.936   7.474   2.933 -0.0608  2.1494  0.1167
   9723SM     P13088   3.660   7.363   2.903  0.2900 -0.4391 -0.2009
   9723SM   O1313089   3.548   7.431   2.832 -0.5389  0.0682 -0.6576
   9723SM   O1413090   3.643   7.218   2.937  0.0010  0.3166  0.2167
   9723SM   O1113091   3.684   7.442   3.034  0.1787  0.4258  0.2028
   9723SM   O1213092   3.795   7.375   2.817  0.4126  0.3316 -0.5345
   9723SM   C1S13093   3.583   7.438   3.136 -0.8592 -0.1681  0.5868
   9723SM   H1S13094   3.550   7.335   3.163  0.9962 -1.6744 -2.2452
   9723SM   H1T13095   3.489   7.473   3.089  1.0084  0.4259 -3.1170
   9723SM    NF13096   3.523   7.512   3.365  0.2023  0.0201 -0.2928
   9723SM   HNF13097   3.444   7.573   3.363 -0.7765 -1.0805  1.4783
   9723SM   C2S13098   3.622   7.524   3.261 -0.4047  0.6009  0.1091
   9723SM   H2S13099   3.718   7.480   3.294  0.1857  2.0059  0.3625
   9723SM   C3S13100   3.659   7.673   3.221  0.2502  0.4451 -0.2203
   9723SM   H3S13101   3.566   7.726   3.193  0.8280  0.5435 -2.0574
   9723SM    O313102   3.728   7.695   3.097  0.4051 -0.3170 -0.5575
   9723SM   HO313103   3.712   7.610   3.056 -1.8303  0.7260 -2.0923
   9723SM   C4S13104   3.726   7.737   3.331 -0.2007  0.0582 -0.3720
   9723SM   H4S13105   3.835   7.722   3.332 -0.2948 -1.4918 -3.4506
   9723SM   C5S13106   3.677   7.818   3.421 -0.2625 -0.0037  0.0966
   9723SM   H5S13107   3.567   7.829   3.425 -0.2899 -0.5014  1.0158
   9723SM   C6S13108   3.755   7.900   3.523  0.1354 -0.9850 -0.0180
   9723SM   H6S13109   3.743   8.008   3.498  0.7394 -0.8540  0.2612
   9723SM   H6T13110   3.861   7.868   3.518  0.6585  0.1804  2.4002
   9723SM   C7S13111   3.693   7.885   3.661 -0.0111 -0.6638  0.2989
   9723SM   H7S13112   3.749   7.799   3.704 -0.2849 -1.0063 -0.0221
   9723SM   H7T13113   3.586   7.857   3.652  0.1179 -1.1787  0.3388
   9723SM   C8S13114   3.699   8.008   3.751 -0.1521 -0.4110  0.4411
   9723SM   H8S13115   3.662   8.100   3.701  1.1634  1.0380  2.0023
   9723SM   H8T13116   3.809   8.020   3.764  0.4061  0.8026 -3.9381
   9723SM   C9S13117   3.624   7.983   3.883  0.1093  0.3124 -0.2120
   9723SM   H9S13118   3.648   7.876   3.903  0.3451  0.2044 -1.0069
   9723SM   H9T13119   3.515   7.973   3.867  0.4404 -1.5223 -1.7506
   9723SM  C10S13120   3.667   8.078   4.003 -0.0683  0.1509 -0.1135
   9723SM  H10S13121   3.684   8.180   3.963 -2.3134  0.1465 -1.2102
   9723SM  H10T13122   3.765   8.042   4.041 -0.3739 -0.3397  0.2357
   9723SM  C11S13123   3.574   8.073   4.131 -0.0028 -0.4642 -0.0434
   9723SM  H11S13124   3.545   7.968   4.151  0.4586 -0.9586 -1.7541
   9723SM  H11T13125   3.477   8.123   4.110  0.4846  0.5831  0.1218
   9723SM  C12S13126   3.641   8.136   4.254 -0.1865 -0.0469 -0.4114
   9723SM  H12S13127   3.648   8.245   4.234  1.4667 -0.1156 -0.3654
   9723SM  H12T13128   3.747   8.102   4.263  0.2099  1.5930  2.2673
   9723SM  C13S13129   3.568   8.118   4.394  0.4014 -0.0219  0.3430
   9723SM  H13S13130   3.596   8.019   4.436  0.6172 -1.1596 -2.2934
   9723SM  H13T13131   3.458   8.133   4.386  0.1537 -2.5471 -3.3637
   9723SM  C14S13132   3.618   8.209   4.505  0.5446  0.2328  0.4120
   9723SM  H14S13133   3.724   8.178   4.519  0.1798 -0.9986  0.5553
   9723SM  H14T13134   3.571   8.172   4.599 -0.4493 -4.0870 -1.5425
   9723SM  C15S13135   3.607   8.359   4.485 -0.1336  0.5538 -0.5329
   9723SM  H15S13136   3.504   8.380   4.448 -0.2316  1.6072  0.3022
   9723SM  H15T13137   3.681   8.392   4.409 -0.6853  1.2168 -0.7872
   9723SM  C16S13138   3.623   8.425   4.617 -0.1028 -0.0619 -0.6722
   9723SM  H16S13139   3.726   8.396   4.648  0.3451  0.1477 -1.8947
   9723SM  H16T13140   3.537   8.392   4.679  0.0204  2.8981  1.2958
   9723SM  C17S13141   3.601   8.579   4.610 -0.4822 -0.2642 -0.1894
   9723SM  H17S13142   3.554   8.611   4.706 -1.7076 -0.7703 -0.5954
   9723SM  H17T13143   3.516   8.595   4.540 -1.8024 -0.0506  1.4030
   9723SM  C18S13144   3.726   8.662   4.575 -0.2609 -0.6108  0.0818
   9723SM  H18S13145   3.806   8.646   4.651 -0.8318 -1.0741  0.6050
   9723SM  H18T13146   3.712   8.772   4.578  0.7302 -0.4947  1.4917
   9723SM  H18U13147   3.757   8.617   4.478  0.3167  0.2985 -0.1618
   9723SM   C1F13148   3.522   7.409   3.448 -0.4201  0.8091  0.0833
   9723SM    OF13149   3.603   7.321   3.433  0.3472  0.1112  0.4615
   9723SM   C2F13150   3.414   7.402   3.549  0.0519  0.0213 -0.5093
   9723SM   H2F13151   3.396   7.293   3.561  1.3700 -0.5071 -2.6607
   9723SM   H2G13152   3.316   7.438   3.511 -0.0228  1.1035  0.6344
   9723SM   C3F13153   3.445   7.485   3.675  0.1927  0.1364 -0.9092
   9723SM   H3F13154   3.353   7.485   3.738 -0.5485  1.2416 -1.9412
   9723SM   H3G13155   3.470   7.586   3.636  1.4006 -0.8681 -2.8800
   9723SM   C4F13156   3.563   7.429   3.758  0.0599 -0.5759  0.4336
   9723SM   H4F13157   3.647   7.417   3.686 -1.1421  0.1866 -1.1794
   9723SM   H4G13158   3.535   7.328   3.794  2.4311 -1.5726 -0.3002
   9723SM   C5F13159   3.607   7.517   3.877 -0.1309 -0.2873 -0.3192
   9723SM   H5F13160   3.616   7.625   3.851 -3.0015  0.5360  1.5636
   9723SM   H5G13161   3.705   7.480   3.914  0.7811  1.9773 -0.2785
   9723SM   C6F13162   3.506   7.506   3.993 -0.4712  0.2555  0.3726
   9723SM   H6F13163   3.480   7.400   4.013 -1.3422  0.4754  0.4166
   9723SM   H6G13164   3.419   7.549   3.940 -0.2135  0.0968 -0.1886
   9723SM   C7F13165   3.547   7.585   4.113  0.2302  0.1976 -0.0239
   9723SM   H7F13166   3.567   7.688   4.077 -1.6406  0.8866  0.8193
   9723SM   H7G13167   3.645   7.546   4.149  1.2256  1.4959 -1.2193
   9723SM   C8F13168   3.439   7.594   4.217 -0.2666  0.1521  0.3313
   9723SM   H8F13169   3.419   7.495   4.264 -2.8997  1.2524  1.7360
   9723SM   H8G13170   3.344   7.622   4.166 -0.3086 -1.1750 -0.3729
   9723SM   C9F13171   3.480   7.689   4.332 -0.2231 -0.0949  0.7166
   9723SM   H9F13172   3.491   7.794   4.297 -1.0553 -0.6266 -1.2747
   9723SM   H9G13173   3.579   7.667   4.377  0.8363  0.7889 -1.0834
   9723SM  C10F13174   3.376   7.688   4.441  0.4668  0.3028 -0.2237
   9723SM  H10F13175   3.390   7.596   4.500  0.6402 -0.2915 -1.1710
   9723SM  H10G13176   3.284   7.681   4.379  1.1801 -1.0428 -1.1733
   9723SM  C11F13177   3.376   7.820   4.525  0.2268 -0.4997  0.2326
   9723SM  H11F13178   3.286   7.835   4.588  1.0456 -0.4743  1.4307
   9723SM  H11G13179   3.374   7.900   4.447  2.0543 -1.3515 -0.7503
   9723SM  C12F13180   3.498   7.828   4.620  0.0821  0.8095  0.2035
   9723SM  H12F13181   3.593   7.860   4.571  0.1355  0.1224 -0.1594
   9723SM  H12G13182   3.531   7.727   4.652 -0.0724  0.5732 -0.3638
   9723SM  C13F13183   3.482   7.929   4.740  0.4354 -1.1146  0.7005
   9723SM  H13F13184   3.390   7.898   4.795  0.3880 -1.7323  0.2876
   9723SM  H13G13185   3.437   8.023   4.701 -0.9526 -1.9370  0.2270
   9723SM  C14F13186   3.613   7.967   4.817 -0.1099  0.4602  0.3061
   9723SM  H14F13187   3.692   8.009   4.751  1.8346 -0.6795  1.7829
   9723SM  H14G13188   3.651   7.873   4.863  1.1479  0.6876 -0.2313
   9723SM  C15F13189   3.590   8.072   4.928  0.4041 -0.3407 -0.2610
   9723SM  H15F13190   3.517   8.020   4.994  1.4349 -2.2911 -0.5750
   9723SM  H15G13191   3.535   8.158   4.885  1.3835  0.3180 -0.2358
   9723SM  C16F13192   3.726   8.100   4.994  0.2333 -0.1656 -0.3645
   9723SM  H16F13193   3.801   8.091   4.913  0.6558 -1.4923  0.1405
   9723SM  H16G13194   3.749   8.019   5.066  0.4354  0.2631  0.0663
   9723SM  C17F13195   3.724   8.222   5.088  0.4193  0.5954 -0.2538
   9723SM  H17F13196   3.630   8.203   5.145  0.4943  1.8636  0.3401
   9723SM  H17G13197   3.712   8.314   5.026 -1.8310 -1.0419 -2.4623
   9723SM  C18F13198   3.843   8.224   5.182 -0.2645 -0.0540  0.0731
   9723SM  H18F13199   3.930   8.253   5.120 -0.7862  0.0044 -0.6486
   9723SM  H18G13200   3.849   8.124   5.230 -0.9260 -0.9762 -1.6639
   9723SM  C19F13201   3.831   8.336   5.291  0.1321 -0.0645  0.3559
   9723SM  H19F13202   3.790   8.435   5.261  3.2316  1.2003 -0.0565
   9723SM  H19G13203   3.935   8.353   5.325 -0.0705 -0.9987  1.4835
   9723SM  C20F13204   3.756   8.292   5.415 -0.3195 -0.0572 -1.0346
   9723SM  H20F13205   3.793   8.190   5.440 -0.4110 -0.0284 -0.7872
   9723SM  H20G13206   3.651   8.272   5.385 -0.4293 -0.8525 -0.1577
   9723SM  C21F13207   3.760   8.390   5.533  0.1921  0.7472 -0.5495
   9723SM  H21F13208   3.719   8.486   5.495 -1.7239  0.9619  1.7645
   9723SM  H21G13209   3.861   8.430   5.556 -0.0375  0.3849  1.2530
   9723SM  C22F13210   3.683   8.338   5.658 -0.5388 -0.5619  0.1972
   9723SM  H22F13211   3.591   8.278   5.640  0.4020 -2.7999  2.2829
   9723SM  H22G13212   3.645   8.424   5.717  0.0601 -0.4321  0.3965
   9723SM  C23F13213   3.773   8.240   5.737 -0.0485 -0.5102  1.0750
   9723SM  H23F13214   3.875   8.278   5.758 -0.1918 -0.0885  1.0097
   9723SM  H23G13215   3.789   8.150   5.673  1.4859  1.0612 -0.8760
   9723SM  H23H13216   3.728   8.213   5.835 -0.0795  0.6622  1.3996
   9823SM     N13217   5.836   0.362   2.712 -0.1752 -0.3954  0.3344
   9823SM   C1513218   5.750   0.364   2.833  0.4454  1.1464 -0.3246
   9823SM  H15A13219   5.711   0.462   2.855  2.3335  1.9895 -0.4900
   9823SM  H15B13220   5.812   0.335   2.916 -0.5846  3.5042  1.3681
   9823SM  H15C13221   5.676   0.287   2.825  0.2989  1.3773 -1.3390
   9823SM   C1413222   5.832   0.223   2.651 -0.5707 -0.7744  0.2162
   9823SM  H14A13223   5.916   0.216   2.584  1.3232 -2.2161  2.5745
   9823SM  H14B13224   5.736   0.209   2.603  0.2769 -0.1751 -1.7606
   9823SM  H14C13225   5.846   0.149   2.728 -1.2375 -0.6477  0.4751
   9823SM   C1313226   5.773   0.456   2.619 -0.2867 -0.0708  0.5988
   9823SM  H13A13227   5.832   0.480   2.531 -1.2332  1.2175  0.2770
   9823SM  H13B13228   5.748   0.551   2.664  2.0219  1.0817 -0.3940
   9823SM  H13C13229   5.681   0.415   2.579 -0.0432 -0.2178  0.1739
   9823SM   C1213230   5.978   0.401   2.754  0.1380 -0.7736 -0.4170
   9823SM  H12A13231   6.017   0.325   2.820  3.7779  0.1740 -1.2614
   9823SM  H12B13232   5.974   0.483   2.824  1.4000 -0.2874 -0.8839
   9823SM   C1113233   6.088   0.424   2.645  0.2323 -0.5974  0.1658
   9823SM  H11A13234   6.096   0.328   2.590 -1.2819 -0.6173 -0.0560
   9823SM  H11B13235   6.186   0.444   2.692 -0.6479  1.7624  1.1867
   9823SM     P13236   6.078   0.678   2.590  0.0612 -0.4807 -0.1346
   9823SM   O1313237   6.213   0.727   2.548  0.1253  0.3367 -0.3721
   9823SM   O1413238   5.955   0.748   2.535 -0.4346 -0.1732 -0.7447
   9823SM   O1113239   6.075   0.680   2.747  0.0004  0.4516 -0.0568
   9823SM   O1213240   6.053   0.525   2.550 -0.3935 -0.4731 -0.7367
   9823SM   C1S13241   6.061   0.802   2.821  0.3323 -0.0461  0.2772
   9823SM   H1S13242   5.967   0.854   2.793 -0.4311 -1.6778 -0.2622
   9823SM   H1T13243   6.145   0.870   2.796  0.5462 -0.6663 -0.7644
   9823SM    NF13244   6.037   0.867   3.064  0.3016  0.4990  0.4195
   9823SM   HNF13245   6.109   0.919   3.110  1.4816 -2.0999  1.7067
   9823SM   C2S13246   6.079   0.762   2.972  0.4508 -0.0242 -0.5221
   9823SM   H2S13247   6.011   0.676   2.989  0.3835  0.1126 -0.0837
   9823SM   C3S13248   6.219   0.719   3.003 -0.5436 -0.4376  0.4864
   9823SM   H3S13249   6.284   0.808   2.988  0.2583 -0.9105  1.1031
   9823SM    O313250   6.268   0.619   2.907 -0.2984  0.4931  0.2874
   9823SM   HO313251   6.195   0.608   2.845 -0.6399 -0.6645  0.8571
   9823SM   C4S13252   6.242   0.665   3.142 -0.0421 -0.2063  0.3059
   9823SM   H4S13253   6.163   0.604   3.187 -0.0190  0.1645  0.8634
   9823SM   C5S13254   6.327   0.727   3.231 -0.3934 -0.6670 -0.5298
   9823SM   H5S13255   6.383   0.814   3.194  0.8517 -1.2243 -0.0108
   9823SM   C6S13256   6.326   0.702   3.380 -0.4920  0.3558  0.5176
   9823SM   H6S13257   6.430   0.683   3.416  0.9701  0.4933 -3.1558
   9823SM   H6T13258   6.252   0.622   3.398 -0.2983 -0.2301 -1.1305
   9823SM   C7S13259   6.282   0.831   3.453 -0.2166  0.0182  0.8136
   9823SM   H7S13260   6.184   0.868   3.417  0.1479  2.3145  1.9527
   9823SM   H7T13261   6.360   0.905   3.425  1.1429 -1.5590  0.2826
   9823SM   C8S13262   6.275   0.813   3.598 -0.3948  0.1835 -0.2438
   9823SM   H8S13263   6.230   0.715   3.625  0.4180 -0.1225  0.0116
   9823SM   H8T13264   6.209   0.893   3.638  0.7059  0.8533  0.2705
   9823SM   C9S13265   6.408   0.836   3.671  0.4319 -0.0947 -0.1651
   9823SM   H9S13266   6.452   0.932   3.636 -0.3204  0.3921  0.2049
   9823SM   H9T13267   6.476   0.748   3.657  0.7582  0.3277 -1.3331
   9823SM  C10S13268   6.380   0.842   3.823  0.2249 -0.4783  1.0655
   9823SM  H10S13269   6.330   0.747   3.853 -1.0228 -0.1390  0.1298
   9823SM  H10T13270   6.310   0.927   3.830  1.2549  0.5234 -0.2641
   9823SM  C11S13271   6.513   0.860   3.899  0.3187  0.0391 -0.1749
   9823SM  H11S13272   6.545   0.965   3.882  0.0187  0.3287  0.9644
   9823SM  H11T13273   6.591   0.794   3.855 -0.6153 -0.7021 -0.7598
   9823SM  C12S13274   6.500   0.824   4.053 -0.4875 -0.1776 -0.6898
   9823SM  H12S13275   6.511   0.714   4.058  0.1511 -0.1537 -1.4367
   9823SM  H12T13276   6.403   0.860   4.093 -0.3183 -1.2282  0.7566
   9823SM  C13S13277   6.617   0.885   4.134 -0.5444 -0.2286  0.2096
   9823SM  H13S13278   6.604   0.859   4.242  0.5083  1.3821  0.7542
   9823SM  H13T13279   6.623   0.995   4.133 -0.1717 -0.2171  1.5506
   9823SM  C14S13280   6.753   0.834   4.093 -0.1181 -0.3831  0.2438
   9823SM  H14S13281   6.777   0.872   3.991 -0.5947  1.2070  0.6990
   9823SM  H14T13282   6.763   0.724   4.104 -0.5836 -0.5247 -0.6636
   9823SM  C15S13283   6.875   0.901   4.164 -0.3382 -0.2644  0.0294
   9823SM  H15S13284   6.890   1.000   4.118  0.4091 -0.1594  0.4840
   9823SM  H15T13285   6.967   0.844   4.139  0.3146  0.8796 -0.1921
   9823SM  C16S13286   6.867   0.921   4.313  0.7679  0.8661 -0.0050
   9823SM  H16S13287   6.839   0.821   4.353  0.6079  1.8880  2.6248
   9823SM  H16T13288   6.782   0.986   4.340 -0.2204 -0.1074 -0.6878
   9823SM  C17S13289   6.995   0.964   4.388  0.4189  0.2499 -0.3439
   9823SM  H17S13290   7.027   1.062   4.347  0.2064  1.0885  1.4048
   9823SM  H17T13291   7.073   0.888   4.368 -0.5594 -1.2064  1.1083
   9823SM  C18S13292   6.970   0.979   4.541  0.0463 -0.6373  0.2164
   9823SM  H18S13293   6.890   1.051   4.567  1.2258  1.9506 -2.7158
   9823SM  H18T13294   7.062   1.014   4.592 -0.0136 -0.7802  0.4224
   9823SM  H18U13295   6.945   0.879   4.581  0.0971 -0.3990  0.8454
   9823SM   C1F13296   5.910   0.906   3.072 -0.5298  0.5167  0.4997
   9823SM    OF13297   5.832   0.856   2.994  0.0877 -0.2043 -0.1477
   9823SM   C2F13298   5.873   1.018   3.164  0.0979 -0.0560 -0.5884
   9823SM   H2F13299   5.891   1.113   3.110 -0.8702  0.3583 -0.2026
   9823SM   H2G13300   5.941   1.020   3.251  0.7713  0.4226 -1.1195
   9823SM   C3F13301   5.728   1.001   3.217 -0.5687  0.4111 -0.1611
   9823SM   H3F13302   5.710   0.900   3.259  0.2469  1.2941  2.5443
   9823SM   H3G13303   5.654   1.004   3.134 -1.3582 -0.4893  0.4866
   9823SM   C4F13304   5.691   1.091   3.333  0.7993  0.0924  0.3558
   9823SM   H4F13305   5.718   1.197   3.318  0.4990  0.3656  1.6547
   9823SM   H4G13306   5.731   1.056   3.430 -1.7277  1.5756  2.0479
   9823SM   C5F13307   5.534   1.082   3.362 -0.1864  0.1745  0.5623
   9823SM   H5F13308   5.511   0.974   3.376  1.2511 -0.3620 -0.9462
   9823SM   H5G13309   5.475   1.122   3.276 -0.7492 -0.9107  0.4265
   9823SM   C6F13310   5.502   1.171   3.484  0.3230 -0.3877  0.2660
   9823SM   H6F13311   5.394   1.154   3.502  0.5846 -1.0799  1.2396
   9823SM   H6G13312   5.527   1.276   3.458 -3.5142  0.6584  0.2361
   9823SM   C7F13313   5.570   1.133   3.616 -0.1434  0.0491 -0.2040
   9823SM   H7F13314   5.678   1.151   3.602  0.2595 -1.5831  0.5186
   9823SM   H7G13315   5.558   1.023   3.628  0.2563 -0.1221 -1.2268
   9823SM   C8F13316   5.514   1.208   3.739 -0.5190  0.0426  0.2764
   9823SM   H8F13317   5.406   1.198   3.763  0.3031 -1.2032  4.2079
   9823SM   H8G13318   5.535   1.315   3.720  0.0224 -0.1789 -0.4156
   9823SM   C9F13319   5.585   1.162   3.870  0.4057 -0.1538  0.4586
   9823SM   H9F13320   5.694   1.179   3.854  0.6249 -0.2091  1.7931
   9823SM   H9G13321   5.564   1.053   3.867 -2.0103  0.2634 -1.6594
   9823SM  C10F13322   5.535   1.207   4.009  0.3211  0.4962  0.6999
   9823SM  H10F13323   5.521   1.316   3.992  0.6582  0.6069  1.1225
   9823SM  H10G13324   5.612   1.184   4.085 -0.7244 -0.9750  1.3509
   9823SM  C11F13325   5.415   1.123   4.056 -0.6478 -0.4896  0.5192
   9823SM  H11F13326   5.442   1.015   4.055 -1.9743 -0.8383 -0.2092
   9823SM  H11G13327   5.332   1.134   3.983  0.0061 -0.0815 -0.1732
   9823SM  C12F13328   5.358   1.169   4.193 -0.5338 -0.2813 -0.4114
   9823SM  H12F13329   5.331   1.276   4.199  1.4811  0.1870  2.8407
   9823SM  H12G13330   5.431   1.156   4.276 -1.1848  0.3517  0.2709
   9823SM  C13F13331   5.232   1.092   4.224  0.4898 -0.3836  1.1464
   9823SM  H13F13332   5.255   0.984   4.213  1.0177 -0.0167 -2.5853
   9823SM  H13G13333   5.159   1.117   4.144  1.7593 -0.3134 -0.0491
   9823SM  C14F13334   5.171   1.117   4.360 -0.4259 -0.1697  0.8547
   9823SM  H14F13335   5.108   1.209   4.352  0.0194  0.4470  3.3554
   9823SM  H14G13336   5.249   1.136   4.437  0.5633 -0.9738  0.0773
   9823SM  C15F13337   5.075   0.997   4.405 -1.0752 -0.4216 -0.1485
   9823SM  H15F13338   5.134   0.903   4.401 -0.9773 -0.4701  1.5927
   9823SM  H15G13339   4.992   1.007   4.331  0.3120 -0.4823 -1.7672
   9823SM  C16F13340   5.010   1.024   4.541  0.0225  0.4078 -0.3842
   9823SM  H16F13341   4.927   0.959   4.575 -0.5410  1.2708 -0.0867
   9823SM  H16G13342   4.970   1.128   4.534 -1.7794 -0.2795 -0.8429
   9823SM  C17F13343   5.110   1.023   4.659  0.1767 -0.1679 -0.5602
   9823SM  H17F13344   5.182   1.108   4.660  0.6733 -0.5804 -0.7710
   9823SM  H17G13345   5.166   0.927   4.658 -1.1501 -0.9592 -1.0784
   9823SM  C18F13346   5.044   1.036   4.798  0.0076 -0.4071  0.1769
   9823SM  H18F13347   4.989   0.942   4.821  0.4791 -0.2824  2.0189
   9823SM  H18G13348   4.975   1.123   4.799 -1.6464 -1.6499 -0.7843
   9823SM  C19F13349   5.147   1.045   4.907  0.2524  0.3512  0.0013
   9823SM  H19F13350   5.220   1.126   4.883 -0.8094  1.5174  0.6038
   9823SM  H19G13351   5.213   0.956   4.894  0.6758  0.7964 -1.0582
   9823SM  C20F13352   5.089   1.065   5.052 -1.0416  0.0379  0.4726
   9823SM  H20F13353   5.013   0.986   5.071 -1.6865  0.2765 -0.9193
   9823SM  H20G13354   5.045   1.166   5.070 -0.3049 -0.0362  3.0660
   9823SM  C21F13355   5.207   1.055   5.152 -0.4577  0.2346  0.6619
   9823SM  H21F13356   5.288   1.129   5.137  0.3752 -0.9151 -0.8617
   9823SM  H21G13357   5.242   0.952   5.128 -0.2186  0.6047 -0.6692
   9823SM  C22F13358   5.170   1.054   5.297  0.6088  0.2226  0.2512
   9823SM  H22F13359   5.258   1.024   5.358  1.0356  0.3846 -0.2784
   9823SM  H22G13360   5.100   0.969   5.311  2.6193 -1.3901  0.9561
   9823SM  C23F13361   5.119   1.185   5.358 -0.1988  0.5834  0.5314
   9823SM  H23F13362   5.029   1.224   5.306  0.6329  1.7461 -0.0714
   9823SM  H23G13363   5.206   1.253   5.348 -0.0300  0.4480  1.0368
   9823SM  H23H13364   5.088   1.173   5.464 -3.0915 -1.4540 -0.4218
   9923SM     N13365   0.432   7.556   2.286 -0.1057 -0.5570  0.0793
   9923SM   C1513366   0.553   7.507   2.368 -0.0961  0.0866  0.2099
   9923SM  H15A13367   0.647   7.541   2.327 -0.5506  0.9826 -0.1459
   9923SM  H15B13368   0.560   7.400   2.359  1.3271 -0.0940  2.8242
   9923SM  H15C13369   0.552   7.525   2.474  1.8034  2.2381 -0.0702
   9923SM   C1413370   0.427   7.701   2.306 -0.1656 -0.3032  0.5468
   9923SM  H14A13371   0.421   7.727   2.410  0.0237  1.5623  0.1225
   9923SM  H14B13372   0.333   7.738   2.268 -0.9797 -1.6832  1.1356
   9923SM  H14C13373   0.506   7.760   2.264 -0.9314  0.0590 -0.4360
   9923SM   C1313374   0.476   7.519   2.143  0.2276 -0.1756  0.5438
   9923SM  H13A13375   0.399   7.560   2.079  0.5359 -0.0510  0.2531
   9923SM  H13B13376   0.495   7.415   2.123  0.2501  0.0534 -0.7374
   9923SM  H13C13377   0.567   7.569   2.111  0.2740 -0.4300  0.2728
   9923SM   C1213378   0.298   7.500   2.327  0.6580  0.1855 -0.6022
   9923SM  H12A13379   0.298   7.393   2.309 -0.5143  0.3634 -1.7498
   9923SM  H12B13380   0.210   7.536   2.277 -2.1983  0.7122  4.1330
   9923SM   C1113381   0.256   7.505   2.480  0.4980  0.1887  0.3074
   9923SM  H11A13382   0.154   7.463   2.496 -0.1994  1.2513 -1.1010
   9923SM  H11B13383   0.259   7.613   2.508 -0.8509 -0.2746  2.4772
   9923SM     P13384   0.338   7.280   2.600  0.3558  0.0933  0.0261
   9923SM   O1313385   0.203   7.228   2.561 -0.2351  0.0050 -0.4913
   9923SM   O1413386   0.461   7.206   2.557  0.2005  0.3447 -0.6044
   9923SM   O1113387   0.331   7.291   2.758 -0.0943  0.1820  0.3366
   9923SM   O1213388   0.349   7.439   2.559 -0.6488  0.1819 -0.0200
   9923SM   C1S13389   0.242   7.386   2.812  0.0531  0.1145  0.2353
   9923SM   H1S13390   0.133   7.367   2.804 -0.1274  0.4042  1.7820
   9923SM   H1T13391   0.264   7.490   2.779  2.1610  0.1029  1.4485
   9923SM    NF13392   0.174   7.492   3.013 -0.7122 -0.4437 -0.2190
   9923SM   HNF13393   0.215   7.576   3.047  0.0554 -0.7562 -0.3679
   9923SM   C2S13394   0.271   7.393   2.965  0.1184 -0.4101  0.2667
   9923SM   H2S13395   0.243   7.292   3.003  0.4256 -0.7994 -0.5298
   9923SM   C3S13396   0.417   7.417   3.004 -0.4249 -0.9663 -0.0206
   9923SM   H3S13397   0.452   7.521   2.983  0.0924 -1.0657  0.3259
   9923SM    O313398   0.521   7.340   2.933  0.5698 -0.1480 -0.6610
   9923SM   HO313399   0.470   7.281   2.878 -0.3190 -0.0931  0.0627
   9923SM   C4S13400   0.433   7.394   3.153  0.2963 -0.2948 -0.3063
   9923SM   H4S13401   0.364   7.317   3.188 -0.4183  0.7607  0.7032
   9923SM   C5S13402   0.495   7.477   3.238 -0.0454 -0.1543 -0.6565
   9923SM   H5S13403   0.539   7.568   3.196 -1.7650  0.8224 -0.4647
   9923SM   C6S13404   0.496   7.470   3.389  0.1523 -0.1482 -0.0714
   9923SM   H6S13405   0.598   7.449   3.428  0.7778 -0.7161 -1.8872
   9923SM   H6T13406   0.419   7.398   3.424 -0.0753  0.6816  1.1950
   9923SM   C7S13407   0.443   7.602   3.443 -0.2155 -0.0643  0.0094
   9923SM   H7S13408   0.353   7.637   3.388 -0.0253 -1.6155 -1.3714
   9923SM   H7T13409   0.515   7.684   3.422 -0.6796  0.2071 -0.5407
   9923SM   C8S13410   0.412   7.606   3.596 -0.1277 -0.3666  1.1865
   9923SM   H8S13411   0.487   7.543   3.648  0.6883  0.2168  0.7268
   9923SM   H8T13412   0.313   7.557   3.609 -1.2525  0.7351 -2.1097
   9923SM   C9S13413   0.406   7.746   3.653  0.1546 -0.2129  0.2188
   9923SM   H9S13414   0.301   7.781   3.659 -0.3703 -1.7234  0.3537
   9923SM   H9T13415   0.462   7.822   3.595 -0.2518 -0.4995 -0.5572
   9923SM  C10S13416   0.461   7.753   3.793  0.1315 -0.0536 -0.0559
   9923SM  H10S13417   0.480   7.859   3.821 -2.4502  0.5062 -0.2159
   9923SM  H10T13418   0.560   7.702   3.794  0.6236  0.8070  1.9682
   9923SM  C11S13419   0.361   7.707   3.897 -0.3691  0.1350  0.3579
   9923SM  H11S13420   0.318   7.614   3.854 -0.4064  0.3963 -0.1777
   9923SM  H11T13421   0.262   7.757   3.895 -0.3692  0.1432 -2.2569
   9923SM  C12S13422   0.422   7.696   4.030 -0.3395  0.6113  0.2774
   9923SM  H12S13423   0.456   7.800   4.048  1.6708 -0.0914  0.8831
   9923SM  H12T13424   0.511   7.629   4.026 -1.0017 -0.2902  0.2599
   9923SM  C13S13425   0.336   7.644   4.141  0.2004  0.2502 -0.1356
   9923SM  H13S13426   0.295   7.543   4.120 -0.1088  0.4383 -0.4416
   9923SM  H13T13427   0.255   7.712   4.173  1.1182  1.0657  0.4907
   9923SM  C14S13428   0.428   7.618   4.260 -0.2519  0.6917  0.5244
   9923SM  H14S13429   0.482   7.712   4.287 -0.5341  1.2756 -0.8664
   9923SM  H14T13430   0.507   7.544   4.236 -0.2314  0.4140  1.4330
   9923SM  C15S13431   0.358   7.562   4.385  0.6684  0.5266 -0.3318
   9923SM  H15S13432   0.319   7.460   4.368 -1.2597  1.1105  0.2442
   9923SM  H15T13433   0.268   7.624   4.407  1.6214  1.6493  0.5566
   9923SM  C16S13434   0.445   7.551   4.508 -0.2498 -0.2731  0.6141
   9923SM  H16S13435   0.471   7.654   4.540  2.9704 -0.6054 -0.5662
   9923SM  H16T13436   0.546   7.514   4.479  0.4211  0.3433  2.0781
   9923SM  C17S13437   0.379   7.476   4.623 -1.1610 -0.1067 -0.0399
   9923SM  H17S13438   0.370   7.368   4.597  0.0368 -0.2524  0.1060
   9923SM  H17T13439   0.275   7.512   4.635 -0.8929  1.2292 -1.4965
   9923SM  C18S13440   0.449   7.482   4.761  0.0774 -0.0162  0.5613
   9923SM  H18S13441   0.539   7.416   4.766 -0.3243 -0.8205 -1.5660
   9923SM  H18T13442   0.380   7.455   4.844  1.6687 -0.6841  1.7205
   9923SM  H18U13443   0.488   7.585   4.776 -0.6374  0.0930  1.8362
   9923SM   C1F13444   0.044   7.479   3.034  0.0036  0.4415  0.0955
   9923SM    OF13445  -0.007   7.370   3.030 -0.5610 -0.3640  1.0468
   9923SM   C2F13446  -0.047   7.597   3.037 -0.1473 -0.6960 -0.9237
   9923SM   H2F13447  -0.125   7.604   2.958 -2.1753 -0.6314  0.9684
   9923SM   H2G13448   0.014   7.689   3.027  1.4421 -1.5146  0.6148
   9923SM   C3F13449  -0.120   7.614   3.168 -0.2277 -0.0255  0.3017
   9923SM   H3F13450  -0.176   7.519   3.185  1.8788 -1.1697  1.2636
   9923SM   H3G13451  -0.195   7.696   3.166 -0.4550 -0.1806  1.4991
   9923SM   C4F13452  -0.037   7.641   3.296 -0.6616  0.0949 -0.1691
   9923SM   H4F13453   0.013   7.740   3.292  0.5744 -0.5189 -0.6950
   9923SM   H4G13454   0.042   7.562   3.300 -0.1191  0.4292 -2.7630
   9923SM   C5F13455  -0.103   7.636   3.435 -0.5683 -0.6774  0.5783
   9923SM   H5F13456  -0.146   7.536   3.459 -0.6182 -0.6880  0.4431
   9923SM   H5G13457  -0.173   7.722   3.437  0.3752  0.1230 -0.0489
   9923SM   C6F13458  -0.008   7.660   3.553  0.3873  0.6879 -0.3006
   9923SM   H6F13459   0.029   7.764   3.538 -0.1160  0.8324 -0.5400
   9923SM   H6G13460   0.081   7.593   3.562  0.5975  1.1986  1.9575
   9923SM   C7F13461  -0.085   7.643   3.685  0.8404 -0.0676 -0.2416
   9923SM   H7F13462  -0.130   7.543   3.703 -1.4107  1.4232  3.5217
   9923SM   H7G13463  -0.174   7.709   3.677  2.1511  2.2339  2.3992
   9923SM   C8F13464  -0.004   7.694   3.799 -0.9498 -0.3556 -0.1019
   9923SM   H8F13465   0.017   7.798   3.765 -1.0574 -0.6011 -0.9316
   9923SM   H8G13466   0.094   7.642   3.803  1.0115  2.7999 -2.4296
   9923SM   C9F13467  -0.075   7.696   3.932 -0.7798  0.4691  0.1549
   9923SM   H9F13468  -0.183   7.714   3.912 -1.2057 -1.3033  0.7043
   9923SM   H9G13469  -0.035   7.781   3.990 -1.4476  2.1376 -1.7049
   9923SM  C10F13470  -0.054   7.571   4.020  0.0214 -0.1400 -0.2603
   9923SM  H10F13471   0.051   7.572   4.057  0.2786 -0.8960 -0.9287
   9923SM  H10G13472  -0.059   7.487   3.948  1.2301 -0.3176 -0.1675
   9923SM  C11F13473  -0.147   7.545   4.132  0.6423 -0.4222 -0.3549
   9923SM  H11F13474  -0.164   7.436   4.137 -0.0665 -0.3944 -1.5312
   9923SM  H11G13475  -0.243   7.601   4.121  1.1873  0.2921 -1.8382
   9923SM  C12F13476  -0.074   7.583   4.262  0.4119  0.4448 -0.9548
   9923SM  H12F13477  -0.045   7.690   4.261  0.6698  0.3930 -2.9625
   9923SM  H12G13478   0.024   7.533   4.275  1.8046  2.9802 -1.1718
   9923SM  C13F13479  -0.174   7.555   4.387  0.2644  0.0864 -0.3100
   9923SM  H13F13480  -0.211   7.450   4.384 -0.3658  0.2534  0.8740
   9923SM  H13G13481  -0.258   7.627   4.383  0.1472  0.1874  2.0464
   9923SM  C14F13482  -0.102   7.564   4.520  0.4360 -1.0281  0.4407
   9923SM  H14F13483  -0.058   7.665   4.530 -0.8851 -0.2653 -0.9499
   9923SM  H14G13484  -0.015   7.495   4.530  0.2241 -1.3863 -0.1624
   9923SM  C15F13485  -0.205   7.540   4.638  0.7584  0.5568 -0.2208
   9923SM  H15F13486  -0.286   7.616   4.627  0.2449  0.4470  2.2955
   9923SM  H15G13487  -0.147   7.549   4.732  0.7796 -0.8880 -0.0704
   9923SM  C16F13488  -0.261   7.394   4.645  0.2731  0.1166 -0.2475
   9923SM  H16F13489  -0.182   7.318   4.633  1.2134  0.4625  2.9078
   9923SM  H16G13490  -0.336   7.373   4.565 -1.2018 -1.1903  1.4082
   9923SM  C17F13491  -0.329   7.364   4.778 -0.6639  0.2910 -0.0329
   9923SM  H17F13492  -0.249   7.336   4.850 -1.1258  0.0211  0.3853
   9923SM  H17G13493  -0.396   7.278   4.755  1.2970 -0.6576 -2.6634
   9923SM  C18F13494  -0.408   7.480   4.846  0.8203 -0.4463  0.2712
   9923SM  H18F13495  -0.468   7.529   4.766  1.0911  1.9160  1.4167
   9923SM  H18G13496  -0.339   7.559   4.883  0.6848  0.1079 -0.6163
   9923SM  C19F13497  -0.493   7.431   4.961  0.1606  0.4086 -0.6791
   9923SM  H19F13498  -0.430   7.391   5.043  1.5874  2.6022 -0.6329
   9923SM  H19G13499  -0.569   7.357   4.928  2.1120 -0.7305 -2.9035
   9923SM  C20F13500  -0.563   7.552   5.023  0.5028  0.4328 -0.3759
   9923SM  H20F13501  -0.623   7.605   4.947 -1.1434  0.3330  0.8019
   9923SM  H20G13502  -0.500   7.632   5.070 -1.5657  0.6095  2.3335
   9923SM  C21F13503  -0.661   7.511   5.138  0.2801 -0.0504 -0.2572
   9923SM  H21F13504  -0.737   7.439   5.101  1.1969 -1.2625  0.1563
   9923SM  H21G13505  -0.717   7.606   5.149  0.4872  0.3019 -1.9941
   9923SM  C22F13506  -0.603   7.462   5.265 -0.0289 -0.7022 -0.3004
   9923SM  H22F13507  -0.668   7.505   5.344  0.9392  1.6729 -0.6961
   9923SM  H22G13508  -0.498   7.497   5.282  0.9743 -3.9380  1.0001
   9923SM  C23F13509  -0.594   7.308   5.280 -0.0707  0.6462 -0.0078
   9923SM  H23F13510  -0.516   7.283   5.355  1.9098  2.8870 -1.2066
   9923SM  H23G13511  -0.547   7.260   5.192  0.8598 -2.3451  1.9438
   9923SM  H23H13512  -0.690   7.253   5.297  0.3136 -0.1847 -0.4570
  10023SM     N13513   1.406   7.660   2.431 -0.0049  0.1231  0.2992
  10023SM   C1513514   1.420   7.523   2.381 -0.4865  0.4052  0.2852
  10023SM  H15A13515   1.467   7.507   2.286 -0.4118  0.5870  0.2910
  10023SM  H15B13516   1.325   7.471   2.375  0.0416 -0.4666 -0.7927
  10023SM  H15C13517   1.476   7.458   2.446  1.4500  2.5116  0.8349
  10023SM   C1413518   1.542   7.724   2.415  0.2912 -0.0645 -0.2597
  10023SM  H14A13519   1.624   7.666   2.456  0.1420  1.5400  2.5891
  10023SM  H14B13520   1.549   7.822   2.461 -1.8687 -0.0024  0.0375
  10023SM  H14C13521   1.556   7.739   2.309 -3.3601 -1.6068 -1.1077
  10023SM   C1313522   1.314   7.731   2.337  0.3732 -0.5739 -0.7173
  10023SM  H13A13523   1.342   7.836   2.343  1.3665 -0.9062  1.0730
  10023SM  H13B13524   1.214   7.705   2.369  0.1205 -0.4025 -1.3440
  10023SM  H13C13525   1.342   7.700   2.237  2.5870 -3.3828  0.6289
  10023SM   C1213526   1.357   7.660   2.573  0.2021  0.1002  0.4671
  10023SM  H12A13527   1.423   7.595   2.628 -0.4161  0.0436  1.1470
  10023SM  H12B13528   1.265   7.604   2.569  1.3964 -1.9388 -0.4656
  10023SM   C1113529   1.328   7.796   2.638 -0.2279 -0.0159 -0.0938
  10023SM  H11A13530   1.424   7.851   2.647  0.6302 -1.2587 -1.2633
  10023SM  H11B13531   1.303   7.770   2.743  0.4343  1.6856  0.5184
  10023SM     P13532   1.072   7.840   2.579  0.1079  0.0294 -0.2720
  10023SM   O1313533   0.988   7.953   2.541  0.5000  0.6359 -0.2623
  10023SM   O1413534   1.056   7.709   2.510  0.1203  0.0652 -0.4931
  10023SM   O1113535   1.041   7.815   2.732  0.4080  0.0543  0.3804
  10023SM   O1213536   1.221   7.878   2.577  0.3865  0.1252  0.6889
  10023SM   C1S13537   1.061   7.900   2.842  0.0837 -0.0266 -0.0336
  10023SM   H1S13538   0.994   7.988   2.827 -0.9456 -0.7104  0.4398
  10023SM   H1T13539   1.165   7.932   2.863  0.5910 -1.2279 -0.6579
  10023SM    NF13540   1.011   7.923   3.082 -0.1995 -0.2841  0.1766
  10023SM   HNF13541   1.095   7.929   3.135 -0.4520  0.4686  0.5084
  10023SM   C2S13542   1.015   7.827   2.972 -0.4562 -0.2885  0.5512
  10023SM   H2S13543   0.915   7.784   2.954 -0.2953 -0.7540  0.7679
  10023SM   C3S13544   1.105   7.704   2.991 -0.0962 -0.2013  0.4127
  10023SM   H3S13545   1.205   7.740   3.025  0.4147 -0.5347 -0.6970
  10023SM    O313546   1.139   7.619   2.874 -0.6661 -0.5002 -0.4349
  10023SM   HO313547   1.105   7.684   2.811  0.3438 -1.6171 -2.1955
  10023SM   C4S13548   1.048   7.612   3.092  0.2140 -0.6710 -0.3546
  10023SM   H4S13549   0.960   7.548   3.076 -1.4748  1.3082  0.4967
  10023SM   C5S13550   1.095   7.603   3.217  0.5622 -0.2552 -0.0109
  10023SM   H5S13551   1.180   7.661   3.256 -0.2245  0.9815 -0.0476
  10023SM   C6S13552   1.016   7.508   3.307  0.0969 -0.0325 -1.1471
  10023SM   H6S13553   1.083   7.476   3.390 -1.3794 -3.1086 -0.9996
  10023SM   H6T13554   0.988   7.417   3.250  1.4115 -0.9200 -0.4207
  10023SM   C7S13555   0.896   7.577   3.377 -0.7903 -0.4207  0.2938
  10023SM   H7S13556   0.851   7.507   3.450 -1.2506  0.6666  1.0822
  10023SM   H7T13557   0.820   7.607   3.302 -2.2856 -1.0798  1.4885
  10023SM   C8S13558   0.946   7.700   3.457 -0.0151  0.8836  0.1335
  10023SM   H8S13559   0.959   7.778   3.380 -2.1504  1.0586 -0.1131
  10023SM   H8T13560   1.033   7.678   3.523 -0.3673 -1.7194 -0.1541
  10023SM   C9S13561   0.826   7.754   3.546  0.1971  0.3769  0.3771
  10023SM   H9S13562   0.768   7.670   3.590  0.5875 -0.8162 -1.2896
  10023SM   H9T13563   0.767   7.814   3.474  1.8967  0.5266 -0.9453
  10023SM  C10S13564   0.864   7.850   3.656 -0.5778 -0.3253  0.1987
  10023SM  H10S13565   0.942   7.915   3.611 -0.4215  0.9885  2.2543
  10023SM  H10T13566   0.910   7.793   3.740  0.5920  0.3707  0.0514
  10023SM  C11S13567   0.751   7.945   3.697  0.0209 -0.7603  0.0459
  10023SM  H11S13568   0.672   7.887   3.750  0.2123  0.3974  1.6801
  10023SM  H11T13569   0.713   7.983   3.600 -0.4457 -4.1458 -1.2515
  10023SM  C12S13570   0.796   8.062   3.786  0.5949 -0.1982  0.3912
  10023SM  H12S13571   0.712   8.135   3.792  1.0394  0.4648 -1.0046
  10023SM  H12T13572   0.889   8.103   3.741  0.7318 -2.3245 -1.4650
  10023SM  C13S13573   0.848   8.026   3.925  0.5300  0.2016  0.5097
  10023SM  H13S13574   0.947   7.976   3.920  0.5582  0.1891  1.1124
  10023SM  H13T13575   0.777   7.952   3.969 -0.6028  0.3478 -1.0112
  10023SM  C14S13576   0.844   8.145   4.012  0.0224  0.3722 -0.1169
  10023SM  H14S13577   0.738   8.156   4.046 -0.8860  1.5678 -3.0094
  10023SM  H14T13578   0.874   8.243   3.969  0.1245  0.2641 -0.2910
  10023SM  C15S13579   0.932   8.129   4.140 -0.3970  0.2736  0.7247
  10023SM  H15S13580   0.929   8.021   4.162  0.7767  0.1842  0.5266
  10023SM  H15T13581   0.880   8.178   4.225 -2.2649 -4.0216  2.3456
  10023SM  C16S13582   1.076   8.186   4.115 -0.5068 -0.0907  0.0951
  10023SM  H16S13583   1.123   8.193   4.216 -1.2507 -0.4348  0.4760
  10023SM  H16T13584   1.069   8.286   4.067  0.8666 -0.5414 -1.1064
  10023SM  C17S13585   1.163   8.100   4.022  0.2771  0.1268  0.5122
  10023SM  H17S13586   1.115   8.099   3.921 -0.5604 -4.6902  0.7393
  10023SM  H17T13587   1.149   7.998   4.063 -2.4881  0.3900  0.4546
  10023SM  C18S13588   1.307   8.136   4.020  0.7214 -0.3198  0.4894
  10023SM  H18S13589   1.327   8.245   4.017 -1.4901  0.1936  1.7359
  10023SM  H18T13590   1.365   8.083   3.942 -0.3379 -0.8662  0.0523
  10023SM  H18U13591   1.344   8.125   4.124  0.0224  0.6852  0.8607
  10023SM   C1F13592   0.907   7.998   3.094  0.4336 -0.1618 -0.0163
  10023SM    OF13593   0.817   7.990   3.017  0.2652 -0.0512 -0.7202
  10023SM   C2F13594   0.911   8.093   3.211 -0.9947  0.5939 -0.9680
  10023SM   H2F13595   1.002   8.156   3.207 -0.1592 -0.6456 -2.6345
  10023SM   H2G13596   0.915   8.036   3.306 -0.4337  1.4447 -0.4729
  10023SM   C3F13597   0.785   8.176   3.229  0.0254  0.6064  0.4682
  10023SM   H3F13598   0.693   8.113   3.226  1.0110 -0.9926  1.9145
  10023SM   H3G13599   0.781   8.248   3.145  1.0332  1.9107  1.4762
  10023SM   C4F13600   0.797   8.267   3.349 -0.3311 -0.0001  0.0424
  10023SM   H4F13601   0.889   8.329   3.357 -0.2783 -0.1254  0.4397
  10023SM   H4G13602   0.802   8.208   3.443  1.4986 -0.8651 -0.5641
  10023SM   C5F13603   0.675   8.354   3.357 -0.0628 -1.3606  0.2491
  10023SM   H5F13604   0.599   8.278   3.383  0.1422 -1.3178  0.9901
  10023SM   H5G13605   0.643   8.401   3.261 -0.9369 -1.9313  0.2485
  10023SM   C6F13606   0.676   8.463   3.464  0.1381  0.1820  0.4284
  10023SM   H6F13607   0.586   8.527   3.450 -0.4952 -0.8091 -0.1556
  10023SM   H6G13608   0.762   8.530   3.443  0.9851 -0.5595  1.4488
  10023SM   C7F13609   0.701   8.415   3.603  0.3481  0.7649  0.3085
  10023SM   H7F13610   0.808   8.390   3.623  0.5939  0.3079 -1.4371
  10023SM   H7G13611   0.647   8.320   3.623 -0.3344  1.2946  1.0966
  10023SM   C8F13612   0.650   8.510   3.705 -0.4768 -0.3678 -0.1346
  10023SM   H8F13613   0.540   8.521   3.702 -0.4369  0.2031  0.2813
  10023SM   H8G13614   0.674   8.618   3.694  0.7757 -0.7735 -1.7013
  10023SM   C9F13615   0.695   8.482   3.850 -0.2277  0.1571 -0.1167
  10023SM   H9F13616   0.797   8.522   3.870 -0.2503  0.1333  0.0504
  10023SM   H9G13617   0.707   8.373   3.871  3.3265  0.1455 -1.5205
  10023SM  C10F13618   0.599   8.550   3.945 -0.2183  0.5671  0.3707
  10023SM  H10F13619   0.499   8.517   3.908 -1.1029  0.2174  2.8735
  10023SM  H10G13620   0.604   8.659   3.925 -1.6467  0.4236 -0.9602
  10023SM  C11F13621   0.601   8.507   4.093 -0.8602 -0.6225 -0.0913
  10023SM  H11F13622   0.582   8.398   4.098 -2.1663 -0.3956  0.3476
  10023SM  H11G13623   0.516   8.563   4.137 -0.5841  0.7470 -1.2383
  10023SM  C12F13624   0.734   8.536   4.152  0.1139 -0.3596 -0.5306
  10023SM  H12F13625   0.775   8.634   4.123 -1.3555  0.3407 -0.3337
  10023SM  H12G13626   0.810   8.458   4.131 -0.8201 -1.1455 -1.0515
  10023SM  C13F13627   0.725   8.556   4.304 -0.1105  0.2840 -0.1906
  10023SM  H13F13628   0.629   8.609   4.321 -1.1055 -1.1587 -1.1258
  10023SM  H13G13629   0.811   8.616   4.342 -0.7211  2.6886 -2.3061
  10023SM  C14F13630   0.737   8.419   4.379 -0.0031 -0.1244 -0.1766
  10023SM  H14F13631   0.820   8.359   4.336 -0.8955 -0.5312 -1.4014
  10023SM  H14G13632   0.638   8.374   4.357 -0.3908  1.2897 -1.4334
  10023SM  C15F13633   0.758   8.435   4.530  0.0653  0.1421 -0.5070
  10023SM  H15F13634   0.858   8.478   4.553 -0.5066  0.9112  0.6896
  10023SM  H15G13635   0.753   8.331   4.568 -0.7177 -0.4042 -2.0156
  10023SM  C16F13636   0.649   8.510   4.602  0.4544  0.7786  0.0713
  10023SM  H16F13637   0.559   8.448   4.581 -0.6238  2.1836  0.4532
  10023SM  H16G13638   0.632   8.610   4.556 -1.3474  0.2656 -0.4598
  10023SM  C17F13639   0.680   8.518   4.755  0.1467  0.1084  0.1223
  10023SM  H17F13640   0.779   8.562   4.780  0.5453  0.5937 -2.0504
  10023SM  H17G13641   0.705   8.417   4.794  2.4137  0.0194 -1.3521
  10023SM  C18F13642   0.568   8.588   4.837 -0.4740  0.5122 -0.3202
  10023SM  H18F13643   0.466   8.548   4.818  0.5646 -0.8970 -3.6790
  10023SM  H18G13644   0.556   8.697   4.823 -2.3087  0.6400  1.8232
  10023SM  C19F13645   0.601   8.564   4.989  0.0701 -0.2977  0.2717
  10023SM  H19F13646   0.698   8.615   5.010 -1.3403  2.0607  1.4580
  10023SM  H19G13647   0.606   8.453   4.998 -0.1616 -0.2091  1.8879
  10023SM  C20F13648   0.489   8.619   5.077 -0.3873  0.4018  0.3575
  10023SM  H20F13649   0.398   8.557   5.062 -0.4868  0.9544 -1.5018
  10023SM  H20G13650   0.466   8.724   5.048  0.2036  0.4270 -0.0201
  10023SM  C21F13651   0.531   8.628   5.228 -0.1045  0.1891 -0.7272
  10023SM  H21F13652   0.627   8.681   5.245 -1.0663  2.1012 -0.9044
  10023SM  H21G13653   0.544   8.524   5.265  2.1064  0.7383  0.1379
  10023SM  C22F13654   0.416   8.701   5.308  0.6447  0.8311 -0.4579
  10023SM  H22F13655   0.383   8.785   5.245 -1.9737 -1.0327 -1.7439
  10023SM  H22G13656   0.444   8.748   5.405  0.6810 -1.3795  0.6779
  10023SM  C23F13657   0.309   8.597   5.346  0.3386 -0.0734 -0.2850
  10023SM  H23F13658   0.333   8.517   5.419  2.7906  1.3399  0.5643
  10023SM  H23G13659   0.270   8.536   5.261  1.3127 -1.5973  0.3233
  10023SM  H23H13660   0.225   8.652   5.394  1.7287  0.5725  1.4869
  101CHL1    C313661   2.940   5.382   6.549  0.5860  0.7387 -0.0313
  101CHL1    H313662   3.041   5.401   6.590  1.4025 -1.6174 -0.7634
  101CHL1    O313663   2.854   5.391   6.663  0.2406 -0.1606 -0.1801
  101CHL1   H3'13664   2.839   5.479   6.699 -1.1849 -0.9541  1.3139
  101CHL1    C413665   2.910   5.480   6.435 -0.5569 -0.3364  0.8111
  101CHL1   H4A13666   2.805   5.471   6.402  0.5377  0.0088 -3.3525
  101CHL1   H4B13667   2.930   5.585   6.466 -0.0895 -0.0606 -0.3501
  101CHL1    C513668   2.995   5.440   6.318  0.4677 -0.3169  0.3291
  101CHL1    C613669   3.074   5.536   6.269  0.2549 -0.1360 -0.8196
  101CHL1    H613670   3.082   5.639   6.305  1.0708 -0.7290  0.8092
  101CHL1    C713671   3.158   5.509   6.145 -0.0217  0.1448 -0.1923
  101CHL1   H7A13672   3.157   5.598   6.080 -1.4227  0.4355  0.1998
  101CHL1   H7B13673   3.260   5.487   6.183 -0.5861 -2.4498  0.0309
  101CHL1    C813674   3.108   5.394   6.061 -0.4013  0.1056 -0.0956
  101CHL1    H813675   3.020   5.438   6.009  1.3280  1.5043 -2.0104
  101CHL1   C1413676   3.204   5.352   5.947 -0.1130  0.4376 -0.1356
  101CHL1   H1413677   3.297   5.319   5.999 -0.7464 -2.0127 -0.4567
  101CHL1   C1513678   3.256   5.465   5.851 -0.0777 -0.2387 -0.0453
  101CHL1  H15A13679   3.176   5.533   5.816  1.3463  0.8446 -1.3476
  101CHL1  H15B13680   3.334   5.513   5.914  1.8941 -0.8602 -1.8695
  101CHL1   C1613681   3.317   5.379   5.735 -0.0580  0.0391  0.2816
  101CHL1  H16A13682   3.279   5.415   5.637  0.0900  0.7546  0.4857
  101CHL1  H16B13683   3.427   5.392   5.738 -0.0852  0.4233 -0.3159
  101CHL1   C1713684   3.277   5.227   5.763  0.4873  0.2469 -0.9218
  101CHL1   H1713685   3.361   5.182   5.820 -0.1290 -0.8960 -0.8745
  101CHL1   C1313686   3.163   5.236   5.864  0.2005 -0.0717  0.0434
  101CHL1   C1813687   3.028   5.263   5.792  0.4174  0.7194  0.1285
  101CHL1  H18A13688   2.990   5.172   5.742  0.4338  0.0732  1.2604
  101CHL1  H18B13689   2.953   5.282   5.872  1.8233  2.5675  1.1024
  101CHL1  H18C13690   3.026   5.344   5.716 -5.7611 -0.2149 -1.2494
  101CHL1   C1213691   3.161   5.118   5.959 -0.0535 -0.1306 -1.0279
  101CHL1  H12A13692   3.148   5.016   5.917  2.3924 -1.3990  0.9693
  101CHL1  H12B13693   3.259   5.097   6.007 -0.0958 -1.5514 -1.5068
  101CHL1   C1113694   3.046   5.135   6.068  0.7759 -0.1411 -0.3446
  101CHL1  H11A13695   2.951   5.147   6.011 -0.2986 -0.3206  1.3587
  101CHL1  H11B13696   3.041   5.050   6.139  2.2917  2.4293  3.1670
  101CHL1    C913697   3.077   5.268   6.149  0.2382 -0.0097  0.2517
  101CHL1    H913698   3.170   5.241   6.204 -1.2207 -1.5825  2.0950
  101CHL1   C1013699   2.981   5.294   6.261  1.0214 -0.9566 -0.3734
  101CHL1   C1913700   2.831   5.279   6.213  0.1469  0.1604 -0.6275
  101CHL1  H19A13701   2.811   5.351   6.130 -0.6661  0.7218  0.0429
  101CHL1  H19B13702   2.810   5.179   6.169 -1.0993  0.3286 -0.4657
  101CHL1  H19C13703   2.767   5.304   6.300  0.2928  0.7013 -0.6761
  101CHL1    C113704   3.026   5.204   6.383 -0.2389  0.2550  0.6732
  101CHL1   H1A13705   3.012   5.097   6.357  0.0941  0.0197  1.4171
  101CHL1   H1B13706   3.132   5.225   6.406  0.0574  0.5910 -0.9117
  101CHL1    C213707   2.943   5.236   6.511 -0.7012  0.0149  0.5219
  101CHL1   H2A13708   2.970   5.171   6.596  0.0084  0.0607  0.3378
  101CHL1   H2B13709   2.837   5.217   6.481 -0.4035 -4.0802  1.5874
  101CHL1   C2013710   3.265   5.149   5.635  0.2352 -0.6210 -0.2549
  101CHL1   H2013711   3.182   5.201   5.582 -0.6419  2.6006  3.7906
  101CHL1   C2113712   3.225   5.006   5.672  1.1592  0.7726  0.1248
  101CHL1  H21A13713   3.281   4.982   5.765 -1.5794  1.6351  2.1115
  101CHL1  H21B13714   3.232   4.930   5.590 -0.8114 -0.4930  1.0655
  101CHL1  H21C13715   3.119   4.997   5.703  0.9231  0.9145 -0.6234
  101CHL1   C2213716   3.392   5.163   5.551 -0.4310  0.5284  0.2341
  101CHL1  H22A13717   3.430   5.267   5.537  0.5416  0.0815 -0.5721
  101CHL1  H22B13718   3.480   5.116   5.600  0.0700  2.1371  0.9672
  101CHL1   C2313719   3.377   5.118   5.406 -0.7047  0.0155  0.5999
  101CHL1  H23A13720   3.353   5.010   5.399 -0.8393  0.0415  0.6531
  101CHL1  H23B13721   3.295   5.170   5.353  0.4144  0.2163 -1.0044
  101CHL1   C2413722   3.508   5.140   5.330  0.3336 -0.1342 -0.2741
  101CHL1  H24A13723   3.544   5.245   5.335  0.2765 -0.0826 -0.8508
  101CHL1  H24B13724   3.588   5.082   5.381  1.0933 -0.9708 -2.2979
  101CHL1   C2513725   3.507   5.107   5.174  0.0107  0.0510 -0.7228
  101CHL1   H2513726   3.481   4.999   5.177 -1.1621  0.3250 -0.4586
  101CHL1   C2613727   3.392   5.176   5.096  0.4411  0.1975  0.4009
  101CHL1  H26A13728   3.402   5.287   5.098  0.5243  0.1880  0.4931
  101CHL1  H26B13729   3.394   5.139   4.991 -1.6158 -0.2547  0.4682
  101CHL1  H26C13730   3.290   5.156   5.136 -0.4796  3.3001 -0.0938
  101CHL1   C2713731   3.639   5.122   5.106 -0.2624  0.1150  0.9591
  101CHL1  H27A13732   3.720   5.129   5.182  0.3091  1.6593  0.2623
  101CHL1  H27B13733   3.676   5.050   5.031  1.7423  0.9473  1.0710
  101CHL1  H27C13734   3.647   5.223   5.060 -0.2686 -0.9078 -1.4179
  102CHL1    C313735   3.207   4.699   6.455 -0.8511  0.2613 -0.4169
  102CHL1    H313736   3.107   4.674   6.414 -1.3692  0.7737  0.4923
  102CHL1    O313737   3.188   4.726   6.593 -0.5906 -0.3463 -0.6502
  102CHL1   H3'13738   3.275   4.753   6.624 -0.2069 -1.1146 -1.0310
  102CHL1    C413739   3.305   4.581   6.431  0.2011 -0.2797  0.5239
  102CHL1   H4A13740   3.393   4.578   6.500  0.9487  0.2282 -0.3840
  102CHL1   H4B13741   3.246   4.494   6.466 -0.0780 -0.4943 -0.4607
  102CHL1    C513742   3.347   4.573   6.288 -0.0431  0.1277  0.6912
  102CHL1    C613743   3.341   4.456   6.219  0.5562 -0.0315  0.3294
  102CHL1    H613744   3.309   4.367   6.274 -3.8312  0.9108 -0.3902
  102CHL1    C713745   3.401   4.429   6.083 -0.2679 -0.9770  0.5980
  102CHL1   H7A13746   3.464   4.337   6.088  0.0769 -0.7002  1.5636
  102CHL1   H7B13747   3.308   4.409   6.025 -0.1284 -0.2893  0.1198
  102CHL1    C813748   3.471   4.549   6.015 -0.3852 -0.4254  1.0431
  102CHL1    H813749   3.580   4.557   6.039 -0.3030  0.9013  0.3401
  102CHL1   C1413750   3.462   4.546   5.859  0.4518 -0.3981  0.4062
  102CHL1   H1413751   3.353   4.552   5.838  0.7014 -3.4489 -2.5601
  102CHL1   C1513752   3.511   4.419   5.791  0.1825  0.0912  0.3089
  102CHL1  H15A13753   3.609   4.392   5.836 -0.0193 -1.1238  0.0585
  102CHL1  H15B13754   3.443   4.332   5.791  1.6528 -1.1384 -1.6463
  102CHL1   C1613755   3.546   4.459   5.645  0.0871  0.0267  0.6879
  102CHL1  H16A13756   3.649   4.421   5.630 -0.3159 -0.4331 -1.1572
  102CHL1  H16B13757   3.481   4.413   5.567  1.4745  0.7530 -0.9651
  102CHL1   C1713758   3.524   4.611   5.635 -0.4539 -0.0525 -0.7768
  102CHL1   H1713759   3.418   4.622   5.605 -0.4748  0.2213 -0.6051
  102CHL1   C1313760   3.530   4.664   5.787 -0.5669 -0.0441  0.1555
  102CHL1   C1813761   3.675   4.681   5.834 -0.6428  0.3207  0.3251
  102CHL1  H18A13762   3.727   4.769   5.791 -0.3817 -0.1286 -0.3051
  102CHL1  H18B13763   3.687   4.705   5.941 -3.1152 -2.5739  1.4176
  102CHL1  H18C13764   3.733   4.587   5.820  1.4324  1.6512 -0.5037
  102CHL1   C1213765   3.456   4.788   5.823 -0.4301 -0.1237  0.0349
  102CHL1  H12A13766   3.504   4.878   5.779  0.2657 -0.3327  0.3420
  102CHL1  H12B13767   3.354   4.775   5.781 -1.0020  0.1883  1.2819
  102CHL1   C1113768   3.454   4.810   5.976  0.6908  0.1551 -0.0408
  102CHL1  H11A13769   3.552   4.844   6.015  0.8294 -2.1088  1.8730
  102CHL1  H11B13770   3.387   4.897   5.987  0.0260 -0.1808 -1.2491
  102CHL1    C913771   3.409   4.685   6.058 -0.1485 -0.3774  0.6342
  102CHL1    H913772   3.303   4.674   6.028  0.1743  3.1090 -2.4872
  102CHL1   C1013773   3.401   4.700   6.216  0.4623 -0.3930  0.0149
  102CHL1   C1913774   3.540   4.726   6.266  0.7870  0.6182 -0.4382
  102CHL1  H19A13775   3.545   4.714   6.376 -0.9018 -1.9710 -0.5478
  102CHL1  H19B13776   3.616   4.663   6.216 -0.2765 -1.5741  0.5864
  102CHL1  H19C13777   3.570   4.832   6.248  1.0893  0.1410 -3.2275
  102CHL1    C113778   3.299   4.817   6.254  0.5752 -0.1209  0.1609
  102CHL1   H1A13779   3.348   4.912   6.222 -1.0502  0.7604  0.1441
  102CHL1   H1B13780   3.204   4.812   6.195  1.6654  1.8778 -1.9314
  102CHL1    C213781   3.258   4.832   6.404 -0.7536  0.6172  0.0639
  102CHL1   H2A13782   3.185   4.913   6.424  0.9147  1.2731  4.5893
  102CHL1   H2B13783   3.351   4.860   6.457  0.1789 -1.4009 -0.4188
  102CHL1   C2013784   3.620   4.671   5.531  0.4393 -0.4297 -0.3075
  102CHL1   H2013785   3.724   4.645   5.559  0.1280 -0.5504  0.7855
  102CHL1   C2113786   3.605   4.821   5.518 -0.4482  0.4549 -0.3990
  102CHL1  H21A13787   3.504   4.851   5.482 -0.2547  0.2991 -1.0840
  102CHL1  H21B13788   3.680   4.861   5.446  0.3810 -0.7154 -0.2077
  102CHL1  H21C13789   3.625   4.883   5.608 -0.2304 -0.6338  0.3069
  102CHL1   C2213790   3.590   4.607   5.393  0.7198  0.3237 -0.2463
  102CHL1  H22A13791   3.634   4.507   5.409  1.3654  0.5968 -0.2788
  102CHL1  H22B13792   3.479   4.611   5.389  0.6383 -0.0155  1.0738
  102CHL1   C2313793   3.664   4.673   5.267 -0.1662 -0.4592 -0.2963
  102CHL1  H23A13794   3.606   4.765   5.242  1.9602  1.0983  0.2073
  102CHL1  H23B13795   3.772   4.691   5.288 -0.1730 -1.1661  0.4033
  102CHL1   C2413796   3.671   4.582   5.150  0.4523 -0.6325  0.1033
  102CHL1  H24A13797   3.717   4.484   5.176  2.1086 -0.3758 -1.6573
  102CHL1  H24B13798   3.570   4.553   5.112 -0.9857  0.0554  3.1019
  102CHL1   C2513799   3.744   4.626   5.028 -0.1572 -0.0299  0.0846
  102CHL1   H2513800   3.838   4.660   5.077 -0.6539 -0.2803  1.2491
  102CHL1   C2613801   3.781   4.520   4.921 -0.2588  0.0410 -0.4421
  102CHL1  H26A13802   3.838   4.552   4.832  0.9571 -0.6497  0.0589
  102CHL1  H26B13803   3.848   4.454   4.981 -1.8739  0.1686  1.6195
  102CHL1  H26C13804   3.693   4.466   4.879  0.7743 -0.5807 -1.8651
  102CHL1   C2713805   3.671   4.744   4.969  1.0507  0.3371  0.8630
  102CHL1  H27A13806   3.720   4.793   4.882 -1.2985  1.2600 -0.0317
  102CHL1  H27B13807   3.572   4.706   4.938  0.4733  1.0195  1.8210
  102CHL1  H27C13808   3.656   4.826   5.043  1.1825  0.2607  0.9749
  103CHL1    C313809   2.502   1.781   6.660  0.6309 -0.1749  0.0887
  103CHL1    H313810   2.593   1.741   6.611  0.2010  0.7223 -1.5038
  103CHL1    O313811   2.447   1.684   6.746  0.2569 -0.2960 -0.1700
  103CHL1   H3'13812   2.370   1.726   6.786 -1.6918 -2.9414 -0.8051
  103CHL1    C413813   2.550   1.902   6.742  0.3603  0.0984  0.1784
  103CHL1   H4A13814   2.473   1.921   6.819  0.0500 -0.9330  0.1300
  103CHL1   H4B13815   2.632   1.859   6.803 -2.3418 -3.0021  1.8902
  103CHL1    C513816   2.598   2.019   6.657 -0.2756  0.5585 -0.5431
  103CHL1    C613817   2.709   2.090   6.679  0.2416  0.1006  0.0271
  103CHL1    H613818   2.780   2.062   6.758  0.6319 -1.6448 -0.9083
  103CHL1    C713819   2.748   2.213   6.603 -0.2677  0.4205 -0.0209
  103CHL1   H7A13820   2.761   2.291   6.680 -1.0857  0.7430 -0.1988
  103CHL1   H7B13821   2.846   2.187   6.557 -1.2181 -1.8083 -0.9079
  103CHL1    C813822   2.645   2.263   6.497  0.0551 -0.4573  0.9799
  103CHL1    H813823   2.583   2.338   6.551 -2.8350 -3.1937  1.7618
  103CHL1   C1413824   2.723   2.334   6.386  0.0297  0.2226 -0.5412
  103CHL1   H1413825   2.783   2.254   6.338  1.2310  1.1333 -0.6021
  103CHL1   C1513826   2.832   2.439   6.422  0.0113 -0.2980 -0.6094
  103CHL1  H15A13827   2.786   2.510   6.494  0.6341 -1.3067  0.8295
  103CHL1  H15B13828   2.922   2.396   6.471  0.0863  0.9294  0.3811
  103CHL1   C1613829   2.851   2.525   6.295 -0.1712 -0.1103  0.4231
  103CHL1  H16A13830   2.845   2.634   6.311  0.6705 -0.0257  0.1883
  103CHL1  H16B13831   2.952   2.503   6.255 -0.7338 -2.8220  0.2903
  103CHL1   C1713832   2.743   2.478   6.194  0.0741 -0.0666 -0.4808
  103CHL1   H1713833   2.800   2.396   6.145 -0.8121  1.1173 -3.7185
  103CHL1   C1313834   2.633   2.395   6.274  0.2217  0.1765  0.0980
  103CHL1   C1813835   2.532   2.502   6.332 -0.2678  0.5406 -0.5265
  103CHL1  H18A13836   2.581   2.590   6.379  1.6527 -0.7661  0.0530
  103CHL1  H18B13837   2.469   2.533   6.246  0.5436 -0.8254 -1.6538
  103CHL1  H18C13838   2.472   2.455   6.413  0.7222  1.4246  0.7757
  103CHL1   C1213839   2.563   2.278   6.208  0.4125  0.3187 -0.0260
  103CHL1  H12A13840   2.481   2.315   6.142 -1.6831 -0.5487  1.9501
  103CHL1  H12B13841   2.634   2.214   6.151  0.3543 -0.7038  1.0137
  103CHL1   C1113842   2.484   2.195   6.312 -0.2774  0.1345  1.0586
  103CHL1  H11A13843   2.405   2.262   6.354  1.1899  3.5077 -1.1327
  103CHL1  H11B13844   2.444   2.101   6.268  0.2770 -0.4937  1.8845
  103CHL1    C913845   2.569   2.151   6.433 -0.3182  0.4771 -0.9496
  103CHL1    H913846   2.645   2.088   6.381 -1.5530 -0.8799 -1.1809
  103CHL1   C1013847   2.506   2.050   6.538 -0.2375  0.2011 -0.4955
  103CHL1   C1913848   2.385   2.127   6.596  0.7726 -0.3317  0.4775
  103CHL1  H19A13849   2.323   2.142   6.505  1.3205  0.3834  0.2175
  103CHL1  H19B13850   2.326   2.070   6.671  1.1212 -0.5278  0.6051
  103CHL1  H19C13851   2.408   2.227   6.637 -2.7290  0.8846 -0.1906
  103CHL1    C113852   2.447   1.924   6.466  0.8303 -0.2843 -0.3530
  103CHL1   H1A13853   2.362   1.959   6.402 -0.3985 -0.2358  1.2492
  103CHL1   H1B13854   2.519   1.866   6.405  1.8238 -0.9440  1.3879
  103CHL1    C213855   2.391   1.816   6.561  0.0064 -0.0480 -0.1091
  103CHL1   H2A13856   2.363   1.727   6.500  2.5161 -0.7039 -0.4575
  103CHL1   H2B13857   2.302   1.853   6.614  1.0852  1.9142  0.4216
  103CHL1   C2013858   2.716   2.568   6.079  0.2243 -0.2714 -0.1616
  103CHL1   H2013859   2.639   2.645   6.100 -0.1229 -0.4583 -0.7115
  103CHL1   C2113860   2.653   2.488   5.960 -1.1402  0.4390 -0.9361
  103CHL1  H21A13861   2.624   2.560   5.881 -2.3429  0.6230 -0.3385
  103CHL1  H21B13862   2.563   2.434   5.996 -1.6202  2.8819  1.9313
  103CHL1  H21C13863   2.735   2.419   5.929  0.7100  2.3164 -0.5126
  103CHL1   C2213864   2.847   2.640   6.025  0.1466  0.3090 -0.0800
  103CHL1  H22A13865   2.935   2.574   6.040 -0.1768 -0.1897 -0.3557
  103CHL1  H22B13866   2.832   2.636   5.915 -3.7058  0.6340  0.2913
  103CHL1   C2313867   2.871   2.787   6.059  0.3648 -0.4483  0.2304
  103CHL1  H23A13868   2.786   2.857   6.042  0.9444  0.0180 -0.8386
  103CHL1  H23B13869   2.885   2.792   6.169 -1.0999  1.1291  0.3890
  103CHL1   C2413870   2.993   2.839   5.986  0.5149 -0.4890 -0.1365
  103CHL1  H24A13871   3.090   2.790   6.010  2.3488  2.5379 -0.7300
  103CHL1  H24B13872   2.978   2.832   5.877 -3.8014 -0.1397  0.2788
  103CHL1   C2513873   3.020   2.986   6.010 -0.6653  0.0169  0.2181
  103CHL1   H2513874   3.047   2.988   6.118  0.1631 -0.2925  0.0313
  103CHL1   C2613875   3.144   3.042   5.943 -0.4408 -0.6862  0.1118
  103CHL1  H26A13876   3.233   2.977   5.957 -0.5413 -1.0672 -0.9523
  103CHL1  H26B13877   3.129   3.060   5.834  2.4723 -2.9333 -0.7854
  103CHL1  H26C13878   3.173   3.139   5.989  0.7445 -1.1215  0.3308
  103CHL1   C2713879   2.901   3.082   5.982 -0.2571  0.2046  0.4172
  103CHL1  H27A13880   2.935   3.187   5.992  0.4043  0.0850 -0.4794
  103CHL1  H27B13881   2.853   3.050   5.887 -2.2025  2.0565  0.7020
  103CHL1  H27C13882   2.831   3.059   6.065 -0.5045 -0.3945  0.0522
  104CHL1    C313883   5.541   2.896   6.494  0.0135 -0.1067  0.4495
  104CHL1    H313884   5.487   2.993   6.488  1.3448  0.6254 -0.1428
  104CHL1    O313885   5.554   2.858   6.634  0.9167 -0.3548 -0.0123
  104CHL1   H3'13886   5.611   2.781   6.628  0.5216 -0.6998  0.5319
  104CHL1    C413887   5.453   2.781   6.437  0.1827  0.4785  0.1812
  104CHL1   H4A13888   5.506   2.683   6.442  1.2617  1.0247 -0.2494
  104CHL1   H4B13889   5.365   2.763   6.503  1.4527  0.5559  1.9869
  104CHL1    C513890   5.426   2.811   6.293  0.8568  0.2313 -0.0578
  104CHL1    C613891   5.295   2.814   6.250 -0.6151  0.0436  0.1271
  104CHL1    H613892   5.214   2.801   6.324 -0.9376 -2.3789 -0.5703
  104CHL1    C713893   5.261   2.836   6.106 -0.2263 -0.1445 -0.6385
  104CHL1   H7A13894   5.175   2.775   6.072 -0.1822 -0.1851 -0.6774
  104CHL1   H7B13895   5.234   2.942   6.084  1.1996 -0.0976 -2.4316
  104CHL1    C813896   5.379   2.807   6.010 -0.1103 -0.3143 -0.4439
  104CHL1    H813897   5.407   2.699   6.009  2.2537  0.2564 -0.8900
  104CHL1   C1413898   5.343   2.865   5.876  0.5739  0.0887  0.0447
  104CHL1   H1413899   5.332   2.973   5.902 -0.0337  0.1380 -0.3999
  104CHL1   C1513900   5.219   2.808   5.809 -0.5641  0.1694 -0.6602
  104CHL1  H15A13901   5.208   2.697   5.814 -0.6923  0.2318  2.3402
  104CHL1  H15B13902   5.133   2.853   5.861  0.6172  1.9085 -0.1263
  104CHL1   C1613903   5.234   2.853   5.666 -0.2472  0.4408 -0.2543
  104CHL1  H16A13904   5.213   2.763   5.605 -2.0311  1.2352 -0.8935
  104CHL1  H16B13905   5.167   2.940   5.647  0.3308  1.3949  1.7747
  104CHL1   C1713906   5.382   2.907   5.655 -0.6377 -0.6488  0.1106
  104CHL1   H1713907   5.371   3.014   5.683 -0.6282 -0.5042 -0.4213
  104CHL1   C1313908   5.463   2.854   5.773  0.1250 -0.2303 -0.5968
  104CHL1   C1813909   5.511   2.717   5.749  0.2213 -0.4350 -0.1496
  104CHL1  H18A13910   5.592   2.723   5.672 -0.1785 -1.5512 -0.6722
  104CHL1  H18B13911   5.568   2.670   5.832  0.1990 -1.8890 -0.9278
  104CHL1  H18C13912   5.434   2.649   5.707 -2.0259  1.9232 -0.1091
  104CHL1   C1213913   5.574   2.952   5.832 -0.1613  0.4090 -0.4207
  104CHL1  H12A13914   5.660   2.951   5.761 -1.1968 -0.9444 -1.7374
  104CHL1  H12B13915   5.528   3.051   5.849 -1.6989 -0.0597 -1.5868
  104CHL1   C1113916   5.615   2.904   5.972  0.0350  0.3076 -0.1511
  104CHL1  H11A13917   5.687   2.820   5.961  1.0211  0.9169  1.3206
  104CHL1  H11B13918   5.682   2.986   6.006  0.2793 -0.6713  1.8877
  104CHL1    C913919   5.504   2.886   6.077  0.8326  0.3873 -0.7385
  104CHL1    H913920   5.474   2.990   6.099  0.4434 -0.4036  3.0867
  104CHL1   C1013921   5.550   2.829   6.209 -0.4765 -0.0359 -0.2129
  104CHL1   C1913922   5.617   2.686   6.185  0.2671 -0.5398 -0.5008
  104CHL1  H19A13923   5.653   2.649   6.283  0.7781  0.8665 -0.1320
  104CHL1  H19B13924   5.550   2.613   6.134  0.2445 -0.5899 -0.3987
  104CHL1  H19C13925   5.704   2.690   6.116 -0.1403 -0.7592 -1.0379
  104CHL1    C113926   5.643   2.932   6.276  1.0441 -0.1145  1.3174
  104CHL1   H1A13927   5.739   2.930   6.220 -0.1884 -0.9950 -0.8927
  104CHL1   H1B13928   5.594   3.031   6.262 -1.0946 -1.1516  1.0574
  104CHL1    C213929   5.676   2.905   6.416  0.4056 -0.4341  0.0426
  104CHL1   H2A13930   5.735   2.995   6.444 -1.0075  0.8510 -0.9465
  104CHL1   H2B13931   5.731   2.810   6.435  1.0322 -0.0829  0.0139
  104CHL1   C2013932   5.448   2.908   5.508  0.3203 -0.4711 -0.0733
  104CHL1   H2013933   5.557   2.927   5.520  0.2822  0.6413 -1.2244
  104CHL1   C2113934   5.400   3.031   5.426  0.2667  0.1063  0.2199
  104CHL1  H21A13935   5.300   3.017   5.380  0.4604 -0.6728  0.0167
  104CHL1  H21B13936   5.481   3.048   5.352  0.7750 -1.7851  0.2675
  104CHL1  H21C13937   5.400   3.125   5.485  0.9729  0.5504 -0.4692
  104CHL1   C2213938   5.438   2.773   5.435 -0.6900 -0.1397 -0.6958
  104CHL1  H22A13939   5.469   2.689   5.500  0.2286 -0.4992 -1.5613
  104CHL1  H22B13940   5.332   2.759   5.408 -0.5918 -0.8390 -0.7284
  104CHL1   C2313941   5.520   2.767   5.304 -0.1338 -0.6167  0.0310
  104CHL1  H23A13942   5.473   2.834   5.230  1.1007  3.6561  2.7492
  104CHL1  H23B13943   5.615   2.818   5.332 -0.9455  1.9381 -1.4998
  104CHL1   C2413944   5.548   2.628   5.250 -1.1698  0.2067  0.3236
  104CHL1  H24A13945   5.563   2.556   5.333  2.1355  1.0451  0.5668
  104CHL1  H24B13946   5.446   2.600   5.214 -0.1637 -0.0477 -2.6155
  104CHL1   C2513947   5.660   2.619   5.140 -0.0835 -0.4097  0.1982
  104CHL1   H2513948   5.748   2.670   5.186 -2.9252  2.9554  2.4282
  104CHL1   C2613949   5.680   2.472   5.107 -0.4710  0.5804  0.1961
  104CHL1  H26A13950   5.753   2.459   5.025 -0.6953 -2.1321  0.3621
  104CHL1  H26B13951   5.707   2.414   5.198 -1.4134 -0.5496 -0.2209
  104CHL1  H26C13952   5.575   2.446   5.082 -0.4770  1.6421 -0.9870
  104CHL1   C2713953   5.630   2.700   5.012 -0.8496 -0.4320  0.0591
  104CHL1  H27A13954   5.606   2.805   5.036 -1.5239 -0.5669 -0.0047
  104CHL1  H27B13955   5.724   2.702   4.952 -0.8894  1.1648  0.0153
  104CHL1  H27C13956   5.550   2.656   4.949 -0.5935  2.0271 -2.1311
  105CHL1    C313957   5.294   2.253   6.563  0.7868 -0.1654  0.1217
  105CHL1    H313958   5.197   2.222   6.518  1.0198  0.8869 -1.2023
  105CHL1    O313959   5.280   2.273   6.702  0.5667  0.1673 -0.4695
  105CHL1   H3'13960   5.188   2.298   6.707  0.8860  1.5787 -1.2277
  105CHL1    C413961   5.412   2.157   6.534  0.4943  0.3229  0.2786
  105CHL1   H4A13962   5.511   2.198   6.565  0.5866 -0.1992  0.6863
  105CHL1   H4B13963   5.394   2.068   6.597 -1.8821 -0.3270 -1.1913
  105CHL1    C513964   5.419   2.132   6.377 -0.5704 -0.8163  0.4304
  105CHL1    C613965   5.424   2.006   6.324 -0.8052 -0.0633  0.3699
  105CHL1    H613966   5.424   1.920   6.394  0.6501  1.8724  2.9182
  105CHL1    C713967   5.434   1.980   6.174 -0.0494  0.3492 -0.6082
  105CHL1   H7A13968   5.502   1.895   6.154 -1.7836 -1.0481 -0.7415
  105CHL1   H7B13969   5.331   1.953   6.145 -0.5500 -0.5761  1.7931
  105CHL1    C813970   5.483   2.104   6.096  0.0062  0.6534 -0.5116
  105CHL1    H813971   5.591   2.109   6.120  0.3067  1.8544 -1.9671
  105CHL1   C1413972   5.453   2.082   5.948 -0.8486 -0.2248 -0.2301
  105CHL1   H1413973   5.342   2.083   5.948 -0.8814  1.3312  1.1384
  105CHL1   C1513974   5.513   1.948   5.885  0.3776  0.1003 -0.4417
  105CHL1  H15A13975   5.621   1.945   5.914  0.2217 -1.1912  0.0671
  105CHL1  H15B13976   5.460   1.854   5.911 -0.3905  0.7429  0.3839
  105CHL1   C1613977   5.511   1.984   5.735 -0.3653  0.9587  0.8566
  105CHL1  H16A13978   5.612   1.970   5.691 -0.4970 -1.4832  1.2044
  105CHL1  H16B13979   5.449   1.914   5.675 -0.3770  1.0335  0.7806
  105CHL1   C1713980   5.466   2.134   5.718 -0.0364 -0.0729  0.3230
  105CHL1   H1713981   5.357   2.139   5.699  0.4469 -0.5379 -3.3078
  105CHL1   C1313982   5.501   2.192   5.851  0.0255 -0.2570 -0.0335
  105CHL1   C1813983   5.650   2.221   5.863  0.4113 -0.5811  0.2989
  105CHL1  H18A13984   5.707   2.131   5.832  0.4439 -0.5044  0.1353
  105CHL1  H18B13985   5.686   2.314   5.815  1.4907 -0.9852  0.2960
  105CHL1  H18C13986   5.685   2.231   5.968 -0.8158  1.6238  0.5630
  105CHL1   C1213987   5.414   2.315   5.886  0.7718  0.5494  0.4829
  105CHL1  H12A13988   5.443   2.402   5.823  1.7738 -0.0338  0.1166
  105CHL1  H12B13989   5.308   2.292   5.862  1.2333  2.0356 -3.8970
  105CHL1   C1113990   5.429   2.345   6.036 -0.0654 -0.6444 -0.2354
  105CHL1  H11A13991   5.531   2.388   6.049  0.4692 -1.8584 -0.2906
  105CHL1  H11B13992   5.352   2.420   6.064 -0.7942 -0.5622 -2.2230
  105CHL1    C913993   5.406   2.229   6.134 -0.4744  0.4093  0.2703
  105CHL1    H913994   5.300   2.203   6.114 -0.5287  2.1161 -1.9210
  105CHL1   C1013995   5.429   2.259   6.288 -0.1618 -0.3744  0.3332
  105CHL1   C1913996   5.570   2.326   6.305 -0.4490  0.4638  0.9298
  105CHL1  H19A13997   5.654   2.260   6.279 -0.2817  0.4522  1.4745
  105CHL1  H19B13998   5.581   2.424   6.254  3.1794  0.0707  0.7520
  105CHL1  H19C13999   5.573   2.353   6.413  2.0360  1.9195  0.5626
  105CHL1    C114000   5.311   2.361   6.330 -0.4454  0.0056  0.2049
  105CHL1   H1A14001   5.330   2.456   6.277  0.6076  0.1980  0.8845
  105CHL1   H1B14002   5.212   2.321   6.302 -0.8284 -0.8058  2.4561
  105CHL1    C214003   5.306   2.385   6.479 -0.1691  0.1161 -0.2724
  105CHL1   H2A14004   5.219   2.447   6.509  0.3129 -0.1815  1.9785
  105CHL1   H2B14005   5.399   2.441   6.506  0.0572 -0.0746 -0.6608
  105CHL1   C2014006   5.525   2.197   5.597  0.0755 -0.2899 -0.6097
  105CHL1   H2014007   5.636   2.202   5.607 -0.0030 -2.5400  4.5230
  105CHL1   C2114008   5.487   2.343   5.591  0.5435 -0.4060 -0.4251
  105CHL1  H21A14009   5.390   2.372   5.638  1.6780 -0.2451  1.9916
  105CHL1  H21B14010   5.476   2.380   5.487  5.2081 -1.1377 -1.3893
  105CHL1  H21C14011   5.562   2.409   5.640 -2.0741  2.7113 -0.2042
  105CHL1   C2214012   5.494   2.113   5.469  0.2217  0.9644 -0.4103
  105CHL1  H22A14013   5.545   2.016   5.485 -1.8142 -0.2053 -0.7538
  105CHL1  H22B14014   5.385   2.093   5.457  0.3428  0.9395 -1.5651
  105CHL1   C2314015   5.533   2.173   5.333 -1.0014 -0.2554 -0.4753
  105CHL1  H23A14016   5.491   2.273   5.306 -1.0921 -0.0419  0.4286
  105CHL1  H23B14017   5.642   2.192   5.344 -1.0855  0.1903 -0.3640
  105CHL1   C2414018   5.503   2.075   5.217 -0.2897 -0.6440 -0.9716
  105CHL1  H24A14019   5.539   1.973   5.241  0.2342 -0.6395 -1.6840
  105CHL1  H24B14020   5.395   2.071   5.193 -0.4603  1.4671 -0.7392
  105CHL1   C2514021   5.559   2.125   5.082 -0.0618 -0.2434  0.4160
  105CHL1   H2514022   5.533   2.233   5.080  0.0664 -0.2200 -0.7451
  105CHL1   C2614023   5.708   2.119   5.075  0.0849  0.5622 -0.0772
  105CHL1  H26A14024   5.748   2.218   5.105  0.1493  0.5875 -0.2427
  105CHL1  H26B14025   5.738   2.033   5.139 -1.3649 -1.3250 -1.8124
  105CHL1  H26C14026   5.749   2.097   4.973  1.6403 -1.1860  0.8604
  105CHL1   C2714027   5.503   2.050   4.965 -0.7464  0.2528  0.3090
  105CHL1  H27A14028   5.524   1.941   4.971  1.7616  0.7094  1.0421
  105CHL1  H27B14029   5.392   2.047   4.964 -0.7754  1.0993  0.4571
  105CHL1  H27C14030   5.537   2.095   4.869 -3.3246 -3.1717 -2.4846
  106CHL1    C314031   2.542   1.333   6.690 -0.6003 -0.0557 -0.4839
  106CHL1    H314032   2.545   1.227   6.721  1.0497 -0.8933 -3.1760
  106CHL1    O314033   2.509   1.409   6.803 -0.1138 -0.2536 -0.0999
  106CHL1   H3'14034   2.491   1.497   6.768  3.4565 -0.1338 -2.0806
  106CHL1    C414035   2.682   1.375   6.637  0.8824  0.0279  0.2099
  106CHL1   H4A14036   2.679   1.486   6.635 -2.5341  0.0505 -1.4493
  106CHL1   H4B14037   2.750   1.344   6.720  0.3204  0.0334  0.6843
  106CHL1    C514038   2.722   1.303   6.516 -0.1329 -0.0979  0.4279
  106CHL1    C614039   2.837   1.236   6.509 -0.5693  0.2345 -0.0883
  106CHL1    H614040   2.903   1.233   6.597  0.4155  0.8187 -0.7843
  106CHL1    C714041   2.881   1.164   6.389 -0.0230  0.1168  0.0389
  106CHL1   H7A14042   2.988   1.186   6.372 -0.1207  1.9861  1.4971
  106CHL1   H7B14043   2.876   1.056   6.415 -0.1280  0.7025  2.7604
  106CHL1    C814044   2.794   1.197   6.260 -0.1497  0.1571 -0.2884
  106CHL1    H814045   2.838   1.297   6.240  1.4038  0.2345  2.8048
  106CHL1   C1414046   2.822   1.090   6.159  0.2398  0.2325 -0.2046
  106CHL1   H1414047   2.780   1.001   6.209 -0.4446  0.5246 -0.2547
  106CHL1   C1514048   2.969   1.053   6.134  0.1414  0.1374  0.4246
  106CHL1  H15A14049   3.044   1.134   6.124  0.7701 -0.3447  1.1269
  106CHL1  H15B14050   2.992   0.973   6.208  0.6434 -1.3982 -1.3025
  106CHL1   C1614051   2.959   0.994   5.990  0.1010  0.7767  0.7954
  106CHL1  H16A14052   3.014   1.064   5.923 -0.4907  0.4601 -0.0311
  106CHL1  H16B14053   3.002   0.892   5.980  0.3705  0.6938  2.5251
  106CHL1   C1714054   2.811   1.008   5.938 -0.2530 -0.1976  0.3044
  106CHL1   H1714055   2.757   0.915   5.966 -0.2018 -0.1313  0.6243
  106CHL1   C1314056   2.752   1.126   6.022 -0.7034  1.1841  0.0026
  106CHL1   C1814057   2.796   1.261   5.965 -0.1099 -0.4482  0.0335
  106CHL1  H18A14058   2.735   1.271   5.873  1.6108  1.6369 -0.9595
  106CHL1  H18B14059   2.775   1.340   6.041  3.4971  1.1823 -0.4718
  106CHL1  H18C14060   2.907   1.255   5.957 -0.2335 -3.5132 -0.7136
  106CHL1   C1214061   2.600   1.123   6.051  0.7688 -0.3682  0.3765
  106CHL1  H12A14062   2.538   1.136   5.959 -0.5879  0.9684  1.4252
  106CHL1  H12B14063   2.580   1.016   6.075 -1.7230  0.1713  1.0598
  106CHL1   C1114064   2.569   1.223   6.163 -0.4895  0.7640  0.0006
  106CHL1  H11A14065   2.585   1.324   6.120  0.7647  1.1173  1.2417
  106CHL1  H11B14066   2.463   1.215   6.197  0.1342 -1.4989  1.6885
  106CHL1    C914067   2.651   1.204   6.296  0.1998 -0.7580 -0.0002
  106CHL1    H914068   2.620   1.105   6.337 -1.2326  0.0165  0.8477
  106CHL1   C1014069   2.617   1.310   6.408 -0.3238 -0.0639  0.4927
  106CHL1   C1914070   2.617   1.454   6.353  0.1627  0.7748  0.1621
  106CHL1  H19A14071   2.584   1.525   6.431 -0.0407  3.7271 -2.4099
  106CHL1  H19B14072   2.705   1.493   6.298 -0.0968 -0.4927 -1.2333
  106CHL1  H19C14073   2.542   1.473   6.274  2.7337  1.6905 -2.2405
  106CHL1    C114074   2.475   1.271   6.466  1.1306  0.7522 -0.9686
  106CHL1   H1A14075   2.395   1.285   6.390 -0.1030 -1.2384 -0.1122
  106CHL1   H1B14076   2.472   1.162   6.486 -0.2418  1.2129  1.7715
  106CHL1    C214077   2.433   1.353   6.590  0.0363 -0.1565 -0.1748
  106CHL1   H2A14078   2.341   1.307   6.632 -1.1352  0.2276 -2.1822
  106CHL1   H2B14079   2.420   1.457   6.555  0.5404  0.3227  1.0167
  106CHL1   C2014080   2.813   1.019   5.782  0.0136 -0.4928  0.0473
  106CHL1   H2014081   2.871   1.109   5.753 -3.3531  1.4025 -1.4045
  106CHL1   C2114082   2.668   1.023   5.729 -0.1512  0.5787 -0.5293
  106CHL1  H21A14083   2.622   1.114   5.774 -2.2187 -1.0888  0.9836
  106CHL1  H21B14084   2.611   0.935   5.766  0.3563  0.2029 -0.6428
  106CHL1  H21C14085   2.655   1.025   5.619 -1.9243  0.7081 -0.3610
  106CHL1   C2214086   2.885   0.903   5.715  0.8050 -0.4429 -0.3221
  106CHL1  H22A14087   2.988   0.888   5.755  0.0393 -0.7280  1.7002
  106CHL1  H22B14088   2.846   0.804   5.747 -0.2592  0.1892  0.3988
  106CHL1   C2314089   2.887   0.914   5.559 -0.4331  0.0005  0.9139
  106CHL1  H23A14090   2.785   0.892   5.521 -0.7744  4.4352 -1.3364
  106CHL1  H23B14091   2.900   1.020   5.532  0.3184 -0.5574 -1.0880
  106CHL1   C2414092   2.985   0.821   5.488 -0.1879  0.6441 -0.2215
  106CHL1  H24A14093   3.090   0.855   5.495 -0.8909  3.3528 -1.4482
  106CHL1  H24B14094   2.980   0.720   5.535  0.5902  0.0275 -1.3876
  106CHL1   C2514095   2.967   0.792   5.335  0.0746  0.4409 -0.6343
  106CHL1   H2514096   3.036   0.709   5.307 -0.5972 -0.6703  0.8534
  106CHL1   C2614097   2.827   0.731   5.306  0.3462  0.6780 -0.0112
  106CHL1  H26A14098   2.827   0.700   5.199  2.4646 -1.2116  0.4436
  106CHL1  H26B14099   2.807   0.640   5.367  0.0337 -0.5366 -1.8296
  106CHL1  H26C14100   2.750   0.808   5.324 -1.0458 -0.4720 -0.8564
  106CHL1   C2714101   2.980   0.922   5.255  0.7031  1.0152  0.1559
  106CHL1  H27A14102   2.891   0.982   5.282  1.1148  0.7109  2.4115
  106CHL1  H27B14103   3.069   0.982   5.283 -0.6450  2.2091  2.1157
  106CHL1  H27C14104   2.973   0.908   5.145 -1.8921  1.5928  0.1830
  107CHL1    C314105   4.914   6.596   6.386 -0.5470 -0.2862 -0.5727
  107CHL1    H314106   4.876   6.696   6.353  1.7312  0.1460 -2.0933
  107CHL1    O314107   4.895   6.597   6.523  0.1586  0.1854  0.5755
  107CHL1   H3'14108   4.950   6.526   6.557  0.9737 -0.2643 -1.5562
  107CHL1    C414109   4.833   6.485   6.325 -0.2169 -0.5997  0.3511
  107CHL1   H4A14110   4.853   6.396   6.388  1.1024  0.5780  1.6766
  107CHL1   H4B14111   4.726   6.514   6.337 -0.5918 -1.6836 -0.1839
  107CHL1    C514112   4.870   6.469   6.177 -0.5869 -0.2724 -0.0453
  107CHL1    C614113   4.778   6.478   6.074  1.0146  0.1063 -0.3526
  107CHL1    H614114   4.679   6.519   6.098  1.7951  1.4587  0.6892
  107CHL1    C714115   4.808   6.457   5.927  0.4510 -0.2773 -0.7539
  107CHL1   H7A14116   4.730   6.405   5.867 -1.2853  0.6216  0.6413
  107CHL1   H7B14117   4.814   6.559   5.882  2.3623  0.8731  1.8300
  107CHL1    C814118   4.939   6.380   5.902 -0.2974  0.0040  0.2464
  107CHL1    H814119   4.929   6.282   5.953 -0.1862  0.2339  0.7194
  107CHL1   C1414120   4.986   6.374   5.762  0.8587  0.1096 -0.4603
  107CHL1   H1414121   5.009   6.480   5.738  1.4929 -0.1902 -1.2289
  107CHL1   C1514122   4.882   6.332   5.656  0.6046 -0.4524  0.4295
  107CHL1  H15A14123   4.831   6.243   5.697 -1.5772  0.1467 -0.8208
  107CHL1  H15B14124   4.809   6.413   5.632  0.5448 -0.3827  0.8486
  107CHL1   C1614125   4.967   6.287   5.538 -0.0092 -0.0597  0.5164
  107CHL1  H16A14126   4.953   6.184   5.499  3.3879  0.3678 -2.3889
  107CHL1  H16B14127   4.940   6.358   5.456 -3.4579 -0.3093  1.2825
  107CHL1   C1714128   5.113   6.317   5.581 -0.1265  0.1221  0.9858
  107CHL1   H1714129   5.134   6.420   5.547 -1.5482 -0.9956 -4.1993
  107CHL1   C1314130   5.118   6.298   5.733  0.8329 -0.6141 -0.1146
  107CHL1   C1814131   5.100   6.150   5.778 -0.8524  0.5922  0.7518
  107CHL1  H18A14132   5.123   6.150   5.887  1.3692  1.5552  0.3460
  107CHL1  H18B14133   5.002   6.102   5.760 -0.3895 -1.3833  2.9734
  107CHL1  H18C14134   5.190   6.099   5.735  0.0396  1.3183  1.7042
  107CHL1   C1214135   5.234   6.365   5.806  0.2901  0.0252  0.0947
  107CHL1  H12A14136   5.324   6.302   5.791  2.0470  2.0653  1.5002
  107CHL1  H12B14137   5.243   6.462   5.754 -2.3796  0.4351  0.2343
  107CHL1   C1114138   5.194   6.381   5.956 -0.3108 -0.1892 -0.3790
  107CHL1  H11A14139   5.213   6.289   6.014 -0.6797  0.7343  1.2838
  107CHL1  H11B14140   5.273   6.447   5.998  0.8138 -0.7997 -1.4733
  107CHL1    C914141   5.051   6.444   5.989 -0.3247  0.5256 -0.1831
  107CHL1    H914142   5.061   6.551   5.962  1.5143  0.3957 -0.1703
  107CHL1   C1014143   5.019   6.441   6.141  0.4993  0.0520 -0.2551
  107CHL1   C1914144   5.051   6.308   6.219 -0.6967 -0.0570 -0.4478
  107CHL1  H19A14145   5.044   6.315   6.330  0.6596 -0.4953 -0.3163
  107CHL1  H19B14146   4.977   6.232   6.185 -1.7666  0.6508  0.2273
  107CHL1  H19C14147   5.148   6.262   6.191 -0.5510  0.0108 -0.0584
  107CHL1    C114148   5.098   6.555   6.203  0.2050 -0.1068 -0.7363
  107CHL1   H1A14149   5.206   6.529   6.205  0.0345 -1.0800 -2.5743
  107CHL1   H1B14150   5.068   6.646   6.146 -0.4501  0.9809  1.2416
  107CHL1    C214151   5.059   6.579   6.354  0.4820 -0.3557  0.3986
  107CHL1   H2A14152   5.110   6.672   6.387  2.1214 -0.7814 -0.8247
  107CHL1   H2B14153   5.101   6.498   6.418  1.2705 -1.4913 -1.4794
  107CHL1   C2014154   5.206   6.224   5.502  0.3346 -0.6056  0.6039
  107CHL1   H2014155   5.171   6.119   5.507 -2.4697  0.2066 -0.3161
  107CHL1   C2114156   5.356   6.235   5.544 -0.8075  0.4807 -0.1872
  107CHL1  H21A14157   5.394   6.340   5.542  2.6168 -0.6369 -0.2226
  107CHL1  H21B14158   5.408   6.173   5.468  0.4805 -0.0266  1.0619
  107CHL1  H21C14159   5.367   6.187   5.644  0.0673  1.4824  0.2192
  107CHL1   C2214160   5.202   6.253   5.353 -0.6061  0.4547  0.4263
  107CHL1  H22A14161   5.296   6.224   5.301 -0.8715  2.4768 -1.3522
  107CHL1  H22B14162   5.113   6.203   5.310 -0.2736 -1.0107  1.3919
  107CHL1   C2314163   5.198   6.398   5.296  0.4712 -0.1007  0.1664
  107CHL1  H23A14164   5.098   6.441   5.320  1.1390  1.1569  0.7819
  107CHL1  H23B14165   5.279   6.455   5.346  0.1897  0.8879 -0.4880
  107CHL1   C2414166   5.219   6.403   5.139 -1.2072  0.6726 -0.2023
  107CHL1  H24A14167   5.317   6.356   5.119 -1.6685 -0.3191 -0.1668
  107CHL1  H24B14168   5.144   6.338   5.089  1.2537 -1.9376 -0.7475
  107CHL1   C2514169   5.231   6.549   5.084 -0.6638 -0.4799 -0.1905
  107CHL1   H2514170   5.133   6.598   5.103 -1.5266 -2.2282 -0.0080
  107CHL1   C2614171   5.338   6.638   5.146 -0.0201  0.0452 -0.0751
  107CHL1  H26A14172   5.442   6.621   5.111  0.5979  0.8886  1.2623
  107CHL1  H26B14173   5.316   6.746   5.127 -1.9970 -0.3858 -0.5107
  107CHL1  H26C14174   5.341   6.616   5.255  0.3140 -1.8364 -0.4283
  107CHL1   C2714175   5.253   6.549   4.937 -0.1121 -0.8890  0.1791
  107CHL1  H27A14176   5.238   6.656   4.910 -2.9813 -1.3846 -0.4495
  107CHL1  H27B14177   5.356   6.520   4.906 -0.7541 -2.1167 -0.9269
  107CHL1  H27C14178   5.176   6.487   4.886 -1.3709  0.5772  0.2451
  108CHL1    C314179   6.592   1.351   6.397  0.4924  0.6031  0.0953
  108CHL1    H314180   6.525   1.262   6.400 -0.0291  0.6105 -4.2934
  108CHL1    O314181   6.613   1.421   6.517  0.1732 -0.8688  0.1347
  108CHL1   H3'14182   6.660   1.500   6.489  0.2104 -1.2557 -0.9101
  108CHL1    C414183   6.725   1.281   6.346  0.2826  0.6407  0.5445
  108CHL1   H4A14184   6.794   1.365   6.325  1.0290 -0.3900 -1.4526
  108CHL1   H4B14185   6.759   1.213   6.427 -0.0445 -2.6732 -1.8837
  108CHL1    C514186   6.707   1.194   6.220  0.5278  0.2827 -0.3300
  108CHL1    C614187   6.735   1.062   6.219  1.2472 -0.4894 -0.0735
  108CHL1    H614188   6.770   1.017   6.313 -0.2514 -1.5370  0.0120
  108CHL1    C714189   6.711   0.978   6.095  0.0349 -0.0388  0.0101
  108CHL1   H7A14190   6.792   0.907   6.068 -0.1844 -0.1582 -0.3476
  108CHL1   H7B14191   6.626   0.910   6.114  0.2813 -0.1099  0.8681
  108CHL1    C814192   6.673   1.060   5.960  0.1939 -0.1582  0.5093
  108CHL1    H814193   6.773   1.098   5.929  0.1049  1.3203  1.9200
  108CHL1   C1414194   6.609   0.981   5.851 -0.2398  0.2265 -0.6138
  108CHL1   H1414195   6.513   0.951   5.897 -0.2291  0.3724 -0.4955
  108CHL1   C1514196   6.680   0.841   5.817  0.0325  0.1344 -0.1922
  108CHL1  H15A14197   6.788   0.862   5.827  0.2123 -0.2466 -1.1995
  108CHL1  H15B14198   6.653   0.760   5.889  0.0128  0.5325  0.2536
  108CHL1   C1614199   6.637   0.816   5.671  0.2331 -0.7875 -0.4049
  108CHL1  H16A14200   6.727   0.825   5.608  1.1604  1.7670  1.1177
  108CHL1  H16B14201   6.579   0.722   5.666 -1.0226 -0.6187  4.7205
  108CHL1   C1714202   6.541   0.930   5.622  0.4933 -0.2712 -0.0845
  108CHL1   H1714203   6.443   0.906   5.670  1.5195  0.7913  2.7641
  108CHL1   C1314204   6.578   1.051   5.719  0.2350  0.1187  0.0477
  108CHL1   C1814205   6.708   1.112   5.660  0.0711 -0.3478  0.2624
  108CHL1  H18A14206   6.687   1.158   5.561 -1.5312 -0.3073  0.5993
  108CHL1  H18B14207   6.748   1.195   5.722  1.7831 -1.4914  0.7647
  108CHL1  H18C14208   6.788   1.034   5.661 -0.0041 -0.4457 -0.7323
  108CHL1   C1214209   6.473   1.157   5.742  0.0265  0.3522 -0.1841
  108CHL1  H12A14210   6.452   1.206   5.644 -0.1312 -1.9726 -1.3840
  108CHL1  H12B14211   6.388   1.090   5.766  0.5130 -1.8316 -3.7663
  108CHL1   C1114212   6.516   1.242   5.863  1.0985 -0.1576 -0.1282
  108CHL1  H11A14213   6.588   1.319   5.828 -0.2726  1.2737  0.1202
  108CHL1  H11B14214   6.428   1.299   5.899  0.8652  0.2342 -1.2721
  108CHL1    C914215   6.576   1.172   5.992 -0.6022 -0.0153 -0.3173
  108CHL1    H914216   6.487   1.119   6.030 -2.3962  0.6654 -3.2534
  108CHL1   C1014217   6.636   1.269   6.098  0.3079 -0.2381  0.6173
  108CHL1   C1914218   6.742   1.361   6.034 -0.0210  0.3534 -0.7149
  108CHL1  H19A14219   6.820   1.296   5.990  0.0537  0.1240 -0.2411
  108CHL1  H19B14220   6.711   1.437   5.959  0.8479  1.9313  0.4618
  108CHL1  H19C14221   6.784   1.422   6.117 -1.6787  1.6248 -0.7428
  108CHL1    C114222   6.519   1.353   6.159  0.0223  0.0620  0.4379
  108CHL1   H1A14223   6.495   1.429   6.082  1.0522  2.1001  2.0253
  108CHL1   H1B14224   6.430   1.287   6.164 -0.1436  0.2088 -0.4284
  108CHL1    C214225   6.539   1.437   6.285 -0.2808  0.0284 -0.6088
  108CHL1   H2A14226   6.444   1.486   6.315 -0.0209  0.1131  0.0732
  108CHL1   H2B14227   6.609   1.520   6.263 -2.0394  1.3712 -1.3771
  108CHL1   C2014228   6.514   0.961   5.475  0.6731 -0.1142  0.1465
  108CHL1   H2014229   6.475   1.064   5.479 -0.0990 -0.4301  2.4910
  108CHL1   C2114230   6.395   0.864   5.431  1.2353  0.2163 -0.0042
  108CHL1  H21A14231   6.304   0.876   5.494  1.1425  0.7965 -0.2447
  108CHL1  H21B14232   6.434   0.761   5.442 -1.5937 -0.8785  0.6735
  108CHL1  H21C14233   6.370   0.874   5.323 -1.0196 -2.0596  0.2033
  108CHL1   C2214234   6.625   0.949   5.370  0.2389 -0.3066 -0.7422
  108CHL1  H22A14235   6.724   0.964   5.419 -0.0638  0.7055 -0.4108
  108CHL1  H22B14236   6.622   0.843   5.339  0.9082 -0.2825 -0.9153
  108CHL1   C2314237   6.604   1.040   5.252 -0.5362 -0.0327  0.0149
  108CHL1  H23A14238   6.508   1.008   5.206  0.2871  1.8426 -3.3717
  108CHL1  H23B14239   6.591   1.141   5.296 -1.7367 -0.4420  0.6369
  108CHL1   C2414240   6.718   1.030   5.147  0.2853 -0.1953 -0.5282
  108CHL1  H24A14241   6.813   1.062   5.195 -0.1532  0.4525 -0.0683
  108CHL1  H24B14242   6.735   0.928   5.107 -0.5993  0.3424 -2.4107
  108CHL1   C2514243   6.689   1.132   5.034  0.4189  0.0210  0.3470
  108CHL1   H2514244   6.665   1.230   5.080 -1.4208  0.0726 -0.6329
  108CHL1   C2614245   6.815   1.141   4.954 -1.5942 -0.1285 -0.3795
  108CHL1  H26A14246   6.808   1.213   4.869  2.3634 -1.1252 -1.8041
  108CHL1  H26B14247   6.897   1.150   5.029 -1.0175 -2.3495 -0.6721
  108CHL1  H26C14248   6.844   1.049   4.899  0.5658  0.5645 -0.5359
  108CHL1   C2714249   6.582   1.091   4.935 -0.7419 -0.2716  0.7312
  108CHL1  H27A14250   6.607   0.989   4.900  0.3411  0.2887 -0.1796
  108CHL1  H27B14251   6.479   1.088   4.976 -0.9071  0.3893  0.3722
  108CHL1  H27C14252   6.582   1.163   4.850 -1.9221 -1.0936  0.0014
  109CHL1    C314253   3.227   6.611   6.373  0.0773  0.6958  0.4248
  109CHL1    H314254   3.238   6.719   6.348  1.9240  0.2966 -0.7139
  109CHL1    O314255   3.251   6.574   6.510  0.3231 -0.4670  0.3009
  109CHL1   H3'14256   3.235   6.480   6.502 -0.2156 -0.5026  1.6229
  109CHL1    C414257   3.078   6.574   6.344 -0.1732 -0.6134  0.4753
  109CHL1   H4A14258   3.035   6.476   6.377 -0.2183 -0.8171 -0.1759
  109CHL1   H4B14259   3.024   6.643   6.412 -0.2247 -2.5900  2.5850
  109CHL1    C514260   3.054   6.596   6.194  0.3390 -0.2009 -0.3351
  109CHL1    C614261   2.956   6.677   6.159  0.3077 -0.2406  1.3287
  109CHL1    H614262   2.887   6.697   6.243  0.3477 -0.6866  1.4718
  109CHL1    C714263   2.916   6.701   6.018 -0.0509 -0.2073  0.6750
  109CHL1   H7A14264   2.805   6.693   6.010 -0.0426 -0.0968  0.4329
  109CHL1   H7B14265   2.935   6.805   5.987  0.2192 -0.1533  1.0203
  109CHL1    C814266   2.985   6.605   5.915 -0.4879 -0.7101  0.1962
  109CHL1    H814267   2.945   6.501   5.915  0.0173 -0.9085  0.5544
  109CHL1   C1414268   2.969   6.657   5.771  0.1505  0.2420  0.1596
  109CHL1   H1414269   3.023   6.754   5.773 -0.4141  0.6823 -2.1844
  109CHL1   C1514270   2.832   6.699   5.727  0.5585  0.2767 -0.7613
  109CHL1  H15A14271   2.769   6.607   5.732  0.0677  0.6318 -0.4457
  109CHL1  H15B14272   2.789   6.792   5.768  1.7850  1.0037 -1.0798
  109CHL1   C1614273   2.858   6.725   5.579 -0.5938 -0.6281  0.7525
  109CHL1  H16A14274   2.771   6.687   5.521 -1.4056  1.9999  0.1389
  109CHL1  H16B14275   2.855   6.835   5.570  1.4731 -0.5596  0.5478
  109CHL1   C1714276   3.001   6.675   5.539  0.4887  0.0111 -0.6834
  109CHL1   H1714277   3.077   6.755   5.554 -0.0534  0.3851  0.1307
  109CHL1   C1314278   3.040   6.576   5.661 -0.0709 -0.9743 -0.2357
  109CHL1   C1814279   2.987   6.436   5.638 -0.0690 -0.7028  0.1742
  109CHL1  H18A14280   2.876   6.437   5.645 -0.0373  0.9402  0.8750
  109CHL1  H18B14281   3.019   6.388   5.543 -1.1535 -1.0808 -0.0147
  109CHL1  H18C14282   3.021   6.376   5.725 -0.5660  0.5711  1.2891
  109CHL1   C1214283   3.192   6.566   5.698  0.1614 -0.0891 -0.1836
  109CHL1  H12A14284   3.247   6.503   5.625 -0.2799  0.1370 -0.7178
  109CHL1  H12B14285   3.240   6.666   5.693  0.2116  0.0617  2.2516
  109CHL1   C1114286   3.220   6.522   5.841 -0.8658  0.1592 -0.1634
  109CHL1  H11A14287   3.210   6.411   5.846 -0.7254  0.2081  2.2482
  109CHL1  H11B14288   3.329   6.541   5.852 -0.6718 -0.6774 -0.5306
  109CHL1    C914289   3.135   6.595   5.953 -0.4670  0.3315 -0.5483
  109CHL1    H914290   3.178   6.697   5.960  1.1009 -0.3378  0.0981
  109CHL1   C1014291   3.153   6.536   6.092 -0.3216 -0.7222 -0.5322
  109CHL1   C1914292   3.120   6.383   6.085 -0.3824 -0.0825  0.2641
  109CHL1  H19A14293   3.019   6.355   6.049 -0.1910  0.1936 -0.4995
  109CHL1  H19B14294   3.196   6.314   6.043  0.7536  0.3284  1.5579
  109CHL1  H19C14295   3.120   6.353   6.192 -1.2264  1.1816  0.6420
  109CHL1    C114296   3.302   6.565   6.137 -0.4163  0.3071  0.2049
  109CHL1   H1A14297   3.370   6.500   6.078 -2.4972 -0.1077 -1.8968
  109CHL1   H1B14298   3.320   6.674   6.121 -1.5359  0.7556  1.7729
  109CHL1    C214299   3.331   6.538   6.288  0.2238 -0.2728 -0.0776
  109CHL1   H2A14300   3.434   6.570   6.313 -0.2944  1.2110  0.2901
  109CHL1   H2B14301   3.311   6.429   6.300  0.5410 -0.2756  0.4599
  109CHL1   C2014302   3.002   6.628   5.395 -0.1199 -0.1207 -0.2229
  109CHL1   H2014303   2.946   6.533   5.380 -0.9871 -0.3005  3.2485
  109CHL1   C2114304   3.146   6.582   5.354  0.5380 -0.4436 -0.3857
  109CHL1  H21A14305   3.226   6.657   5.374  0.9132 -0.5056 -1.5600
  109CHL1  H21B14306   3.152   6.560   5.245 -1.1162  1.6650 -0.9720
  109CHL1  H21C14307   3.169   6.490   5.411 -0.9228 -0.4250  0.2702
  109CHL1   C2214308   2.947   6.726   5.290 -0.2987  0.2906  0.0552
  109CHL1  H22A14309   2.959   6.674   5.192 -0.4546 -0.3424  0.3694
  109CHL1  H22B14310   2.840   6.755   5.303 -0.0649  0.6895  1.1512
  109CHL1   C2314311   3.020   6.867   5.289  0.1751 -0.7441  0.4593
  109CHL1  H23A14312   3.021   6.921   5.386 -0.4065  3.3400 -1.6148
  109CHL1  H23B14313   3.127   6.854   5.262  0.0691  0.8862 -0.8888
  109CHL1   C2414314   2.941   6.949   5.194  0.4709  0.0847 -0.0371
  109CHL1  H24A14315   2.941   6.890   5.100 -0.8409 -0.0185  0.0110
  109CHL1  H24B14316   2.839   6.965   5.233  0.7322 -0.1558  0.7510
  109CHL1   C2514317   3.005   7.084   5.164 -0.0046  0.6816 -0.4911
  109CHL1   H2514318   3.111   7.070   5.132 -0.2901  0.5158 -1.3745
  109CHL1   C2614319   2.935   7.140   5.040  0.4163  0.4365 -0.6589
  109CHL1  H26A14320   2.991   7.227   5.000 -2.6633  2.0824 -1.7344
  109CHL1  H26B14321   2.936   7.069   4.955 -0.2473 -0.6961  0.2498
  109CHL1  H26C14322   2.829   7.171   5.047 -0.7516 -3.3213  0.4324
  109CHL1   C2714323   3.000   7.179   5.281 -0.0758  0.0491  0.5144
  109CHL1  H27A14324   2.893   7.195   5.306  0.2628 -0.6810  2.5853
  109CHL1  H27B14325   3.045   7.138   5.373 -0.7120  0.4258  0.9988
  109CHL1  H27C14326   3.052   7.270   5.242  1.3686 -0.8776  0.1939
  110CHL1    C314327   1.195   5.562   6.334  0.1180 -0.1337  0.4957
  110CHL1    H314328   1.173   5.460   6.295 -0.7282  0.1110  0.3138
  110CHL1    O314329   1.207   5.576   6.472 -0.1151  0.5459 -0.3764
  110CHL1   H3'14330   1.220   5.670   6.488 -1.0877  0.3900  1.6910
  110CHL1    C414331   1.321   5.623   6.264  0.3321 -0.0250  0.7795
  110CHL1   H4A14332   1.333   5.729   6.297 -3.8448  0.9585 -0.2406
  110CHL1   H4B14333   1.413   5.578   6.307  0.3832  0.7619  1.5385
  110CHL1    C514334   1.309   5.613   6.113 -0.5810  0.6571  0.0942
  110CHL1    C614335   1.390   5.535   6.037  0.1279 -0.0581  0.2531
  110CHL1    H614336   1.470   5.476   6.084 -1.3507 -0.8933  1.8260
  110CHL1    C714337   1.390   5.540   5.887 -0.1216 -0.6110 -0.2362
  110CHL1   H7A14338   1.494   5.528   5.849 -0.1926  0.0254 -0.6355
  110CHL1   H7B14339   1.337   5.446   5.859 -1.0339 -0.3911  0.6887
  110CHL1    C814340   1.301   5.662   5.828  0.4270  0.2217 -0.0192
  110CHL1    H814341   1.365   5.752   5.836  2.2679 -1.1086  1.2708
  110CHL1   C1414342   1.267   5.631   5.680 -0.2181  0.0030  0.1108
  110CHL1   H1414343   1.197   5.545   5.680 -1.6699  1.0485 -2.7721
  110CHL1   C1514344   1.387   5.591   5.589 -0.0963 -0.4654 -0.0016
  110CHL1  H15A14345   1.475   5.654   5.613 -0.8686  0.9839 -0.8423
  110CHL1  H15B14346   1.425   5.487   5.600 -0.1667 -0.3965  0.9906
  110CHL1   C1614347   1.329   5.615   5.446 -0.2996  0.7481  0.1110
  110CHL1  H16A14348   1.395   5.683   5.388 -1.7169 -0.3849 -3.0222
  110CHL1  H16B14349   1.319   5.527   5.380 -1.3298  0.9486 -0.0054
  110CHL1   C1714350   1.187   5.677   5.465  0.1625 -0.3243  0.3455
  110CHL1   H1714351   1.117   5.590   5.460  1.6290 -1.5134 -0.4746
  110CHL1   C1314352   1.183   5.736   5.611  0.3128  0.5026 -0.2915
  110CHL1   C1814353   1.264   5.867   5.621  0.0870  0.5320 -0.4337
  110CHL1  H18A14354   1.256   5.900   5.727 -3.8948 -1.1953  0.0062
  110CHL1  H18B14355   1.367   5.857   5.583  0.4215  0.0149  0.5603
  110CHL1  H18C14356   1.214   5.953   5.572 -1.4752  0.5654  1.1153
  110CHL1   C1214357   1.043   5.735   5.687 -0.1721 -0.2930 -0.8777
  110CHL1  H12A14358   0.987   5.825   5.653  0.3499  1.0041  1.4929
  110CHL1  H12B14359   0.988   5.639   5.678 -3.4468  0.8458  3.6555
  110CHL1   C1114360   1.064   5.765   5.836 -0.2239  0.0222  0.6239
  110CHL1  H11A14361   1.094   5.872   5.832  1.9787 -0.5181  1.2948
  110CHL1  H11B14362   0.964   5.753   5.883 -0.5835 -1.4082 -0.4367
  110CHL1    C914363   1.170   5.673   5.908  0.5241  0.0932  0.9386
  110CHL1    H914364   1.128   5.573   5.886 -0.3343  1.0190 -2.1692
  110CHL1   C1014365   1.189   5.690   6.060 -0.2328 -0.5250  0.3560
  110CHL1   C1914366   1.208   5.844   6.074 -0.1378  0.1377 -0.7798
  110CHL1  H19A14367   1.307   5.873   6.032 -0.8433  3.4331 -0.4698
  110CHL1  H19B14368   1.130   5.903   6.022  0.0947 -0.0435 -1.3347
  110CHL1  H19C14369   1.221   5.877   6.180  2.1909  2.2775 -1.6144
  110CHL1    C114370   1.065   5.638   6.136  0.1316  0.2797  0.2598
  110CHL1   H1A14371   0.969   5.688   6.109 -0.8047  0.6188  3.7782
  110CHL1   H1B14372   1.046   5.539   6.090 -0.6409  2.0769 -3.7615
  110CHL1    C214373   1.070   5.640   6.295  0.6269  0.3111  0.6336
  110CHL1   H2A14374   0.976   5.593   6.330  1.0393 -1.2134 -0.2571
  110CHL1   H2B14375   1.067   5.743   6.338 -2.7477  0.6099 -0.0745
  110CHL1   C2014376   1.164   5.770   5.350 -0.0090  0.2357  0.6891
  110CHL1   H2014377   1.234   5.855   5.363  0.3494  0.0600 -0.0892
  110CHL1   C2114378   1.021   5.840   5.350 -0.1166 -0.0627 -0.5677
  110CHL1  H21A14379   0.939   5.765   5.348 -1.6007  1.4569 -0.0972
  110CHL1  H21B14380   1.013   5.904   5.259 -1.2461  1.0503  0.2809
  110CHL1  H21C14381   1.014   5.901   5.443  0.0373 -1.4082  0.3425
  110CHL1   C2214382   1.176   5.706   5.211  0.4984 -0.1558  0.2121
  110CHL1  H22A14383   1.231   5.610   5.210 -1.4536 -1.3363  0.9339
  110CHL1  H22B14384   1.079   5.663   5.178  0.6303 -0.0274 -0.3565
  110CHL1   C2314385   1.224   5.805   5.110  0.3122 -0.7141 -0.4045
  110CHL1  H23A14386   1.171   5.903   5.111 -0.5258 -1.1568  0.1942
  110CHL1  H23B14387   1.331   5.828   5.127  0.5176 -1.6786 -0.3346
  110CHL1   C2414388   1.204   5.762   4.962  0.4267  0.0205 -0.3808
  110CHL1  H24A14389   1.265   5.672   4.937 -1.7352 -1.8729  0.7777
  110CHL1  H24B14390   1.099   5.729   4.951  0.9317 -1.3834 -1.4117
  110CHL1   C2514391   1.233   5.876   4.861  0.5102  0.4624 -0.1467
  110CHL1   H2514392   1.183   5.969   4.894  1.2348  0.8924 -0.2552
  110CHL1   C2614393   1.381   5.908   4.862  0.1689 -0.8239  0.2298
  110CHL1  H26A14394   1.433   5.817   4.828 -1.2166 -0.7293 -2.4064
  110CHL1  H26B14395   1.392   5.991   4.788 -0.5433 -0.9923 -0.0776
  110CHL1  H26C14396   1.416   5.941   4.962  1.1479 -2.1571  0.3441
  110CHL1   C2714397   1.187   5.847   4.722 -0.3868  0.9661  0.1209
  110CHL1  H27A14398   1.246   5.915   4.657  1.8603 -0.5426  0.4694
  110CHL1  H27B14399   1.210   5.741   4.699  0.6328  1.0018  0.8659
  110CHL1  H27C14400   1.077   5.858   4.714 -1.1038 -3.5180  1.3400
  111CHL1    C314401   2.776   0.866   6.934  1.3792 -0.2087  0.1506
  111CHL1    H314402   2.862   0.797   6.951  1.5719 -0.1763 -0.6632
  111CHL1    O314403   2.754   0.948   7.047  0.3487 -0.8020 -0.1335
  111CHL1   H3'14404   2.664   0.981   7.038 -0.0129 -1.4670  0.8541
  111CHL1    C414405   2.802   0.961   6.820  0.5842  0.5052  0.5951
  111CHL1   H4A14406   2.717   1.025   6.788 -0.2196  0.0951  1.8028
  111CHL1   H4B14407   2.885   1.028   6.850  0.0451  0.7364  1.6663
  111CHL1    C514408   2.825   0.876   6.692 -0.3528 -0.2636 -0.3188
  111CHL1    C614409   2.942   0.879   6.627  0.3754 -0.4243 -0.2272
  111CHL1    H614410   3.028   0.944   6.650  0.0550  0.0823 -0.4536
  111CHL1    C714411   2.970   0.779   6.513 -0.4285  0.3989 -0.0785
  111CHL1   H7A14412   3.027   0.829   6.433 -1.5355  1.4105 -0.2506
  111CHL1   H7B14413   3.034   0.696   6.552  1.2999  1.2836 -0.9240
  111CHL1    C814414   2.842   0.727   6.448  0.8364  0.2474  0.6691
  111CHL1    H814415   2.789   0.809   6.394 -1.4270 -2.2848 -1.2691
  111CHL1   C1414416   2.875   0.628   6.338 -0.0151  0.1904 -0.5225
  111CHL1   H1414417   2.934   0.547   6.387 -0.4109  1.2873  1.9192
  111CHL1   C1514418   2.970   0.674   6.231  0.3407  0.4658  0.5311
  111CHL1  H15A14419   2.938   0.779   6.212 -3.8769 -0.6670  0.4137
  111CHL1  H15B14420   3.076   0.671   6.265  0.3204 -0.1003  0.5620
  111CHL1   C1614421   2.952   0.577   6.118  0.1476  0.8511  0.2911
  111CHL1  H16A14422   2.924   0.635   6.028 -2.2162 -0.6532 -0.0269
  111CHL1  H16B14423   3.031   0.504   6.089 -0.9850  0.5796 -2.4525
  111CHL1   C1714424   2.826   0.491   6.159  0.1974  0.8776 -0.7207
  111CHL1   H1714425   2.860   0.396   6.206 -0.9565  0.6085 -0.4137
  111CHL1   C1314426   2.755   0.572   6.270  0.0444  0.0173  0.3943
  111CHL1   C1814427   2.665   0.683   6.200 -0.2141 -0.2049 -0.3966
  111CHL1  H18A14428   2.724   0.753   6.137  0.7601  0.1206  0.8376
  111CHL1  H18B14429   2.583   0.629   6.147 -3.4009  1.2993  2.5715
  111CHL1  H18C14430   2.623   0.747   6.281  0.3498  0.4606 -0.6241
  111CHL1   C1214431   2.679   0.491   6.378 -0.1696 -0.1248  0.4977
  111CHL1  H12A14432   2.582   0.461   6.333  0.5114  0.9682 -1.8417
  111CHL1  H12B14433   2.740   0.401   6.403  1.7350  1.1200  0.5544
  111CHL1   C1114434   2.640   0.576   6.504  0.2299 -0.4620  1.0896
  111CHL1  H11A14435   2.561   0.647   6.472  1.2923 -0.0658 -0.7950
  111CHL1  H11B14436   2.600   0.499   6.574 -0.5458 -0.1250  1.0258
  111CHL1    C914437   2.759   0.666   6.558  0.0606  0.2077  0.3843
  111CHL1    H914438   2.824   0.598   6.618 -2.1705 -0.1065  2.6287
  111CHL1   C1014439   2.715   0.771   6.665 -0.6041 -0.2798  0.1902
  111CHL1   C1914440   2.590   0.850   6.611 -0.2393 -0.4024 -0.8956
  111CHL1  H19A14441   2.508   0.775   6.616 -0.4152 -0.1376  2.2998
  111CHL1  H19B14442   2.555   0.941   6.664  4.7375 -0.4031  3.1386
  111CHL1  H19C14443   2.605   0.886   6.507  1.9101  1.9189  0.1197
  111CHL1    C114444   2.661   0.695   6.793  0.1364  0.0264 -0.4831
  111CHL1   H1A14445   2.567   0.640   6.769 -0.0385  0.0642  0.0930
  111CHL1   H1B14446   2.736   0.619   6.826 -0.8743 -1.1686 -0.8431
  111CHL1    C214447   2.643   0.789   6.916 -0.2632 -0.5629  0.0373
  111CHL1   H2A14448   2.622   0.732   7.009 -1.3690  0.6811  0.5854
  111CHL1   H2B14449   2.557   0.855   6.893 -0.0594 -0.4650 -0.4607
  111CHL1   C2014450   2.747   0.443   6.032  0.4953  0.6709  0.3786
  111CHL1   H2014451   2.713   0.531   5.973 -1.8288 -0.5111 -0.1616
  111CHL1   C2114452   2.624   0.357   6.073  0.4209 -0.4559  0.2112
  111CHL1  H21A14453   2.590   0.295   5.987  1.4933 -0.6090 -0.1169
  111CHL1  H21B14454   2.537   0.410   6.118 -1.3149 -4.1294  1.5281
  111CHL1  H21C14455   2.653   0.286   6.153  0.1809  1.4224  2.0680
  111CHL1   C2214456   2.829   0.365   5.923  0.3800 -0.0508 -0.0610
  111CHL1  H22A14457   2.931   0.408   5.924 -0.2046  1.4135  1.8976
  111CHL1  H22B14458   2.837   0.262   5.964  0.9683  0.0241  0.0269
  111CHL1   C2314459   2.772   0.371   5.778  0.0357  0.5884  0.7226
  111CHL1  H23A14460   2.662   0.351   5.775 -0.4535  3.0448 -1.2136
  111CHL1  H23B14461   2.779   0.472   5.733  1.9861  0.3885  0.5240
  111CHL1   C2414462   2.857   0.273   5.693 -0.3396 -0.3016  0.5907
  111CHL1  H24A14463   2.953   0.327   5.677 -1.2374  1.0557 -0.3703
  111CHL1  H24B14464   2.879   0.175   5.742 -0.8005 -0.6870  0.0358
  111CHL1   C2514465   2.811   0.241   5.548  0.6469 -0.1491 -0.7453
  111CHL1   H2514466   2.727   0.169   5.559 -0.8980  1.6488 -0.2780
  111CHL1   C2614467   2.769   0.368   5.478  0.3004 -0.1938  0.1904
  111CHL1  H26A14468   2.766   0.345   5.369 -2.3165  0.8813 -0.0455
  111CHL1  H26B14469   2.670   0.412   5.502 -1.3725 -2.3674 -2.1832
  111CHL1  H26C14470   2.844   0.449   5.490 -0.0997 -0.0382  1.8721
  111CHL1   C2714471   2.918   0.162   5.477  0.2787  0.5552  0.7192
  111CHL1  H27A14472   2.907   0.156   5.367 -1.4430 -2.0405  0.9452
  111CHL1  H27B14473   3.015   0.212   5.495  0.1279  2.0897 -2.1845
  111CHL1  H27C14474   2.918   0.060   5.522  0.7672  0.3723  0.3049
  112CHL1    C314475   3.788   1.360   6.347 -0.0222  0.1018  0.1183
  112CHL1    H314476   3.820   1.255   6.334 -0.5249 -0.1341  0.7433
  112CHL1    O314477   3.780   1.392   6.482 -0.2969  0.6832 -0.3556
  112CHL1   H3'14478   3.706   1.347   6.523  1.0242  0.4782  2.0400
  112CHL1    C414479   3.881   1.454   6.266 -0.4998 -0.0438  0.9535
  112CHL1   H4A14480   3.876   1.558   6.303  0.8966  0.3388  0.1492
  112CHL1   H4B14481   3.985   1.422   6.285 -0.7753 -0.8769  1.1148
  112CHL1    C514482   3.861   1.451   6.115  0.5764  0.4320  0.0015
  112CHL1    C614483   3.968   1.438   6.029  0.6749  0.2127  0.3754
  112CHL1    H614484   4.070   1.446   6.071  1.5982 -0.2373 -1.6689
  112CHL1    C714485   3.956   1.431   5.879 -0.3935 -0.3685  0.3443
  112CHL1   H7A14486   4.039   1.495   5.842 -0.3364  0.4007  1.7364
  112CHL1   H7B14487   3.967   1.324   5.849  1.0217 -1.4720  4.1463
  112CHL1    C814488   3.818   1.479   5.825  0.3467  0.1256 -0.9552
  112CHL1    H814489   3.816   1.589   5.840  0.6100 -0.1655  1.6096
  112CHL1   C1414490   3.801   1.442   5.682 -0.5038  0.3109 -0.1963
  112CHL1   H1414491   3.804   1.331   5.678 -0.1609  0.2736  0.7759
  112CHL1   C1514492   3.914   1.482   5.583 -0.0943 -0.4367  0.1356
  112CHL1  H15A14493   3.959   1.582   5.599 -0.9444  0.6726 -3.4345
  112CHL1  H15B14494   3.990   1.401   5.587 -1.2387 -1.6354 -1.1379
  112CHL1   C1614495   3.843   1.474   5.449  0.1009 -0.0329  0.2791
  112CHL1  H16A14496   3.840   1.576   5.405 -3.0464  0.9522  2.3745
  112CHL1  H16B14497   3.886   1.412   5.369  0.5334 -1.3953  1.5250
  112CHL1   C1714498   3.697   1.440   5.477 -0.4137  0.2645 -0.3872
  112CHL1   H1714499   3.693   1.329   5.486  2.8383  0.1885  3.4907
  112CHL1   C1314500   3.664   1.484   5.623  0.7276 -1.1027  0.7684
  112CHL1   C1814501   3.633   1.631   5.618  0.1744 -0.3926  0.0485
  112CHL1  H18A14502   3.528   1.645   5.586  0.0215  1.9021  1.2990
  112CHL1  H18B14503   3.623   1.679   5.718  0.6906  0.2231 -0.1929
  112CHL1  H18C14504   3.704   1.692   5.558  2.2973 -1.8965  0.8901
  112CHL1   C1214505   3.563   1.389   5.688  0.0725 -0.0657 -0.5171
  112CHL1  H12A14506   3.458   1.399   5.652 -0.0829 -0.5486 -0.2120
  112CHL1  H12B14507   3.589   1.281   5.676 -1.7971 -0.5023 -1.0168
  112CHL1   C1114508   3.561   1.425   5.839  0.6766 -0.0867  0.5929
  112CHL1  H11A14509   3.511   1.522   5.853 -0.2123 -0.1071 -1.9472
  112CHL1  H11B14510   3.492   1.356   5.893 -0.2040 -1.0391 -1.5761
  112CHL1    C914511   3.705   1.415   5.904 -0.0765  0.0725 -0.3708
  112CHL1    H914512   3.732   1.308   5.888 -0.0312 -0.1414  0.9681
  112CHL1   C1014513   3.722   1.454   6.053  0.5520 -0.2178  0.3486
  112CHL1   C1914514   3.656   1.593   6.079  0.3622  0.3530 -0.6831
  112CHL1  H19A14515   3.700   1.666   6.008 -0.3879  0.0884 -1.4327
  112CHL1  H19B14516   3.546   1.579   6.068  0.2231  0.7513  0.1568
  112CHL1  H19C14517   3.666   1.626   6.185 -0.2533  1.6048 -1.0006
  112CHL1    C114518   3.639   1.347   6.139  0.0373  0.0665  0.5549
  112CHL1   H1A14519   3.535   1.357   6.100  0.5278 -0.4026 -0.9376
  112CHL1   H1B14520   3.675   1.245   6.113  1.0769  0.8565 -1.3733
  112CHL1    C214521   3.646   1.378   6.290  0.6245  0.3944 -0.5313
  112CHL1   H2A14522   3.587   1.301   6.345 -1.5029  1.4622 -1.2076
  112CHL1   H2B14523   3.608   1.477   6.322 -0.0023 -0.1338  0.3965
  112CHL1   C2014524   3.597   1.477   5.368  0.0259 -0.3935 -0.8413
  112CHL1   H2014525   3.592   1.588   5.361 -2.8630 -0.2741  1.2787
  112CHL1   C2114526   3.456   1.412   5.399 -0.4608 -0.0467  1.0599
  112CHL1  H21A14527   3.397   1.469   5.474 -1.6474  0.2020 -0.0441
  112CHL1  H21B14528   3.467   1.306   5.432  2.1116  0.3092  1.6129
  112CHL1  H21C14529   3.399   1.410   5.304  0.8773 -0.9460  0.2354
  112CHL1   C2214530   3.648   1.433   5.229 -0.4713  0.1027 -0.7015
  112CHL1  H22A14531   3.566   1.461   5.160 -0.0023 -0.3875 -1.4728
  112CHL1  H22B14532   3.736   1.490   5.194 -1.5935  0.5061 -3.0277
  112CHL1   C2314533   3.694   1.284   5.208 -0.6573  0.0023  0.3272
  112CHL1  H23A14534   3.767   1.246   5.283 -1.8430  1.3688  2.2872
  112CHL1  H23B14535   3.605   1.221   5.230 -0.2428 -1.2315 -1.3529
  112CHL1   C2414536   3.733   1.252   5.062  0.1301 -0.0132  0.0010
  112CHL1  H24A14537   3.653   1.283   4.991  0.3661 -0.7414 -0.6005
  112CHL1  H24B14538   3.826   1.309   5.036  0.7729 -0.1567  1.8420
  112CHL1   C2514539   3.755   1.103   5.031 -0.5349  0.8684 -0.7222
  112CHL1   H2514540   3.797   1.051   5.119  0.3827 -0.0420 -1.6581
  112CHL1   C2614541   3.622   1.032   4.989  0.0634 -0.1629  0.1234
  112CHL1  H26A14542   3.640   0.924   4.969  2.2278  0.6128 -2.8468
  112CHL1  H26B14543   3.554   1.060   5.072  0.6384  4.9684 -0.8158
  112CHL1  H26C14544   3.581   1.080   4.897  0.2674 -0.7244 -0.2643
  112CHL1   C2714545   3.853   1.095   4.915  0.4096  0.4882  1.0948
  112CHL1  H27A14546   3.961   1.102   4.941  0.6914  0.9635 -0.1768
  112CHL1  H27B14547   3.844   0.990   4.880 -0.0606  0.0361  2.4981
  112CHL1  H27C14548   3.820   1.170   4.841 -3.7649 -0.3111  1.8692
  113CHL1    C314549   1.016   5.150   6.342 -0.4880 -0.1677 -0.1765
  113CHL1    H314550   1.070   5.247   6.342  0.3796 -0.5697  2.1856
  113CHL1    O314551   1.007   5.110   6.480 -0.0125  0.4648  0.4504
  113CHL1   H3'14552   0.926   5.058   6.482  1.3177 -1.7060  0.7877
  113CHL1    C414553   0.877   5.189   6.290  0.5851  0.2631 -0.0321
  113CHL1   H4A14554   0.810   5.101   6.295 -0.5257  0.9949 -1.3895
  113CHL1   H4B14555   0.825   5.265   6.352 -0.4153  0.0480 -0.5836
  113CHL1    C514556   0.882   5.241   6.149  0.3530 -0.5880  0.3482
  113CHL1    C614557   0.830   5.354   6.099  0.4550  0.0225 -0.5274
  113CHL1    H614558   0.786   5.424   6.172  0.5372  0.7109 -1.1277
  113CHL1    C714559   0.825   5.397   5.956  0.1349  0.3006  0.5844
  113CHL1   H7A14560   0.719   5.415   5.926 -0.1458  1.1362  1.9969
  113CHL1   H7B14561   0.871   5.496   5.934  0.3813  0.0956  0.1583
  113CHL1    C814562   0.879   5.289   5.859 -0.2742  0.6656 -0.2752
  113CHL1    H814563   0.791   5.221   5.852 -0.1675  0.3431  1.2478
  113CHL1   C1414564   0.910   5.350   5.725 -0.0534 -0.0124  0.6540
  113CHL1   H1414565   1.000   5.414   5.735 -1.0027  1.3027  1.2090
  113CHL1   C1514566   0.795   5.439   5.667 -0.6238 -0.1823 -0.1134
  113CHL1  H15A14567   0.699   5.385   5.676 -0.8869  0.3362  0.2922
  113CHL1  H15B14568   0.778   5.533   5.725  0.3029  0.5812 -1.0311
  113CHL1   C1614569   0.843   5.462   5.524  0.9157 -0.2157 -0.2571
  113CHL1  H16A14570   0.768   5.460   5.442  0.7281 -1.3542 -0.0776
  113CHL1  H16B14571   0.883   5.566   5.527 -0.0530  0.1479  1.9440
  113CHL1   C1714572   0.954   5.347   5.488  0.7462  0.4985 -0.0125
  113CHL1   H1714573   1.051   5.393   5.514  0.4162  2.0106 -1.3476
  113CHL1   C1314574   0.942   5.254   5.616 -0.4398  0.4011 -0.3092
  113CHL1   C1814575   0.826   5.160   5.577  0.1579  0.1176 -0.4236
  113CHL1  H18A14576   0.775   5.121   5.667  0.3644 -0.8904 -0.7258
  113CHL1  H18B14577   0.756   5.215   5.511 -0.4715 -0.5490 -0.3291
  113CHL1  H18C14578   0.859   5.070   5.520  0.8364  1.7758 -2.8380
  113CHL1   C1214579   1.063   5.174   5.665 -0.0004  0.3824 -0.1345
  113CHL1  H12A14580   1.081   5.087   5.599  0.4995 -0.2921  0.8708
  113CHL1  H12B14581   1.150   5.243   5.661 -0.2719  0.6731 -1.7261
  113CHL1   C1114582   1.048   5.106   5.806 -0.1749  0.0084  0.5394
  113CHL1  H11A14583   0.961   5.042   5.782 -0.2147  0.4742 -0.5847
  113CHL1  H11B14584   1.142   5.054   5.835 -0.7438 -1.3630  0.0190
  113CHL1    C914585   0.994   5.205   5.914  0.4137  0.1767 -0.3570
  113CHL1    H914586   1.071   5.281   5.936  2.1943 -1.5036 -0.4702
  113CHL1   C1014587   0.953   5.146   6.056 -0.6899  0.3877 -0.9162
  113CHL1   C1914588   0.864   5.021   6.044 -0.0084  0.2201  0.8107
  113CHL1  H19A14589   0.910   4.938   5.986  1.1968  1.5578 -0.2000
  113CHL1  H19B14590   0.833   4.978   6.142  0.0686 -0.1034  0.6950
  113CHL1  H19C14591   0.776   5.055   5.986  1.0952  0.7851 -0.6074
  113CHL1    C114592   1.090   5.094   6.122  0.0937  0.2291  0.1736
  113CHL1   H1A14593   1.129   5.009   6.063 -1.5817  1.2762 -2.6663
  113CHL1   H1B14594   1.165   5.174   6.106 -0.4178  0.5845 -0.5201
  113CHL1    C214595   1.075   5.051   6.263 -0.4163  0.1876  0.5069
  113CHL1   H2A14596   1.178   5.030   6.302  0.6803  2.7408 -0.7973
  113CHL1   H2B14597   1.020   4.955   6.263  0.5795 -0.4499 -1.8761
  113CHL1   C2014598   0.957   5.279   5.346 -0.6918 -0.8460  0.4038
  113CHL1   H2014599   0.863   5.226   5.320 -0.8277  0.3257 -1.7025
  113CHL1   C2114600   1.083   5.200   5.348  0.3693 -0.2655  0.6982
  113CHL1  H21A14601   1.062   5.098   5.387 -0.0640 -1.9152 -3.3689
  113CHL1  H21B14602   1.165   5.250   5.404  1.5085  0.5759 -1.5947
  113CHL1  H21C14603   1.133   5.187   5.250 -0.7842 -1.1130  0.2101
  113CHL1   C2214604   0.963   5.394   5.241  0.1511 -0.1866 -0.6589
  113CHL1  H22A14605   0.878   5.463   5.263  0.8581  1.6333 -3.2174
  113CHL1  H22B14606   1.059   5.449   5.239  0.5819 -0.9362 -0.6789
  113CHL1   C2314607   0.926   5.348   5.094  0.5325  0.4700 -0.2426
  113CHL1  H23A14608   1.015   5.288   5.066  1.5497  0.4149  2.7079
  113CHL1  H23B14609   0.834   5.285   5.088  0.5756 -0.0233  2.5449
  113CHL1   C2414610   0.922   5.465   5.000 -0.4524  0.4013 -0.2461
  113CHL1  H24A14611   0.823   5.514   5.012  0.5429  1.8095  3.0214
  113CHL1  H24B14612   1.009   5.530   5.021 -0.1519  0.1158 -0.5966
  113CHL1   C2514613   0.948   5.420   4.853 -0.1585 -0.2540  0.4099
  113CHL1   H2514614   1.033   5.349   4.845  1.9169  2.0184  1.0427
  113CHL1   C2614615   0.821   5.351   4.800 -0.1886  0.3943  0.2694
  113CHL1  H26A14616   0.810   5.343   4.690 -1.0720 -2.1127  0.4812
  113CHL1  H26B14617   0.810   5.248   4.839 -0.2796 -0.3010 -1.5066
  113CHL1  H26C14618   0.730   5.406   4.834 -1.2874 -0.6672 -0.8778
  113CHL1   C2714619   0.988   5.535   4.763 -0.4131 -0.7440 -0.4143
  113CHL1  H27A14620   0.994   5.498   4.659  0.8829 -0.0093 -0.6160
  113CHL1  H27B14621   0.907   5.609   4.782  0.8495  0.5022  0.3248
  113CHL1  H27C14622   1.090   5.575   4.779 -0.5810 -1.0796  1.8740
  114CHL1    C314623   4.968   1.472   6.348  0.3244  0.2569  0.1819
  114CHL1    H314624   4.917   1.566   6.316  0.0695 -0.6751 -2.4096
  114CHL1    O314625   4.926   1.435   6.475  0.2461  0.3504 -0.5611
  114CHL1   H3'14626   4.976   1.353   6.487  0.9004  0.5785 -1.6009
  114CHL1    C414627   4.937   1.361   6.241 -0.7029  0.1445 -0.3300
  114CHL1   H4A14628   4.998   1.274   6.274 -2.5861 -1.3975 -0.7025
  114CHL1   H4B14629   4.832   1.326   6.249 -0.2146 -1.2786  0.2869
  114CHL1    C514630   4.977   1.417   6.105  0.1359 -0.0779  0.1779
  114CHL1    C614631   4.885   1.450   6.014  1.0205 -0.2410 -0.0809
  114CHL1    H614632   4.781   1.421   6.035  0.3433  1.4624 -0.8513
  114CHL1    C714633   4.921   1.511   5.882 -0.2875 -0.3275 -0.8085
  114CHL1   H7A14634   4.866   1.457   5.802  0.0191 -1.2431 -0.4051
  114CHL1   H7B14635   4.901   1.620   5.891  0.1940 -0.3298  0.4965
  114CHL1    C814636   5.066   1.484   5.851  0.2327 -0.3943 -0.0735
  114CHL1    H814637   5.066   1.375   5.835  0.8878 -0.2203 -1.3731
  114CHL1   C1414638   5.097   1.564   5.730  0.6257 -0.2310  0.2840
  114CHL1   H1414639   5.085   1.667   5.770 -3.4411 -0.8401  1.0679
  114CHL1   C1514640   4.989   1.552   5.622  0.6953 -0.1163  0.3926
  114CHL1  H15A14641   4.974   1.443   5.605 -1.2299  0.4009 -1.5976
  114CHL1  H15B14642   4.901   1.620   5.630  0.6424 -0.0568 -0.6524
  114CHL1   C1614643   5.063   1.611   5.499  0.6211  0.1038  0.3006
  114CHL1  H16A14644   5.057   1.544   5.411  1.3824  2.4804 -1.6944
  114CHL1  H16B14645   5.026   1.712   5.472 -1.6120 -0.7521 -0.0090
  114CHL1   C1714646   5.213   1.627   5.541  0.2154  0.2132  0.0836
  114CHL1   H1714647   5.222   1.733   5.571  0.2924  0.5342 -1.0143
  114CHL1   C1314648   5.230   1.545   5.671  0.1592  0.1014 -0.7763
  114CHL1   C1814649   5.248   1.398   5.631 -0.1721  0.4651  0.3059
  114CHL1  H18A14650   5.182   1.370   5.546  1.4628 -2.6667 -0.1053
  114CHL1  H18B14651   5.352   1.379   5.595 -0.5709 -0.3269 -0.4701
  114CHL1  H18C14652   5.227   1.320   5.708 -0.7971 -2.1329 -2.3024
  114CHL1   C1214653   5.325   1.596   5.788 -0.7179 -0.6982 -0.1174
  114CHL1  H12A14654   5.432   1.597   5.757 -0.7234 -1.5493 -0.1735
  114CHL1  H12B14655   5.316   1.706   5.799  1.1306 -0.6747  1.8000
  114CHL1   C1114656   5.309   1.529   5.918  0.9110 -0.2597 -0.4242
  114CHL1  H11A14657   5.340   1.424   5.902  2.1183 -0.0648  0.4721
  114CHL1  H11B14658   5.372   1.579   5.995  1.5186 -1.4992 -0.0953
  114CHL1    C914659   5.158   1.529   5.960  0.6881 -0.2943 -1.1308
  114CHL1    H914660   5.136   1.635   5.988  0.8074 -0.5391 -0.0699
  114CHL1   C1014661   5.126   1.450   6.090  0.1402 -0.7055 -0.4649
  114CHL1   C1914662   5.213   1.320   6.103 -0.0293 -0.6607  0.0146
  114CHL1  H19A14663   5.321   1.340   6.117  0.1346 -1.2356 -0.3916
  114CHL1  H19B14664   5.173   1.259   6.187 -1.6516  1.4205  0.8611
  114CHL1  H19C14665   5.187   1.246   6.024 -1.7021 -2.5716  2.1849
  114CHL1    C114666   5.155   1.545   6.207 -0.6245 -0.1358  0.3794
  114CHL1   H1A14667   5.265   1.561   6.206 -0.5627 -0.3502  2.1217
  114CHL1   H1B14668   5.096   1.638   6.190  0.2008  0.3963  0.3699
  114CHL1    C214669   5.114   1.501   6.354  0.0756 -0.5044  0.5759
  114CHL1   H2A14670   5.141   1.589   6.417 -1.5564  1.4825 -1.3136
  114CHL1   H2B14671   5.174   1.414   6.385 -0.1221 -0.2170  1.8195
  114CHL1   C2014672   5.310   1.611   5.422 -0.4111  0.0943 -0.3069
  114CHL1   H2014673   5.290   1.508   5.384 -2.2018 -0.2546  1.4007
  114CHL1   C2114674   5.464   1.618   5.455  0.2589  0.1857  0.5626
  114CHL1  H21A14675   5.533   1.593   5.372 -0.0919 -3.3355  1.1555
  114CHL1  H21B14676   5.488   1.567   5.551 -0.4754  0.9418  1.1652
  114CHL1  H21C14677   5.482   1.723   5.487  1.2420  0.4425 -0.7452
  114CHL1   C2214678   5.280   1.706   5.311 -0.1405 -0.3319 -0.6968
  114CHL1  H22A14679   5.174   1.706   5.278 -0.6754  0.8994  0.8848
  114CHL1  H22B14680   5.313   1.808   5.340  3.3270 -1.5747  0.2232
  114CHL1   C2314681   5.357   1.676   5.184 -0.2077  0.0269  0.6011
  114CHL1  H23A14682   5.340   1.758   5.111 -0.0073 -0.1067  0.4029
  114CHL1  H23B14683   5.467   1.678   5.202 -0.2100 -0.1571  0.6399
  114CHL1   C2414684   5.327   1.533   5.126  0.2669 -0.3699  0.8362
  114CHL1  H24A14685   5.385   1.459   5.185  0.3929 -2.3935 -1.6523
  114CHL1  H24B14686   5.219   1.515   5.141 -0.4484  1.9732 -0.7481
  114CHL1   C2514687   5.362   1.510   4.974  0.2027  0.7709 -0.2871
  114CHL1   H2514688   5.471   1.530   4.962 -0.1611  2.3323 -1.2819
  114CHL1   C2614689   5.344   1.358   4.936  0.1479 -0.5249 -0.5725
  114CHL1  H26A14690   5.235   1.335   4.928  0.0982 -0.9603  0.9805
  114CHL1  H26B14691   5.387   1.336   4.836 -2.7719  0.6092 -2.2128
  114CHL1  H26C14692   5.391   1.297   5.016 -1.9289  0.8135  1.8289
  114CHL1   C2714693   5.281   1.603   4.884 -0.6975  0.3252 -0.0663
  114CHL1  H27A14694   5.177   1.564   4.889 -0.5126 -0.0801  2.6224
  114CHL1  H27B14695   5.295   1.701   4.934  2.8319  0.9844 -2.0086
  114CHL1  H27C14696   5.316   1.620   4.780  0.8570  2.7797  0.7811
  115CHL1    C314697   1.513   1.005   6.824 -0.0683 -0.5126  0.0740
  115CHL1    H314698   1.424   0.939   6.818  0.5605 -1.4422  0.7648
  115CHL1    O314699   1.527   1.060   6.958  0.2381  0.3335  0.7707
  115CHL1   H3'14700   1.585   0.996   6.998  0.4987 -0.5269 -0.9184
  115CHL1    C414701   1.640   0.935   6.794  0.1350  0.0301  0.3528
  115CHL1   H4A14702   1.727   0.992   6.832 -1.0680  1.0419  1.7374
  115CHL1   H4B14703   1.647   0.847   6.862  0.3719  0.8441  1.4041
  115CHL1    C514704   1.657   0.887   6.650 -0.0108 -0.4398 -0.5512
  115CHL1    C614705   1.690   0.758   6.631  0.0479 -0.1897 -0.2399
  115CHL1    H614706   1.700   0.691   6.717  0.8951 -0.0466 -0.2222
  115CHL1    C714707   1.699   0.702   6.492 -0.2869  0.9226 -0.0234
  115CHL1   H7A14708   1.789   0.638   6.482 -0.6950  0.0970  1.3490
  115CHL1   H7B14709   1.611   0.638   6.470  0.5136  0.0585 -0.8251
  115CHL1    C814710   1.714   0.819   6.383  0.1254  0.2351 -1.0249
  115CHL1    H814711   1.812   0.869   6.397 -0.2809  1.5677 -2.6519
  115CHL1   C1414712   1.704   0.754   6.245 -0.3405 -0.6974 -0.1994
  115CHL1   H1414713   1.603   0.708   6.242  0.7057 -3.2970  0.8665
  115CHL1   C1514714   1.798   0.638   6.209 -0.1312  0.0555 -0.8873
  115CHL1  H15A14715   1.900   0.660   6.249 -1.3907  2.1019  1.4484
  115CHL1  H15B14716   1.750   0.546   6.248  0.7645  0.0737  0.3209
  115CHL1   C1614717   1.805   0.644   6.059  0.2269  0.2151  0.1447
  115CHL1  H16A14718   1.908   0.680   6.038  1.2669 -1.8341  1.3918
  115CHL1  H16B14719   1.791   0.552   5.998 -2.3210  1.0794 -0.7231
  115CHL1   C1714720   1.703   0.757   6.021  0.7110 -0.6199  0.7939
  115CHL1   H1714721   1.605   0.706   6.033 -0.2044  1.1300  0.9836
  115CHL1   C1314722   1.709   0.856   6.132 -0.4787  0.2642 -0.6976
  115CHL1   C1814723   1.853   0.931   6.143  0.3319  0.0879 -0.0054
  115CHL1  H18A14724   1.868   1.006   6.062  1.0387 -0.1220 -0.0695
  115CHL1  H18B14725   1.856   0.993   6.235 -0.0159 -0.1636  0.1780
  115CHL1  H18C14726   1.935   0.858   6.153  0.6834  0.5985  0.9477
  115CHL1   C1214727   1.595   0.961   6.147 -0.5597  0.2475  0.1553
  115CHL1  H12A14728   1.610   1.029   6.061 -2.2441  0.5364  0.0717
  115CHL1  H12B14729   1.494   0.916   6.144  0.6606 -2.8309  1.0394
  115CHL1   C1114730   1.607   1.037   6.284 -0.3655  0.2274 -0.2457
  115CHL1  H11A14731   1.692   1.108   6.285 -1.2108  1.2967 -1.1326
  115CHL1  H11B14732   1.514   1.098   6.287 -0.2544  0.4293 -0.8114
  115CHL1    C914733   1.615   0.934   6.404  0.3686  0.1986  0.3911
  115CHL1    H914734   1.516   0.884   6.407 -0.2470  1.2154 -1.3873
  115CHL1   C1014735   1.629   1.000   6.541 -0.0211  0.0840 -0.3977
  115CHL1   C1914736   1.751   1.095   6.538 -0.1988 -0.0204 -0.7090
  115CHL1  H19A14737   1.771   1.140   6.638  1.3689 -1.2377 -0.4341
  115CHL1  H19B14738   1.846   1.041   6.516  0.2281  0.3305  0.2232
  115CHL1  H19C14739   1.751   1.184   6.471  1.8175 -0.3904 -1.2741
  115CHL1    C114740   1.489   1.072   6.579  0.2936 -0.8566  0.3536
  115CHL1   H1A14741   1.460   1.159   6.517 -0.6076 -0.9391  0.6375
  115CHL1   H1B14742   1.404   1.000   6.578  1.1515 -1.8908 -0.7896
  115CHL1    C214743   1.487   1.123   6.721  0.6811 -0.4306 -0.0302
  115CHL1   H2A14744   1.399   1.183   6.751  0.1502 -0.3331 -1.7236
  115CHL1   H2B14745   1.573   1.194   6.725  0.2144  0.2542 -1.5624
  115CHL1   C2014746   1.708   0.812   5.879  0.1382  0.1135  0.3506
  115CHL1   H2014747   1.765   0.907   5.887 -0.2548  0.4216 -0.4210
  115CHL1   C2114748   1.562   0.835   5.831  0.5003 -0.2160  0.5895
  115CHL1  H21A14749   1.507   0.882   5.915  2.4793 -2.0025  3.0277
  115CHL1  H21B14750   1.513   0.741   5.796 -2.6365  0.6452  2.3075
  115CHL1  H21C14751   1.562   0.915   5.753 -5.2381  1.7061  2.0364
  115CHL1   C2214752   1.789   0.719   5.785  0.7296 -0.3172 -0.1529
  115CHL1  H22A14753   1.895   0.720   5.818  0.0545  0.9784  2.1708
  115CHL1  H22B14754   1.749   0.618   5.806  0.0647  0.2920  1.6587
  115CHL1   C2314755   1.767   0.758   5.637  0.2957 -0.0260  0.7996
  115CHL1  H23A14756   1.659   0.740   5.617  0.5631 -0.3649 -0.3920
  115CHL1  H23B14757   1.794   0.866   5.633 -0.8090  0.2767  1.1166
  115CHL1   C2414758   1.851   0.682   5.539  0.3324 -0.2967 -0.2959
  115CHL1  H24A14759   1.828   0.715   5.435  0.7458 -1.5347 -0.8101
  115CHL1  H24B14760   1.959   0.690   5.562  0.0855 -0.0387  0.8042
  115CHL1   C2514761   1.821   0.532   5.540 -0.1108 -0.9480 -0.5567
  115CHL1   H2514762   1.822   0.494   5.644 -1.6696 -0.7898 -0.4647
  115CHL1   C2614763   1.683   0.503   5.485  0.5192 -0.2032 -0.0312
  115CHL1  H26A14764   1.671   0.393   5.486 -1.8422 -0.0430 -1.7055
  115CHL1  H26B14765   1.602   0.550   5.545  0.4414  1.1218 -1.1091
  115CHL1  H26C14766   1.682   0.533   5.378 -0.5945 -0.7188 -0.1699
  115CHL1   C2714767   1.938   0.474   5.449  0.4812  0.0894 -0.3242
  115CHL1  H27A14768   1.914   0.367   5.427 -1.8776  0.6946 -0.9976
  115CHL1  H27B14769   1.948   0.531   5.355  0.8735 -1.1157 -1.0315
  115CHL1  H27C14770   2.034   0.473   5.505  0.4205 -1.7482 -0.1661
  116CHL1    C314771   2.946   7.605   6.362  0.2235 -0.2801  0.1217
  116CHL1    H314772   2.934   7.495   6.350  0.1647 -0.2657  0.0436
  116CHL1    O314773   2.898   7.648   6.486 -0.0488  0.9879 -0.0253
  116CHL1   H3'14774   2.930   7.737   6.503 -1.5819  1.3149  1.4312
  116CHL1    C414775   3.095   7.647   6.338  0.3748  0.4008 -0.4286
  116CHL1   H4A14776   3.100   7.758   6.350  1.2140  0.3299 -0.1079
  116CHL1   H4B14777   3.162   7.613   6.420 -0.3879  0.6707  0.3227
  116CHL1    C514778   3.149   7.612   6.206 -0.2072  0.4392 -0.1635
  116CHL1    C614779   3.256   7.532   6.195 -0.7195  0.3076  0.8209
  116CHL1    H614780   3.319   7.507   6.281  1.4082  1.6141 -0.2589
  116CHL1    C714781   3.321   7.479   6.072  0.0894 -0.4124  0.1564
  116CHL1   H7A14782   3.431   7.494   6.072 -0.2316  2.6672  0.8253
  116CHL1   H7B14783   3.313   7.369   6.068 -0.7612 -0.3199 -1.1027
  116CHL1    C814784   3.261   7.556   5.949  0.0655 -0.1979  0.0580
  116CHL1    H814785   3.302   7.659   5.939 -0.3021 -0.0915 -0.3768
  116CHL1   C1414786   3.304   7.492   5.815 -0.0234 -0.1054 -0.3663
  116CHL1   H1414787   3.249   7.396   5.805 -0.4782  0.3027 -2.3290
  116CHL1   C1514788   3.450   7.469   5.783 -0.6328 -0.1123 -0.6219
  116CHL1  H15A14789   3.496   7.561   5.825 -0.5933 -0.9181  1.2046
  116CHL1  H15B14790   3.476   7.378   5.841  2.0476  0.5865 -0.6024
  116CHL1   C1614791   3.461   7.460   5.631 -0.7006  0.1109  0.0869
  116CHL1  H16A14792   3.527   7.544   5.603 -0.0134 -0.6217 -0.5059
  116CHL1  H16B14793   3.513   7.371   5.591  0.9063  1.3039 -0.5747
  116CHL1   C1714794   3.317   7.482   5.576  0.3112  0.1596 -0.1746
  116CHL1   H1714795   3.278   7.378   5.573  0.7203 -0.0351  0.7658
  116CHL1   C1314796   3.256   7.568   5.690 -1.0522 -0.4592  0.0392
  116CHL1   C1814797   3.310   7.711   5.685 -0.2025 -0.6122 -0.3718
  116CHL1  H18A14798   3.274   7.771   5.772  0.5778 -1.6030  0.6703
  116CHL1  H18B14799   3.421   7.712   5.694 -0.1739 -0.8116 -0.7000
  116CHL1  H18C14800   3.288   7.756   5.587 -0.5388 -0.8163 -0.3933
  116CHL1   C1214801   3.104   7.571   5.693  0.0034 -0.4638 -0.0181
  116CHL1  H12A14802   3.064   7.632   5.609 -0.0962 -0.8262 -0.2380
  116CHL1  H12B14803   3.069   7.465   5.689  0.0351 -0.5829  1.8060
  116CHL1   C1114804   3.044   7.630   5.815  0.7531  0.3966  0.7837
  116CHL1  H11A14805   3.077   7.734   5.792  2.1283 -0.6335 -2.5157
  116CHL1  H11B14806   2.933   7.622   5.816  0.6640  1.0368 -0.5910
  116CHL1    C914807   3.106   7.577   5.951  0.7156  0.4392  0.3321
  116CHL1    H914808   3.077   7.470   5.966 -0.0244  0.1339 -2.6077
  116CHL1   C1014809   3.059   7.645   6.081  0.2861 -0.5812  0.8936
  116CHL1   C1914810   3.073   7.801   6.064 -0.3736  0.0430 -0.0433
  116CHL1  H19A14811   3.024   7.828   5.969 -1.2881 -1.6522 -0.0945
  116CHL1  H19B14812   3.009   7.852   6.139 -2.2578  1.0507 -2.2164
  116CHL1  H19C14813   3.180   7.831   6.068  0.7415 -3.4047 -0.4186
  116CHL1    C114814   2.912   7.609   6.108  0.0545  0.4307  0.3752
  116CHL1   H1A14815   2.855   7.643   6.019 -1.1336  1.2754  1.4214
  116CHL1   H1B14816   2.917   7.498   6.116 -0.8595  0.3070 -0.6996
  116CHL1    C214817   2.851   7.653   6.244 -0.0632 -0.7549 -0.2494
  116CHL1   H2A14818   2.751   7.606   6.253 -0.5752 -0.4967 -3.3411
  116CHL1   H2B14819   2.842   7.763   6.244  2.7758 -0.4210 -1.6706
  116CHL1   C2014820   3.314   7.532   5.433  0.5315 -1.0299  0.8066
  116CHL1   H2014821   3.358   7.634   5.430 -2.1502  0.2047  0.2866
  116CHL1   C2114822   3.169   7.561   5.382 -0.2653 -0.1609  0.0647
  116CHL1  H21A14823   3.103   7.483   5.425  1.2420 -1.7879 -0.4465
  116CHL1  H21B14824   3.166   7.559   5.271  0.4509  2.1376 -0.0484
  116CHL1  H21C14825   3.144   7.664   5.415  0.0454 -0.7852  2.4556
  116CHL1   C2214826   3.405   7.456   5.333  0.1217  0.6938  0.3089
  116CHL1  H22A14827   3.411   7.523   5.245 -0.0898  1.0940  0.5919
  116CHL1  H22B14828   3.510   7.445   5.367  0.9025 -1.7847 -2.5333
  116CHL1   C2314829   3.354   7.323   5.275 -0.5288  0.7443  0.4422
  116CHL1  H23A14830   3.349   7.243   5.352 -0.7622  2.2239  2.0168
  116CHL1  H23B14831   3.246   7.334   5.250 -1.0272 -0.3993  1.9320
  116CHL1   C2414832   3.441   7.264   5.159  0.5574  0.0361  0.2752
  116CHL1  H24A14833   3.385   7.178   5.118 -0.6170  1.0267 -0.2922
  116CHL1  H24B14834   3.448   7.347   5.085  0.7754 -0.3484 -0.1387
  116CHL1   C2514835   3.583   7.216   5.205  0.2368 -0.1340 -0.3077
  116CHL1   H2514836   3.640   7.304   5.241  1.2851 -0.4720 -1.1008
  116CHL1   C2614837   3.573   7.114   5.318  0.1033  0.2826 -0.9303
  116CHL1  H26A14838   3.669   7.070   5.351  0.3792  0.4053 -1.5431
  116CHL1  H26B14839   3.530   7.168   5.404  0.9476  0.4968 -0.6339
  116CHL1  H26C14840   3.504   7.032   5.287  0.2089 -0.2806  0.2916
  116CHL1   C2714841   3.656   7.151   5.084 -0.8171  0.7222  0.5167
  116CHL1  H27A14842   3.585   7.083   5.032 -0.2867 -0.7126  1.6058
  116CHL1  H27B14843   3.664   7.236   5.012 -0.6152  0.8246  0.6612
  116CHL1  H27C14844   3.754   7.105   5.109 -1.3722 -0.3816  0.7501
  117CHL1    C314845   6.220   0.812   6.254 -0.0580  0.2096  0.7646
  117CHL1    H314846   6.304   0.741   6.243  0.5789  0.5083  3.1497
  117CHL1    O314847   6.243   0.880   6.374 -0.4356 -0.1937  0.0076
  117CHL1   H3'14848   6.186   0.957   6.364  0.8119  0.7420 -0.1610
  117CHL1    C414849   6.208   0.908   6.132 -0.0750 -0.9731 -0.4974
  117CHL1   H4A14850   6.142   0.990   6.168  1.2025  0.3229 -1.0043
  117CHL1   H4B14851   6.304   0.963   6.133  0.6360 -1.9427  3.5648
  117CHL1    C514852   6.156   0.846   6.002 -0.2628 -0.5248 -0.4145
  117CHL1    C614853   6.214   0.868   5.887  0.2857 -0.4007 -0.5612
  117CHL1    H614854   6.294   0.943   5.889 -1.4781  1.5657  2.2324
  117CHL1    C714855   6.144   0.827   5.759  0.2741  0.3529  0.6957
  117CHL1   H7A14856   6.160   0.901   5.678  0.3336 -0.6684 -0.2574
  117CHL1   H7B14857   6.195   0.730   5.737  0.0179  0.2952  0.3528
  117CHL1    C814858   5.993   0.788   5.766 -0.2410 -0.4832  0.5648
  117CHL1    H814859   5.934   0.881   5.779 -0.0323 -0.4903  1.6622
  117CHL1   C1414860   5.945   0.713   5.641  0.7138 -0.3447 -0.3080
  117CHL1   H1414861   6.011   0.623   5.639  0.9161 -0.3854  2.8156
  117CHL1   C1514862   5.973   0.766   5.495 -0.0104 -0.3294 -0.3077
  117CHL1  H15A14863   5.954   0.875   5.503  1.1310 -0.0701 -0.9930
  117CHL1  H15B14864   6.077   0.748   5.462 -0.5719  0.1207 -2.4772
  117CHL1   C1614865   5.864   0.706   5.404  0.1512  0.4515  0.0674
  117CHL1  H16A14866   5.803   0.794   5.375 -2.1449 -0.3961  2.0676
  117CHL1  H16B14867   5.902   0.658   5.311 -2.9951 -0.2724 -0.9703
  117CHL1   C1714868   5.786   0.607   5.497  0.5888  0.0611 -0.1693
  117CHL1   H1714869   5.832   0.507   5.496 -1.9374 -1.1963  0.2706
  117CHL1   C1314870   5.806   0.666   5.637 -0.1797  0.6112  0.0489
  117CHL1   C1814871   5.703   0.791   5.646 -0.4715 -0.3307  0.0270
  117CHL1  H18A14872   5.714   0.838   5.747 -1.6882 -2.1567  1.0741
  117CHL1  H18B14873   5.730   0.864   5.567 -0.0725  0.9311  1.2869
  117CHL1  H18C14874   5.597   0.759   5.655 -1.0616  0.8208 -2.1965
  117CHL1   C1214875   5.790   0.571   5.756 -0.6747 -0.3774 -0.4860
  117CHL1  H12A14876   5.689   0.531   5.780 -1.2021  0.6952 -0.8431
  117CHL1  H12B14877   5.859   0.486   5.737 -0.6204 -0.1264 -1.4675
  117CHL1   C1114878   5.840   0.629   5.892  0.8989  0.3344  0.0840
  117CHL1  H11A14879   5.763   0.707   5.911 -0.8530 -1.6842  1.6959
  117CHL1  H11B14880   5.824   0.555   5.972 -0.0877  2.2910  1.7958
  117CHL1    C914881   5.978   0.694   5.890 -0.6921 -0.1033  0.8951
  117CHL1    H914882   6.039   0.606   5.862 -0.7735  0.0678  0.1401
  117CHL1   C1014883   6.034   0.764   6.014 -0.1079 -0.6399 -0.0920
  117CHL1   C1914884   5.923   0.856   6.060  0.1853 -0.4680  0.6608
  117CHL1  H19A14885   5.828   0.802   6.076 -0.3465  0.2263 -0.0477
  117CHL1  H19B14886   5.944   0.912   6.154 -0.9614  0.2606  0.5057
  117CHL1  H19C14887   5.910   0.925   5.973 -1.3917 -0.4740  0.8647
  117CHL1    C114888   6.057   0.660   6.131 -0.1595 -0.0991 -0.1345
  117CHL1   H1A14889   5.965   0.600   6.143  0.1542 -0.7584 -0.9290
  117CHL1   H1B14890   6.134   0.584   6.106 -0.0909  0.0536 -0.3922
  117CHL1    C214891   6.087   0.725   6.264  0.2716  0.0886 -0.2400
  117CHL1   H2A14892   6.115   0.641   6.332 -0.4490  0.4855  0.5554
  117CHL1   H2B14893   6.004   0.780   6.313  2.4291  2.1545  1.2787
  117CHL1   C2014894   5.642   0.583   5.439  0.1457 -0.0231  0.5830
  117CHL1   H2014895   5.594   0.682   5.424 -0.9252 -0.8017 -1.6028
  117CHL1   C2114896   5.564   0.494   5.537  0.1918 -0.1056  0.0665
  117CHL1  H21A14897   5.548   0.548   5.632  2.9512 -0.2565  0.7215
  117CHL1  H21B14898   5.604   0.391   5.551 -0.5879 -0.2394  1.4190
  117CHL1  H21C14899   5.461   0.485   5.497  0.2472 -1.6730  0.2278
  117CHL1   C2214900   5.641   0.521   5.293 -0.1011 -0.4085 -0.2608
  117CHL1  H22A14901   5.533   0.518   5.270 -0.4003  0.1022  0.9838
  117CHL1  H22B14902   5.688   0.598   5.227 -2.3667  3.5541  2.3060
  117CHL1   C2314903   5.704   0.387   5.278 -0.0954  0.8189 -0.8501
  117CHL1  H23A14904   5.810   0.398   5.309 -0.3709  0.9170  0.0962
  117CHL1  H23B14905   5.655   0.313   5.345  2.7004  0.9260  1.5092
  117CHL1   C2414906   5.713   0.340   5.134  0.4241 -0.0744  0.0582
  117CHL1  H24A14907   5.617   0.350   5.078 -0.1211 -0.8826  0.8251
  117CHL1  H24B14908   5.795   0.395   5.083  0.2884 -0.3351 -0.4514
  117CHL1   C2514909   5.754   0.188   5.135 -0.5381 -0.3084  0.1060
  117CHL1   H2514910   5.674   0.119   5.169  0.7872 -2.0112 -0.0959
  117CHL1   C2614911   5.779   0.128   4.992  0.1445  0.4170 -0.0142
  117CHL1  H26A14912   5.708   0.164   4.915  0.0202  0.8443  0.2933
  117CHL1  H26B14913   5.880   0.165   4.963  0.8666 -0.8122  0.8511
  117CHL1  H26C14914   5.769   0.018   4.998 -2.5880  0.5697 -0.2522
  117CHL1   C2714915   5.877   0.141   5.218  0.1698 -0.2065 -0.0327
  117CHL1  H27A14916   5.952   0.222   5.224  0.5647 -0.5486 -0.3648
  117CHL1  H27B14917   5.837   0.111   5.318  1.1355  0.2028  0.4892
  117CHL1  H27C14918   5.905   0.044   5.172  0.2153  0.2529 -0.9822
  118CHL1    C314919   0.402   1.166   6.426  0.0656 -0.1237 -0.4014
  118CHL1    H314920   0.294   1.190   6.430  0.4719  1.8197 -0.0932
  118CHL1    O314921   0.428   1.094   6.548  0.2308 -0.3041  0.0543
  118CHL1   H3'14922   0.371   1.018   6.536 -2.0196  1.3454 -0.6100
  118CHL1    C414923   0.437   1.068   6.308  0.1770 -0.1082  0.9772
  118CHL1   H4A14924   0.536   1.020   6.316  0.2824 -0.5920 -2.0796
  118CHL1   H4B14925   0.368   0.981   6.313 -0.5142  0.1568 -2.1064
  118CHL1    C514926   0.427   1.133   6.171  0.4040 -0.2162  0.2112
  118CHL1    C614927   0.346   1.079   6.074 -0.3009 -0.1621 -0.4279
  118CHL1    H614928   0.299   0.980   6.087  1.9665 -1.3669 -0.9280
  118CHL1    C714929   0.328   1.148   5.942 -0.1541 -0.1333  0.7620
  118CHL1   H7A14930   0.362   1.073   5.867  3.9781 -1.7230  3.8007
  118CHL1   H7B14931   0.229   1.196   5.936  1.2528  2.8180 -0.9485
  118CHL1    C814932   0.430   1.262   5.911 -0.0547  0.1621 -0.6459
  118CHL1    H814933   0.526   1.220   5.876 -0.4886  1.5708 -3.8329
  118CHL1   C1414934   0.379   1.343   5.794 -0.2447 -0.7991 -0.2451
  118CHL1   H1414935   0.286   1.390   5.833 -0.8317 -0.2254 -2.2380
  118CHL1   C1514936   0.336   1.273   5.662  0.5369  0.2876  0.4561
  118CHL1  H15A14937   0.402   1.187   5.639  0.0636 -0.0261  0.2527
  118CHL1  H15B14938   0.229   1.247   5.680  0.3535  0.1010 -0.8322
  118CHL1   C1614939   0.355   1.378   5.555  0.2634 -0.0404 -0.0579
  118CHL1  H16A14940   0.443   1.347   5.495 -0.3387 -3.4319  0.5927
  118CHL1  H16B14941   0.267   1.399   5.491  1.3516 -0.8766 -1.9051
  118CHL1   C1714942   0.395   1.511   5.624  0.7100 -0.3176 -0.3113
  118CHL1   H1714943   0.301   1.560   5.658  0.4492 -1.4306  0.6206
  118CHL1   C1314944   0.467   1.460   5.757 -0.2585 -0.3192  0.6786
  118CHL1   C1814945   0.613   1.415   5.712 -0.1948 -0.1283 -0.6077
  118CHL1  H18A14946   0.680   1.497   5.679  2.4697 -1.3787  1.2965
  118CHL1  H18B14947   0.661   1.371   5.802 -1.2262  1.1598  0.5930
  118CHL1  H18C14948   0.615   1.340   5.630  1.3346 -0.1509 -0.5721
  118CHL1   C1214949   0.473   1.554   5.877  0.2614 -0.6751 -0.2331
  118CHL1  H12A14950   0.540   1.639   5.855  0.5604 -0.5083  1.2031
  118CHL1  H12B14951   0.371   1.598   5.891  0.0962 -0.3860 -2.1422
  118CHL1   C1114952   0.531   1.485   5.993  0.2278  0.0185 -0.3481
  118CHL1  H11A14953   0.638   1.460   5.978 -0.3834 -2.2211 -1.4366
  118CHL1  H11B14954   0.540   1.557   6.077  2.3903  0.9245 -1.2835
  118CHL1    C914955   0.451   1.352   6.031  0.1731 -0.3928  0.5468
  118CHL1    H914956   0.352   1.393   6.060  0.4030 -1.3287  2.8415
  118CHL1   C1014957   0.494   1.269   6.159 -0.7167 -0.0779 -0.0896
  118CHL1   C1914958   0.646   1.250   6.156 -0.0170 -0.3989  0.0636
  118CHL1  H19A14959   0.693   1.351   6.153 -1.9252  0.5818  0.7880
  118CHL1  H19B14960   0.675   1.197   6.249  0.5012  0.6360  0.5069
  118CHL1  H19C14961   0.680   1.207   6.060 -0.7846  0.5546 -0.6521
  118CHL1    C114962   0.466   1.357   6.287 -0.2558 -0.4428  0.2367
  118CHL1   H1A14963   0.527   1.450   6.287  0.1005 -0.6644  1.4397
  118CHL1   H1B14964   0.360   1.390   6.273  0.0683  0.2324 -0.7334
  118CHL1    C214965   0.484   1.299   6.424 -0.2194 -0.2465  0.0789
  118CHL1   H2A14966   0.448   1.360   6.510  0.3903  0.8322 -0.4191
  118CHL1   H2B14967   0.591   1.276   6.438  0.1250  1.8859  1.4094
  118CHL1   C2014968   0.457   1.609   5.524  0.5992 -0.0073 -0.3424
  118CHL1   H2014969   0.551   1.562   5.487  0.6552  0.3373 -0.6419
  118CHL1   C2114970   0.495   1.738   5.592  0.5538 -0.1352  0.1953
  118CHL1  H21A14971   0.521   1.817   5.518 -1.6307  0.8732  0.4074
  118CHL1  H21B14972   0.581   1.727   5.662  0.9604 -2.0663 -0.5471
  118CHL1  H21C14973   0.408   1.767   5.656  0.7150 -1.7751  1.2277
  118CHL1   C2214974   0.370   1.642   5.401 -0.0730 -0.4903  0.3730
  118CHL1  H22A14975   0.325   1.548   5.362 -1.8115 -0.0350  1.1730
  118CHL1  H22B14976   0.296   1.723   5.424  1.3569  0.4716  1.8026
  118CHL1   C2314977   0.448   1.689   5.274 -0.7682 -0.1044  0.2511
  118CHL1  H23A14978   0.519   1.773   5.289  0.8096 -1.1856 -0.8696
  118CHL1  H23B14979   0.515   1.610   5.232 -0.1428 -0.6053  2.0819
  118CHL1   C2414980   0.350   1.751   5.172  0.7174  0.1998  0.1296
  118CHL1  H24A14981   0.273   1.672   5.156  1.8265 -0.9005  0.0585
  118CHL1  H24B14982   0.298   1.835   5.223  1.6363  0.8047  0.0953
  118CHL1   C2514983   0.412   1.806   5.039  1.1678 -0.1240 -0.7262
  118CHL1   H2514984   0.503   1.863   5.067 -0.0405  1.6571 -0.2446
  118CHL1   C2614985   0.451   1.697   4.943  0.0535 -0.3519 -0.4060
  118CHL1  H26A14986   0.498   1.737   4.850 -0.7516  1.4651 -0.0748
  118CHL1  H26B14987   0.521   1.628   4.994 -0.8973 -0.8590  0.2274
  118CHL1  H26C14988   0.351   1.655   4.919 -0.4825  1.2415 -1.1148
  118CHL1   C2714989   0.325   1.918   4.976 -0.6534  0.6296 -0.5123
  118CHL1  H27A14990   0.389   1.989   4.919  1.5891  1.0619  2.3080
  118CHL1  H27B14991   0.244   1.884   4.908 -0.0309 -0.4326 -0.7263
  118CHL1  H27C14992   0.277   1.978   5.057 -3.9898 -0.5246 -1.4522
  119CHL1    C314993   1.073   1.024   6.803  0.1488  0.1155 -0.4793
  119CHL1    H314994   1.183   1.009   6.811  0.5698  2.3279 -1.4513
  119CHL1    O314995   1.005   1.010   6.932 -0.2627 -0.1464 -0.6956
  119CHL1   H3'14996   0.911   1.029   6.922 -0.9972 -0.2426  3.6770
  119CHL1    C414997   1.040   1.164   6.752 -0.1554  0.0889 -0.3369
  119CHL1   H4A14998   0.929   1.159   6.752 -0.1991  0.9001 -0.2251
  119CHL1   H4B14999   1.051   1.250   6.821  0.6256 -0.5717  0.3873
  119CHL1    C515000   1.090   1.196   6.607  0.5317 -0.5996 -0.5603
  119CHL1    C615001   1.174   1.298   6.582 -0.2286 -0.4261 -0.6874
  119CHL1    H615002   1.210   1.361   6.664 -2.2391 -1.0132  0.7282
  119CHL1    C715003   1.219   1.319   6.444  0.0481  0.1300 -0.9332
  119CHL1   H7A15004   1.211   1.424   6.410 -0.4627 -0.0200 -1.2838
  119CHL1   H7B15005   1.326   1.288   6.440 -0.0352 -0.2625 -0.3528
  119CHL1    C815006   1.138   1.243   6.332 -0.2379  0.1986 -0.3459
  119CHL1    H815007   1.043   1.297   6.311  0.1749  0.4821 -1.6149
  119CHL1   C1415008   1.209   1.240   6.197  0.0853  0.3427 -0.3964
  119CHL1   H1415009   1.303   1.187   6.221  1.2150  2.7293  0.8001
  119CHL1   C1515010   1.241   1.378   6.137 -0.3530  0.1897 -0.2180
  119CHL1  H15A15011   1.151   1.442   6.144  0.1821  0.7720  1.8724
  119CHL1  H15B15012   1.327   1.422   6.192  1.9980 -2.7549 -1.2476
  119CHL1   C1615013   1.280   1.347   5.994 -0.1118 -0.1901  0.2272
  119CHL1  H16A15014   1.237   1.420   5.923  1.2223  1.1411  0.7257
  119CHL1  H16B15015   1.389   1.365   5.980 -0.0715 -1.6635 -1.7121
  119CHL1   C1715016   1.244   1.202   5.967  0.4489 -0.2018  0.5329
  119CHL1   H1715017   1.340   1.152   5.991  1.7838  2.4184  1.0043
  119CHL1   C1315018   1.148   1.158   6.076  0.1485 -0.5004 -0.7373
  119CHL1   C1815019   1.013   1.220   6.054  0.4358 -0.1245  0.1971
  119CHL1  H18A15020   0.959   1.220   6.151 -0.2252 -2.0218 -0.1432
  119CHL1  H18B15021   1.014   1.322   6.010 -4.3708  0.6589  1.3659
  119CHL1  H18C15022   0.960   1.153   5.984 -0.9224 -1.6279  2.5336
  119CHL1   C1215023   1.145   1.015   6.131 -0.2889  0.2313  0.2390
  119CHL1  H12A15024   1.101   0.961   6.046 -1.9053  2.0596 -0.1605
  119CHL1  H12B15025   1.249   0.976   6.145  1.1721  3.9722  1.1357
  119CHL1   C1115026   1.063   1.001   6.262  0.5699  0.5046 -0.0277
  119CHL1  H11A15027   0.959   1.028   6.235 -0.3013 -1.3160  1.3163
  119CHL1  H11B15028   1.062   0.894   6.292 -0.1664  0.4068 -0.3861
  119CHL1    C915029   1.117   1.098   6.374 -0.9819 -0.0939 -0.0741
  119CHL1    H915030   1.218   1.057   6.397 -1.4270 -0.4218  1.3765
  119CHL1   C1015031   1.041   1.088   6.506 -0.4569  0.2762  0.8098
  119CHL1   C1915032   0.882   1.111   6.483  0.3566 -0.1660 -0.1351
  119CHL1  H19A15033   0.845   1.044   6.404  1.6697 -0.4897 -0.5023
  119CHL1  H19B15034   0.825   1.090   6.576 -1.7748  2.2915 -0.7445
  119CHL1  H19C15035   0.849   1.215   6.459 -0.2075  0.4578  2.8661
  119CHL1    C115036   1.067   0.944   6.567 -0.4678  0.7065 -0.0190
  119CHL1   H1A15037   1.045   0.864   6.493  1.0516  1.0560 -0.9006
  119CHL1   H1B15038   1.178   0.942   6.572 -0.4380  0.1229 -0.7651
  119CHL1    C215039   1.015   0.917   6.708  0.3233  0.4496 -0.9437
  119CHL1   H2A15040   1.037   0.813   6.741  0.2706  0.3055 -1.3620
  119CHL1   H2B15041   0.905   0.931   6.715  0.4964  1.6078 -0.2275
  119CHL1   C2015042   1.211   1.166   5.819 -0.3990 -0.2599  0.0228
  119CHL1   H2015043   1.107   1.199   5.798 -1.0675 -1.8511  0.6121
  119CHL1   C2115044   1.209   1.012   5.799  0.6821 -0.2990 -0.7594
  119CHL1  H21A15045   1.129   0.969   5.864  3.3766 -2.3610  1.4290
  119CHL1  H21B15046   1.300   0.961   5.835 -0.1507 -0.1427  1.7782
  119CHL1  H21C15047   1.191   0.990   5.692 -0.1867  1.5048 -1.0294
  119CHL1   C2215048   1.305   1.228   5.711  0.5484 -0.5311  0.3341
  119CHL1  H22A15049   1.277   1.186   5.612 -3.4736 -0.4497  1.2825
  119CHL1  H22B15050   1.285   1.337   5.712 -0.0025 -0.6221 -0.2064
  119CHL1   C2315051   1.454   1.213   5.731 -0.3966  0.6866  0.4062
  119CHL1  H23A15052   1.482   1.265   5.825  0.3695 -0.0717  0.6063
  119CHL1  H23B15053   1.480   1.106   5.745 -0.2329  0.5787 -0.6579
  119CHL1   C2415054   1.529   1.283   5.616 -0.8853 -0.4360  0.2187
  119CHL1  H24A15055   1.510   1.242   5.515 -2.0972 -0.2269  0.3472
  119CHL1  H24B15056   1.497   1.390   5.618  0.5586  0.0037  1.7262
  119CHL1   C2515057   1.683   1.299   5.628  0.4152  0.1873 -0.5498
  119CHL1   H2515058   1.689   1.381   5.703 -1.0913 -0.5264  0.3886
  119CHL1   C2615059   1.751   1.178   5.687 -0.8001  0.5841 -0.2080
  119CHL1  H26A15060   1.861   1.183   5.670 -0.8051  0.7834 -0.1833
  119CHL1  H26B15061   1.740   1.174   5.797  0.1801 -0.8718 -0.1294
  119CHL1  H26C15062   1.713   1.085   5.639 -0.5339  1.5681 -2.4955
  119CHL1   C2715063   1.743   1.343   5.497  0.2275 -0.4437  0.1680
  119CHL1  H27A15064   1.742   1.259   5.425  1.7384 -0.5463  0.2299
  119CHL1  H27B15065   1.686   1.427   5.451  0.7430  1.0614  2.1033
  119CHL1  H27C15066   1.843   1.388   5.512 -0.5173  1.4158 -0.1257
  120CHL1    C315067   1.175   0.516   6.557  0.1341 -0.0754  0.0696
  120CHL1    H315068   1.078   0.569   6.551  0.9017  1.3201 -0.3439
  120CHL1    O315069   1.216   0.488   6.691  0.3673  0.2453 -0.2511
  120CHL1   H3'15070   1.225   0.576   6.728 -0.3897  0.5034 -0.6685
  120CHL1    C415071   1.186   0.381   6.486  0.4230  0.0135  0.0160
  120CHL1   H4A15072   1.284   0.335   6.513  0.3962 -0.4827 -0.6871
  120CHL1   H4B15073   1.107   0.320   6.533  2.1013 -0.4247  2.4356
  120CHL1    C515074   1.163   0.394   6.336  0.3560  0.3612 -0.2158
  120CHL1    C615075   1.064   0.327   6.281  0.2884 -0.5161 -0.0412
  120CHL1    H615076   1.008   0.265   6.352  0.1692 -0.3335  0.0234
  120CHL1    C715077   1.025   0.330   6.142 -0.1319 -0.5718  0.0032
  120CHL1   H7A15078   1.015   0.225   6.107  3.0403 -1.0972  0.3492
  120CHL1   H7B15079   0.926   0.380   6.136  0.0931  0.1358  1.5503
  120CHL1    C815080   1.125   0.400   6.045 -0.4433 -0.1203 -0.3788
  120CHL1    H815081   1.213   0.334   6.027 -1.0673 -0.6170 -1.7371
  120CHL1   C1415082   1.056   0.440   5.916  0.5632  0.4388  0.0450
  120CHL1   H1415083   0.981   0.515   5.950 -1.1145 -0.6770 -1.0326
  120CHL1   C1515084   0.967   0.334   5.854  0.6972  0.4355  0.4063
  120CHL1  H15A15085   1.006   0.231   5.838 -3.2241 -1.2057  0.3257
  120CHL1  H15B15086   0.868   0.324   5.902  0.9945 -0.0739  0.9162
  120CHL1   C1615087   0.939   0.389   5.709  0.2027  0.0927  1.2061
  120CHL1  H16A15088   0.970   0.321   5.627  2.1659  2.7782 -0.4354
  120CHL1  H16B15089   0.835   0.425   5.692 -0.2741 -1.2610  1.1319
  120CHL1   C1715090   1.034   0.521   5.698  0.7272 -0.1296 -0.1171
  120CHL1   H1715091   0.975   0.607   5.736  2.0051 -0.1994  2.2349
  120CHL1   C1315092   1.140   0.506   5.810 -0.3860  0.6378 -0.0009
  120CHL1   C1815093   1.249   0.395   5.760  1.0171 -0.2643 -0.1624
  120CHL1  H18A15094   1.209   0.319   5.690  1.3921 -1.6280  1.0428
  120CHL1  H18B15095   1.329   0.454   5.710  3.0485 -2.5150  0.2135
  120CHL1  H18C15096   1.307   0.346   5.841  1.7032 -0.6783 -0.8993
  120CHL1   C1215097   1.203   0.625   5.876 -0.3530  0.2883 -0.1841
  120CHL1  H12A15098   1.280   0.681   5.820 -0.7514 -1.4699 -2.6712
  120CHL1  H12B15099   1.128   0.704   5.898  0.9802  1.0689  1.8668
  120CHL1   C1115100   1.275   0.603   6.008  0.5157 -0.4319  0.3800
  120CHL1  H11A15101   1.377   0.561   5.997  0.6312  0.4705 -2.7494
  120CHL1  H11B15102   1.289   0.702   6.057  2.2407 -1.5233  2.2656
  120CHL1    C915103   1.189   0.530   6.113  0.1387 -0.1447  0.1755
  120CHL1    H915104   1.100   0.594   6.131 -0.4246 -1.4273  2.4084
  120CHL1   C1015105   1.250   0.494   6.256  0.4142 -0.0278 -0.2088
  120CHL1   C1915106   1.383   0.429   6.236  0.4928  0.2219  0.3011
  120CHL1  H19A15107   1.382   0.345   6.163  0.7600  0.3667  0.1288
  120CHL1  H19B15108   1.452   0.506   6.196 -2.0586  1.9546 -1.0673
  120CHL1  H19C15109   1.419   0.394   6.335 -0.8042  3.3649  2.0079
  120CHL1    C115110   1.244   0.627   6.338 -1.2303  0.3249 -0.2811
  120CHL1   H1A15111   1.319   0.702   6.301  2.7408 -3.1545 -0.0371
  120CHL1   H1B15112   1.146   0.679   6.332 -1.5792 -0.3883 -0.7813
  120CHL1    C215113   1.278   0.604   6.491  0.4508  0.2926 -0.9560
  120CHL1   H2A15114   1.265   0.698   6.549  0.8051 -2.2629  3.7628
  120CHL1   H2B15115   1.382   0.569   6.508 -0.5606 -1.6620  1.9498
  120CHL1   C2015116   1.079   0.553   5.560 -0.2522 -0.7727  0.8819
  120CHL1   H2015117   1.151   0.481   5.515  0.6065  1.2235 -1.1326
  120CHL1   C2115118   1.155   0.688   5.556  0.3944 -0.5644  0.2653
  120CHL1  H21A15119   1.260   0.660   5.578  0.0049 -0.2716  2.8093
  120CHL1  H21B15120   1.118   0.759   5.633  1.7859 -1.0792  1.4644
  120CHL1  H21C15121   1.156   0.722   5.450 -3.8103 -0.7164  0.0043
  120CHL1   C2215122   0.964   0.561   5.457  0.1930 -0.4431  0.8757
  120CHL1  H22A15123   0.908   0.464   5.459  0.1497 -0.4394  0.0549
  120CHL1  H22B15124   0.883   0.631   5.488  0.0901  0.1528 -0.6814
  120CHL1   C2315125   1.017   0.566   5.313 -0.0391  0.0273  0.5733
  120CHL1  H23A15126   1.062   0.666   5.290  1.0149 -0.4417  0.5124
  120CHL1  H23B15127   1.101   0.494   5.301 -0.6956 -0.7279  0.4738
  120CHL1   C2415128   0.914   0.551   5.196  0.4945  0.7699 -0.5688
  120CHL1  H24A15129   0.871   0.452   5.222  1.5100  0.6247  0.6330
  120CHL1  H24B15130   0.833   0.626   5.211 -0.7944 -0.7170  0.2166
  120CHL1   C2515131   0.978   0.540   5.059  0.4998  0.0132 -0.2884
  120CHL1   H2515132   1.065   0.471   5.063  0.5306  0.0899  2.6990
  120CHL1   C2615133   0.882   0.483   4.951 -0.2506  0.1052  0.8308
  120CHL1  H26A15134   0.848   0.381   4.980  0.9017 -1.6269 -3.2313
  120CHL1  H26B15135   0.794   0.549   4.941 -0.7101 -0.6645 -0.4027
  120CHL1  H26C15136   0.927   0.483   4.850 -0.8169  0.6134  0.5740
  120CHL1   C2715137   1.026   0.678   5.017  0.1064  0.5169  0.4687
  120CHL1  H27A15138   0.945   0.754   5.017  2.2374  2.9379  1.5499
  120CHL1  H27B15139   1.109   0.718   5.079  1.4026 -1.8921  0.4234
  120CHL1  H27C15140   1.050   0.684   4.909 -2.8601 -1.5559 -0.4603
  121CHL1    C315141   3.452   2.412   3.663 -0.2667  0.2729  0.9630
  121CHL1    H315142   3.546   2.352   3.661  0.3005  1.0996 -1.8612
  121CHL1    O315143   3.444   2.454   3.523  0.1924  0.6815 -0.1709
  121CHL1   H3'15144   3.364   2.507   3.517  0.0165  0.6701  1.6802
  121CHL1    C415145   3.323   2.331   3.705 -0.4913  0.0577  0.1981
  121CHL1   H4A15146   3.236   2.393   3.677 -1.8453 -1.2173  1.4070
  121CHL1   H4B15147   3.315   2.241   3.640  1.7044  0.3998 -0.6431
  121CHL1    C515148   3.325   2.301   3.857  1.2527  0.2448  0.3822
  121CHL1    C615149   3.310   2.181   3.911  0.4441  0.7255  0.1225
  121CHL1    H615150   3.286   2.093   3.850  0.4220  1.2851 -0.6833
  121CHL1    C715151   3.304   2.152   4.054  0.3705 -0.2504 -0.2589
  121CHL1   H7A15152   3.218   2.084   4.072  0.5042 -0.1104  0.9914
  121CHL1   H7B15153   3.401   2.107   4.086  1.0303  1.1790 -0.2024
  121CHL1    C815154   3.279   2.282   4.145  0.4537 -0.1154 -0.1580
  121CHL1    H815155   3.174   2.318   4.134  0.7177  1.3492  1.8341
  121CHL1   C1415156   3.294   2.258   4.288 -0.4716  0.1594 -0.0136
  121CHL1   H1415157   3.401   2.229   4.294 -0.9183 -1.4921  0.4525
  121CHL1   C1515158   3.217   2.140   4.350  0.5990  0.2632  0.4473
  121CHL1  H15A15159   3.108   2.149   4.332  0.4187  0.6449  1.6294
  121CHL1  H15B15160   3.239   2.039   4.310 -2.4751  0.6339 -2.5759
  121CHL1   C1615161   3.225   2.161   4.499 -0.1208  0.1250 -0.4249
  121CHL1  H16A15162   3.126   2.143   4.546  0.3783 -0.8498  0.3024
  121CHL1  H16B15163   3.289   2.084   4.548 -0.4271 -0.0303 -0.2680
  121CHL1   C1715164   3.290   2.300   4.517 -0.6502  0.7356 -0.0792
  121CHL1   H1715165   3.397   2.272   4.522 -0.2487  1.8185 -1.8690
  121CHL1   C1315166   3.267   2.371   4.390 -0.2532  0.1579 -0.2706
  121CHL1   C1815167   3.123   2.428   4.383 -0.2728 -0.3989  0.1858
  121CHL1  H18A15168   3.095   2.467   4.283 -1.4395  1.9908  1.3532
  121CHL1  H18B15169   3.045   2.356   4.416 -1.3251 -0.1139 -1.5940
  121CHL1  H18C15170   3.120   2.509   4.460  3.6152 -0.8933  1.0570
  121CHL1   C1215171   3.373   2.481   4.351 -0.3274  0.1679  0.1406
  121CHL1  H12A15172   3.350   2.571   4.412 -1.2361  0.0410 -0.0052
  121CHL1  H12B15173   3.477   2.447   4.370 -0.2810 -0.2808 -0.8580
  121CHL1   C1115174   3.365   2.520   4.201 -0.3148  0.4594  0.3879
  121CHL1  H11A15175   3.265   2.562   4.175 -1.0697 -1.7066 -0.4028
  121CHL1  H11B15176   3.441   2.600   4.183  1.0235 -0.5247  1.4410
  121CHL1    C915177   3.372   2.398   4.103  0.5370 -0.0388  0.4039
  121CHL1    H915178   3.474   2.353   4.103 -0.7554 -3.2629 -0.3849
  121CHL1   C1015179   3.349   2.428   3.949  0.2571 -0.0590  0.1168
  121CHL1   C1915180   3.230   2.530   3.929 -0.5694 -0.2462 -0.4038
  121CHL1  H19A15181   3.144   2.478   3.978  0.4874 -0.8177  0.9107
  121CHL1  H19B15182   3.253   2.626   3.980 -1.5356  0.2416 -0.8612
  121CHL1  H19C15183   3.198   2.552   3.825 -0.8626  0.2218 -0.2169
  121CHL1    C115184   3.478   2.502   3.900 -0.8131  0.3127 -0.2448
  121CHL1   H1A15185   3.496   2.592   3.963 -0.5380  1.0443 -1.3296
  121CHL1   H1B15186   3.561   2.429   3.909 -2.1218 -1.4378 -1.6179
  121CHL1    C215187   3.475   2.537   3.750  0.3650  0.1831 -0.5655
  121CHL1   H2A15188   3.566   2.589   3.713  0.4008 -0.1390 -0.9341
  121CHL1   H2B15189   3.396   2.613   3.733  0.6804  0.6850  0.1717
  121CHL1   C2015190   3.266   2.373   4.651 -0.3841  0.0485 -0.9422
  121CHL1   H2015191   3.159   2.402   4.648 -0.8850 -1.5696  0.0405
  121CHL1   C2115192   3.357   2.501   4.665 -0.3773  0.0451  0.2478
  121CHL1  H21A15193   3.396   2.508   4.768 -1.0622  1.6656  0.4305
  121CHL1  H21B15194   3.300   2.592   4.637 -0.0048  0.0470 -0.5539
  121CHL1  H21C15195   3.445   2.492   4.597  0.1239  1.0575  0.7484
  121CHL1   C2215196   3.283   2.275   4.770  0.1420  0.1338 -0.1342
  121CHL1  H22A15197   3.221   2.183   4.765 -0.2580  0.4152 -0.5245
  121CHL1  H22B15198   3.389   2.244   4.775  0.5387  1.5685  3.0943
  121CHL1   C2315199   3.253   2.332   4.916  0.1271  0.3971  0.4372
  121CHL1  H23A15200   3.330   2.408   4.942  1.0983  0.2026 -1.6834
  121CHL1  H23B15201   3.159   2.392   4.910  0.1313  0.4867  1.1710
  121CHL1   C2415202   3.244   2.235   5.030  0.2196  0.3498  0.4227
  121CHL1  H24A15203   3.168   2.155   5.015  1.1341 -0.6132  0.7946
  121CHL1  H24B15204   3.342   2.183   5.033  0.6540  0.9680 -1.4885
  121CHL1   C2515205   3.213   2.302   5.163  0.1107 -0.3092 -0.0753
  121CHL1   H2515206   3.275   2.394   5.170  0.3027 -0.5495  1.7294
  121CHL1   C2615207   3.060   2.327   5.177 -1.0013  0.1223 -0.1572
  121CHL1  H26A15208   3.007   2.231   5.162 -2.4876  0.8556  0.2145
  121CHL1  H26B15209   3.049   2.368   5.280  0.7636  1.6460 -0.5167
  121CHL1  H26C15210   3.020   2.398   5.102 -1.6883  0.9468  0.9579
  121CHL1   C2715211   3.252   2.214   5.273  0.2401 -0.1624 -0.3969
  121CHL1  H27A15212   3.356   2.176   5.286  0.8411  1.9108  1.3234
  121CHL1  H27B15213   3.241   2.269   5.369 -1.1374  2.7081 -2.0707
  121CHL1  H27C15214   3.186   2.125   5.285 -0.4896  0.6617  2.2753
  122CHL1    C315215   3.256   3.546   3.288 -0.3560 -0.0061  0.8269
  122CHL1    H315216   3.349   3.541   3.348 -0.0749 -1.6747  0.3114
  122CHL1    O315217   3.303   3.515   3.157 -0.0768 -0.6957  0.0538
  122CHL1   H3'15218   3.294   3.595   3.104 -0.1571 -1.6781 -1.4820
  122CHL1    C415219   3.168   3.434   3.333  0.0156  0.6216  0.6762
  122CHL1   H4A15220   3.091   3.431   3.253 -1.6237  0.7981  2.1881
  122CHL1   H4B15221   3.218   3.335   3.329  0.4887  0.8680  0.3761
  122CHL1    C515222   3.117   3.457   3.471 -0.1788 -0.3374 -0.5549
  122CHL1    C615223   3.138   3.364   3.568 -0.2275 -0.1997  0.9710
  122CHL1    H615224   3.197   3.274   3.545  2.0305  1.2016  1.0421
  122CHL1    C715225   3.082   3.373   3.704  0.0299  0.6397 -0.1623
  122CHL1   H7A15226   3.035   3.274   3.723 -0.8002  1.3592  1.8488
  122CHL1   H7B15227   3.171   3.393   3.767  1.9547 -1.8250 -1.8880
  122CHL1    C815228   2.973   3.485   3.712 -0.2331  0.6903  0.5397
  122CHL1    H815229   2.882   3.446   3.663  1.2624 -1.7516 -0.4587
  122CHL1   C1415230   2.942   3.514   3.859  0.1023 -0.1102 -0.0461
  122CHL1   H1415231   3.038   3.520   3.915  0.8703  0.6339 -1.3992
  122CHL1   C1515232   2.875   3.392   3.934 -0.6654 -0.0787  0.6929
  122CHL1  H15A15233   2.786   3.373   3.869  0.1644  0.6286 -0.7103
  122CHL1  H15B15234   2.950   3.311   3.945 -0.5254 -0.0827 -0.1723
  122CHL1   C1615235   2.837   3.455   4.066  0.3256 -0.4606  0.0754
  122CHL1  H16A15236   2.740   3.404   4.087 -0.1075 -1.3731 -3.4570
  122CHL1  H16B15237   2.903   3.419   4.147 -0.6427 -2.6215 -0.0258
  122CHL1   C1715238   2.832   3.611   4.039  0.9296  0.3776 -0.6524
  122CHL1   H1715239   2.922   3.659   4.081 -0.4064  1.9211  0.5684
  122CHL1   C1315240   2.846   3.630   3.891  0.4450  0.4226  0.7815
  122CHL1   C1815241   2.714   3.606   3.818  0.6441  0.3266  0.3139
  122CHL1  H18A15242   2.655   3.699   3.833  1.0781  0.5915  0.4329
  122CHL1  H18B15243   2.724   3.598   3.708 -1.2884  0.0642  0.1285
  122CHL1  H18C15244   2.659   3.516   3.851  0.3444 -0.0642 -1.2110
  122CHL1   C1215245   2.916   3.758   3.838  0.4627 -0.2075  0.2869
  122CHL1  H12A15246   2.849   3.846   3.852  0.1400 -0.9067  4.7899
  122CHL1  H12B15247   3.013   3.773   3.890  1.9010  0.1590 -2.3434
  122CHL1   C1115248   2.941   3.744   3.685  0.0961 -0.4026 -0.1895
  122CHL1  H11A15249   2.843   3.739   3.633 -1.1664 -1.3717  2.1262
  122CHL1  H11B15250   2.997   3.837   3.659 -0.2324  0.2006  1.1369
  122CHL1    C915251   3.022   3.613   3.642 -0.0088 -0.1208  0.0986
  122CHL1    H915252   3.126   3.630   3.675 -0.3055  2.4841 -0.0614
  122CHL1   C1015253   3.045   3.593   3.495  0.5205 -0.8508 -0.6217
  122CHL1   C1915254   2.905   3.578   3.426 -0.7244  0.0944 -0.9575
  122CHL1  H19A15255   2.921   3.569   3.316 -1.4644 -1.4511 -0.9660
  122CHL1  H19B15256   2.853   3.483   3.451  0.1508 -0.7880 -2.3499
  122CHL1  H19C15257   2.828   3.656   3.442 -3.3053 -1.5849 -4.0591
  122CHL1    C115258   3.131   3.715   3.432 -0.1152  0.4780  0.1618
  122CHL1   H1A15259   3.073   3.808   3.447  0.3263  0.9231 -0.7824
  122CHL1   H1B15260   3.220   3.717   3.498 -0.1282  2.6525  0.1892
  122CHL1    C215261   3.184   3.683   3.296 -0.3853  0.6528  0.4606
  122CHL1   H2A15262   3.265   3.753   3.266 -0.5766  1.1209  1.0190
  122CHL1   H2B15263   3.101   3.699   3.223  0.9464 -1.0475 -1.5264
  122CHL1   C2015264   2.711   3.670   4.109 -1.0696  0.0953 -0.1142
  122CHL1   H2015265   2.614   3.642   4.061 -1.3056 -0.4708  0.6668
  122CHL1   C2115266   2.716   3.826   4.103 -0.4253  0.7510 -0.3390
  122CHL1  H21A15267   2.638   3.882   4.158  1.0981  2.2682  0.3604
  122CHL1  H21B15268   2.695   3.860   4.000  0.0050  2.7626  0.1844
  122CHL1  H21C15269   2.817   3.858   4.139  0.0752 -1.6001  0.5532
  122CHL1   C2215270   2.709   3.616   4.257 -0.4235  0.1565  0.1464
  122CHL1  H22A15271   2.676   3.511   4.269 -0.3763  0.1605  0.3040
  122CHL1  H22B15272   2.809   3.628   4.303  0.1503  0.0598 -1.0448
  122CHL1   C2315273   2.604   3.686   4.346  0.4015  0.4276  0.9217
  122CHL1  H23A15274   2.649   3.786   4.362  1.1710  0.0849  0.9352
  122CHL1  H23B15275   2.510   3.708   4.290 -1.2510 -3.1436  1.9625
  122CHL1   C2415276   2.586   3.608   4.480  0.4724 -0.0189 -0.4901
  122CHL1  H24A15277   2.615   3.502   4.464  1.6860 -0.1588  2.1299
  122CHL1  H24B15278   2.659   3.657   4.548 -1.1219 -0.9478  2.0218
  122CHL1   C2515279   2.446   3.615   4.548  0.3292  0.0123 -0.1576
  122CHL1   H2515280   2.376   3.574   4.473  0.6937 -0.1887 -0.3893
  122CHL1   C2615281   2.437   3.531   4.671  0.2330  0.7043 -0.9363
  122CHL1  H26A15282   2.452   3.423   4.648  0.2467  0.7654 -1.2270
  122CHL1  H26B15283   2.512   3.545   4.751 -0.0070 -1.7171 -0.2071
  122CHL1  H26C15284   2.339   3.548   4.721 -0.1539  0.0308 -1.4355
  122CHL1   C2715285   2.421   3.764   4.585  0.2576  0.6581 -0.0301
  122CHL1  H27A15286   2.518   3.796   4.629  0.7603 -1.9525  0.8863
  122CHL1  H27B15287   2.394   3.817   4.491  0.1160  0.0309 -0.3429
  122CHL1  H27C15288   2.329   3.773   4.646 -0.5696 -0.0214 -1.1299
  123CHL1    C315289   5.983   4.041   3.536 -0.0665 -0.1378 -0.3504
  123CHL1    H315290   6.009   3.938   3.569 -1.2538  0.1335  1.5745
  123CHL1    O315291   6.033   4.083   3.407 -0.4915 -0.2624  0.1126
  123CHL1   H3'15292   5.986   4.166   3.392 -1.7829 -0.5075  2.2600
  123CHL1    C415293   5.831   4.051   3.533  0.0779 -0.9215 -0.0876
  123CHL1   H4A15294   5.819   4.159   3.510  1.5690 -0.4670  1.0649
  123CHL1   H4B15295   5.792   3.989   3.450 -2.0836  0.0165  0.1539
  123CHL1    C515296   5.765   4.027   3.673  0.3767 -0.2200  0.2455
  123CHL1    C615297   5.660   3.937   3.689  0.2338  0.7928  0.1448
  123CHL1    H615298   5.622   3.886   3.599  1.6045 -0.2644  0.1365
  123CHL1    C715299   5.587   3.913   3.819 -0.5738 -0.4072  0.9023
  123CHL1   H7A15300   5.478   3.921   3.801 -0.5523 -0.8927  0.5362
  123CHL1   H7B15301   5.601   3.811   3.861 -2.0793 -1.2812 -0.6063
  123CHL1    C815302   5.611   4.026   3.920 -0.5470 -0.1815  0.4789
  123CHL1    H815303   5.560   4.117   3.884 -2.2030 -1.0492  0.5392
  123CHL1   C1415304   5.551   3.996   4.061 -0.0778  0.6184  0.2611
  123CHL1   H1415305   5.606   3.905   4.092 -0.0102  0.7728  0.5985
  123CHL1   C1515306   5.405   3.959   4.064  0.5780  0.6222 -0.8141
  123CHL1  H15A15307   5.341   4.034   4.012 -1.0554  0.7641  1.2462
  123CHL1  H15B15308   5.390   3.860   4.015  0.5230  1.3571 -2.3377
  123CHL1   C1615309   5.384   3.961   4.217  0.3282  0.2576 -0.7584
  123CHL1  H16A15310   5.282   4.004   4.230  0.2646 -0.3063  0.7086
  123CHL1  H16B15311   5.374   3.861   4.263  0.7238  0.3201 -0.5349
  123CHL1   C1715312   5.501   4.041   4.285  0.1935 -0.2504 -0.2532
  123CHL1   H1715313   5.568   3.969   4.336  2.4536 -0.2773 -3.0183
  123CHL1   C1315314   5.591   4.096   4.172 -0.0008  0.2737 -0.3326
  123CHL1   C1815315   5.541   4.236   4.136  0.9144 -0.6271  0.4922
  123CHL1  H18A15316   5.433   4.247   4.155  0.5545 -0.6303 -1.3650
  123CHL1  H18B15317   5.584   4.308   4.208 -1.4442  0.3078  1.0346
  123CHL1  H18C15318   5.559   4.253   4.027 -0.8052 -0.8469  0.1527
  123CHL1   C1215319   5.751   4.090   4.185  0.7428 -0.1796 -0.3114
  123CHL1  H12A15320   5.784   4.149   4.273 -1.6595 -2.3643  2.2311
  123CHL1  H12B15321   5.786   3.989   4.214 -0.6954 -1.3818 -2.4299
  123CHL1   C1115322   5.821   4.137   4.050  0.6084  0.2008 -0.0135
  123CHL1  H11A15323   5.800   4.246   4.048 -0.5356  0.0696  2.0441
  123CHL1  H11B15324   5.931   4.132   4.063  0.7745 -0.1636 -1.3883
  123CHL1    C915325   5.767   4.056   3.921 -0.1206 -0.2774 -0.0072
  123CHL1    H915326   5.812   3.956   3.935 -0.2040 -0.2059  0.8743
  123CHL1   C1015327   5.824   4.109   3.791  0.1800  0.0964 -0.1270
  123CHL1   C1915328   5.795   4.260   3.784  0.4166  0.3882 -0.0689
  123CHL1  H19A15329   5.684   4.268   3.786  0.4683  1.0774  0.6036
  123CHL1  H19B15330   5.822   4.334   3.862 -0.3638  1.3635 -0.6990
  123CHL1  H19C15331   5.838   4.293   3.687 -0.4836  1.3215 -0.1674
  123CHL1    C115332   5.979   4.105   3.783  0.3109  0.1882 -0.3049
  123CHL1   H1A15333   6.020   4.171   3.862  0.5577 -1.0788  0.6650
  123CHL1   H1B15334   6.007   4.002   3.813 -0.0520  0.4070  0.8323
  123CHL1    C215335   6.042   4.129   3.643  0.2536 -0.3996 -0.0078
  123CHL1   H2A15336   6.150   4.128   3.667  0.1127  0.5704  0.7491
  123CHL1   H2B15337   6.014   4.234   3.619  0.7543  0.0673  1.3306
  123CHL1   C2015338   5.456   4.125   4.407 -0.5916  1.1065  1.2687
  123CHL1   H2015339   5.393   4.209   4.369  0.0900  0.1493 -2.3830
  123CHL1   C2115340   5.585   4.187   4.471 -0.0485  0.1392 -0.1074
  123CHL1  H21A15341   5.567   4.248   4.561 -0.1679 -2.1152  1.4894
  123CHL1  H21B15342   5.648   4.241   4.396  1.5370  1.5820  2.1374
  123CHL1  H21C15343   5.646   4.104   4.513  0.2188  0.0201 -0.7101
  123CHL1   C2215344   5.368   4.045   4.501  0.3147  0.1773 -0.3512
  123CHL1  H22A15345   5.272   4.028   4.448  0.2690 -0.3550 -0.1043
  123CHL1  H22B15346   5.411   3.946   4.527  1.8115  0.6567 -0.9037
  123CHL1   C2315347   5.335   4.108   4.636 -0.7223 -0.1637  0.1858
  123CHL1  H23A15348   5.428   4.128   4.692 -1.6208 -1.9460  2.4911
  123CHL1  H23B15349   5.283   4.207   4.634 -0.1022  0.1676  0.0397
  123CHL1   C2415350   5.267   4.013   4.736 -0.7641  0.7114 -0.4097
  123CHL1  H24A15351   5.314   3.913   4.723  1.1974  1.5460 -0.1598
  123CHL1  H24B15352   5.297   4.058   4.834 -0.5925 -1.2103  0.4584
  123CHL1   C2515353   5.114   3.999   4.715  0.0529  0.3461 -0.7739
  123CHL1   H2515354   5.106   3.993   4.604  1.4035 -0.6123 -0.8516
  123CHL1   C2615355   5.052   3.872   4.777  0.5915 -0.4437  0.6387
  123CHL1  H26A15356   5.046   3.886   4.887  0.4550  0.8601  0.4890
  123CHL1  H26B15357   4.951   3.852   4.735  0.1133 -0.0369  1.5605
  123CHL1  H26C15358   5.116   3.783   4.763  1.1241  0.0264 -0.0206
  123CHL1   C2715359   5.031   4.116   4.766 -0.3388  0.1026  0.1143
  123CHL1  H27A15360   5.028   4.123   4.876  0.4514  1.0352  0.0945
  123CHL1  H27B15361   5.072   4.211   4.725  0.0153 -1.7798 -4.5465
  123CHL1  H27C15362   4.926   4.117   4.728  0.5971 -0.5322 -2.7285
  124CHL1    C315363   3.227   5.306   3.243 -0.4320  0.5490  0.2607
  124CHL1    H315364   3.170   5.399   3.222  0.9914  1.3633 -0.0918
  124CHL1    O315365   3.274   5.258   3.116  0.2349 -0.2236 -0.4568
  124CHL1   H3'15366   3.365   5.232   3.132 -0.7221 -2.1550  2.6353
  124CHL1    C415367   3.355   5.340   3.323  0.2165  0.3374 -0.4425
  124CHL1   H4A15368   3.418   5.249   3.316 -0.1188  0.0646  0.0736
  124CHL1   H4B15369   3.410   5.423   3.273 -1.6738  2.5316  0.9514
  124CHL1    C515370   3.323   5.379   3.470 -0.3508 -0.7231  0.1208
  124CHL1    C615371   3.354   5.497   3.523 -0.0627 -0.1880 -0.2779
  124CHL1    H615372   3.409   5.570   3.462 -2.5174  1.5698 -0.5370
  124CHL1    C715373   3.329   5.533   3.666 -0.5975 -0.3155 -0.0751
  124CHL1   H7A15374   3.413   5.593   3.708 -0.3211 -1.7165  1.4524
  124CHL1   H7B15375   3.240   5.598   3.681 -0.2912 -0.3525  2.2972
  124CHL1    C815376   3.302   5.404   3.749  0.5596 -0.2498 -0.2725
  124CHL1    H815377   3.393   5.339   3.749 -1.0395 -2.6534 -0.9140
  124CHL1   C1415378   3.248   5.447   3.886  0.5133  0.1936  0.4752
  124CHL1   H1415379   3.157   5.500   3.849  0.0219 -1.3243 -0.5600
  124CHL1   C1515380   3.341   5.534   3.966 -0.2640  0.0377  0.0109
  124CHL1  H15A15381   3.445   5.498   3.958 -0.6395 -0.9197 -0.7509
  124CHL1  H15B15382   3.343   5.640   3.931  0.1886  0.2634  0.7134
  124CHL1   C1615383   3.282   5.528   4.106  0.7888 -0.2609 -0.0229
  124CHL1  H16A15384   3.368   5.494   4.168  2.9785 -0.2280 -2.8286
  124CHL1  H16B15385   3.237   5.618   4.154 -0.3379 -1.5891  1.5077
  124CHL1   C1715386   3.167   5.420   4.103 -0.4539 -0.0443  0.9609
  124CHL1   H1715387   3.077   5.483   4.087  0.1471  0.6562  0.2945
  124CHL1   C1315388   3.203   5.333   3.976  0.3647  0.1180  0.4462
  124CHL1   C1815389   3.321   5.240   4.016  0.7781  0.0945 -0.3240
  124CHL1  H18A15390   3.297   5.160   4.089  0.6026  1.7268  1.5111
  124CHL1  H18B15391   3.356   5.180   3.930  0.6132 -0.7366  0.1749
  124CHL1  H18C15392   3.409   5.299   4.049  0.0606  0.6486  0.6548
  124CHL1   C1215393   3.088   5.268   3.908  0.1169  0.4611 -0.0958
  124CHL1  H12A15394   3.046   5.181   3.964 -2.4817  1.6542 -0.0241
  124CHL1  H12B15395   3.002   5.336   3.890 -1.4390 -1.5275 -0.4235
  124CHL1   C1115396   3.123   5.220   3.766  0.1196  0.8990 -0.3853
  124CHL1  H11A15397   3.186   5.130   3.781 -0.3006  0.8697  1.4291
  124CHL1  H11B15398   3.030   5.178   3.723  1.3196 -3.4380  0.7462
  124CHL1    C915399   3.188   5.326   3.681 -0.2568  0.3951  0.2954
  124CHL1    H915400   3.103   5.393   3.656  0.9856  2.4668  1.3523
  124CHL1   C1015401   3.236   5.278   3.541  0.5661  0.8104 -0.2692
  124CHL1   C1915402   3.331   5.153   3.557 -0.1379 -0.4844 -0.4184
  124CHL1  H19A15403   3.365   5.120   3.457  1.1236  0.2301 -0.2518
  124CHL1  H19B15404   3.412   5.175   3.630 -1.6040 -1.4363  1.6017
  124CHL1  H19C15405   3.270   5.076   3.608  0.1715  0.9325  2.3018
  124CHL1    C115406   3.113   5.252   3.452 -0.5326  0.1841  0.0567
  124CHL1   H1A15407   3.067   5.163   3.500  0.3027 -1.3752 -1.8629
  124CHL1   H1B15408   3.036   5.332   3.446 -0.7790 -0.1345 -1.6658
  124CHL1    C215409   3.144   5.200   3.312 -0.3633  0.6501  0.2607
  124CHL1   H2A15410   3.057   5.180   3.245 -0.2366 -0.5148  0.4151
  124CHL1   H2B15411   3.201   5.106   3.327 -0.8221  0.5680  1.5920
  124CHL1   C2015412   3.133   5.349   4.243  0.3227 -0.1948  0.1606
  124CHL1   H2015413   3.204   5.267   4.264 -0.3417 -1.0781 -0.9349
  124CHL1   C2115414   2.994   5.292   4.232  0.1421 -0.6635 -0.0936
  124CHL1  H21A15415   2.964   5.257   4.333 -0.1168 -2.4484 -0.7481
  124CHL1  H21B15416   2.992   5.201   4.169 -0.3822 -2.9280  2.9764
  124CHL1  H21C15417   2.915   5.366   4.208 -1.2978 -0.9464  3.2152
  124CHL1   C2215418   3.144   5.447   4.361  0.1031 -0.0591 -0.1056
  124CHL1  H22A15419   3.223   5.525   4.362 -1.1054  1.2511 -1.3806
  124CHL1  H22B15420   3.045   5.497   4.375  0.5303  0.3986  1.5209
  124CHL1   C2315421   3.159   5.367   4.493  0.6976 -0.2214 -0.3725
  124CHL1  H23A15422   3.079   5.290   4.494  0.0897  0.3622  2.2726
  124CHL1  H23B15423   3.259   5.320   4.486  1.5501  1.4915 -0.4467
  124CHL1   C2415424   3.139   5.443   4.623  0.6128 -0.3570 -0.2844
  124CHL1  H24A15425   3.199   5.537   4.613 -0.6506  0.4782 -0.1827
  124CHL1  H24B15426   3.032   5.464   4.642  0.9250 -0.4807  1.8313
  124CHL1   C2515427   3.184   5.367   4.743 -0.0729 -0.5962  0.0794
  124CHL1   H2515428   3.145   5.264   4.728 -0.8513 -0.0447 -2.0091
  124CHL1   C2615429   3.335   5.343   4.755  0.3751 -0.0172 -0.2688
  124CHL1  H26A15430   3.382   5.318   4.657 -1.3449 -2.9524 -0.4829
  124CHL1  H26B15431   3.400   5.412   4.813 -0.0040 -1.8085  2.4558
  124CHL1  H26C15432   3.345   5.249   4.814 -1.3417  0.7718  1.3814
  124CHL1   C2715433   3.121   5.420   4.871 -0.3763  0.5703 -0.1326
  124CHL1  H27A15434   3.164   5.521   4.885  1.0974  0.0611 -0.7394
  124CHL1  H27B15435   3.010   5.419   4.864 -0.4409 -0.2925  0.7901
  124CHL1  H27C15436   3.138   5.355   4.960 -0.1073  0.8840  0.0457
  125CHL1    C315437   4.110   4.590   3.582 -0.8394 -0.2771  0.1925
  125CHL1    H315438   4.016   4.560   3.632 -1.3674  0.6618 -0.2066
  125CHL1    O315439   4.090   4.675   3.472  0.1856 -0.2412  0.1794
  125CHL1   H3'15440   4.175   4.699   3.435 -1.1469  1.2295 -2.1802
  125CHL1    C415441   4.208   4.665   3.683 -0.1201 -0.0355  0.6396
  125CHL1   H4A15442   4.306   4.691   3.638  0.2438  0.1409  1.5092
  125CHL1   H4B15443   4.155   4.760   3.703 -0.1661 -0.0218  0.4560
  125CHL1    C515444   4.228   4.568   3.798  0.6335 -0.6519  0.3717
  125CHL1    C615445   4.174   4.603   3.912 -0.0854  0.4875  0.7511
  125CHL1    H615446   4.126   4.700   3.934  1.0776  1.1411  0.4952
  125CHL1    C715447   4.190   4.510   4.030  0.4253  0.0903  0.1094
  125CHL1   H7A15448   4.218   4.566   4.121 -0.8374  2.3458 -0.8063
  125CHL1   H7B15449   4.099   4.449   4.049 -0.8473  1.5782 -0.9478
  125CHL1    C815450   4.296   4.405   4.016  0.0107 -0.3672  0.0948
  125CHL1    H815451   4.391   4.458   4.039  0.6204 -1.1323 -0.6134
  125CHL1   C1415452   4.273   4.293   4.123  0.7738 -0.7964 -0.2243
  125CHL1   H1415453   4.174   4.245   4.106  0.4617  0.4333 -2.1733
  125CHL1   C1515454   4.263   4.341   4.275 -0.0017 -0.4742 -0.5619
  125CHL1  H15A15455   4.341   4.414   4.304  0.7289 -0.5486 -2.1833
  125CHL1  H15B15456   4.170   4.399   4.295  0.8094  0.8572 -0.5509
  125CHL1   C1615457   4.293   4.211   4.354  0.3351 -0.0977 -0.1399
  125CHL1  H16A15458   4.358   4.238   4.440 -1.6807 -0.5242  1.6202
  125CHL1  H16B15459   4.201   4.161   4.391 -0.9117  0.7942 -1.8853
  125CHL1   C1715460   4.342   4.098   4.246 -0.0627  0.0909  0.3867
  125CHL1   H1715461   4.252   4.041   4.214 -0.7551  1.6960 -0.6178
  125CHL1   C1315462   4.376   4.186   4.121  0.8513 -0.0537  0.5276
  125CHL1   C1815463   4.511   4.246   4.145  0.0783  0.1655  0.4405
  125CHL1  H18A15464   4.516   4.281   4.251 -1.9738  1.2158  0.2351
  125CHL1  H18B15465   4.585   4.165   4.128 -0.1899 -0.0166  0.1478
  125CHL1  H18C15466   4.539   4.320   4.068 -0.4690  0.7660  0.8116
  125CHL1   C1215467   4.355   4.118   3.983  0.0257 -0.4625  0.4399
  125CHL1  H12A15468   4.416   4.026   3.973  1.4181  0.2145  2.2275
  125CHL1  H12B15469   4.254   4.073   3.983 -1.3048  2.2074 -1.2629
  125CHL1   C1115470   4.375   4.214   3.868  0.0974  0.1346 -0.1358
  125CHL1  H11A15471   4.481   4.247   3.873 -0.2861  1.3825  0.1897
  125CHL1  H11B15472   4.367   4.166   3.768  2.9920 -1.2470  0.1811
  125CHL1    C915473   4.286   4.339   3.880  0.8456  0.3104 -0.4347
  125CHL1    H915474   4.182   4.302   3.875  0.9673 -0.1422  0.2098
  125CHL1   C1015475   4.296   4.439   3.763 -1.0343  0.3287  0.1861
  125CHL1   C1915476   4.445   4.471   3.733  0.0022  0.4517  0.4900
  125CHL1  H19A15477   4.457   4.559   3.665 -1.9668  0.6218  0.2880
  125CHL1  H19B15478   4.490   4.490   3.833  0.4878 -1.1866  0.6094
  125CHL1  H19C15479   4.477   4.386   3.670 -2.3251 -0.2187  0.1254
  125CHL1    C115480   4.227   4.375   3.638  0.3904  0.6530  0.6360
  125CHL1   H1A15481   4.286   4.301   3.580 -0.7528  0.9768 -1.0098
  125CHL1   H1B15482   4.134   4.324   3.671  0.5500  0.1926  0.3719
  125CHL1    C215483   4.190   4.470   3.529  0.2569 -0.3017  0.6159
  125CHL1   H2A15484   4.117   4.423   3.461 -3.2009  4.4822  0.5081
  125CHL1   H2B15485   4.282   4.492   3.470 -0.2433  0.1840 -0.0026
  125CHL1   C2015486   4.453   4.002   4.312  0.7748  0.2510 -0.6353
  125CHL1   H2015487   4.544   4.062   4.336  1.4854 -0.8817 -0.4096
  125CHL1   C2115488   4.483   3.894   4.210 -0.2018 -0.1653  0.1575
  125CHL1  H21A15489   4.404   3.817   4.202  0.9490 -1.2291 -1.7615
  125CHL1  H21B15490   4.584   3.849   4.224  0.8174  1.7228 -0.7251
  125CHL1  H21C15491   4.488   3.937   4.108  0.7027  1.6061  0.8821
  125CHL1   C2215492   4.408   3.938   4.445 -0.5415 -0.2267 -0.5598
  125CHL1  H22A15493   4.394   4.022   4.516 -1.9844  0.7486 -1.9234
  125CHL1  H22B15494   4.312   3.882   4.444 -0.9487  0.4352  0.2306
  125CHL1   C2315495   4.515   3.849   4.522  0.2459  0.0202 -0.2345
  125CHL1  H23A15496   4.543   3.765   4.454  3.3464  1.3535 -0.7950
  125CHL1  H23B15497   4.611   3.904   4.528  0.7684 -0.9937  1.2826
  125CHL1   C2415498   4.474   3.801   4.661  0.5390  0.0114 -0.2392
  125CHL1  H24A15499   4.418   3.883   4.711 -1.8329 -0.8904 -1.2561
  125CHL1  H24B15500   4.405   3.714   4.662 -2.7714  2.4129  1.5824
  125CHL1   C2515501   4.597   3.751   4.735 -0.3770  0.5115 -0.2827
  125CHL1   H2515502   4.668   3.709   4.661 -0.2024 -0.0252  0.1844
  125CHL1   C2615503   4.657   3.874   4.798  0.2126  0.5204  0.1649
  125CHL1  H26A15504   4.695   3.942   4.718 -0.1941 -0.4643 -0.8921
  125CHL1  H26B15505   4.582   3.929   4.859 -1.6499  0.8273 -2.2420
  125CHL1  H26C15506   4.744   3.851   4.862 -0.6631 -0.3799  1.0668
  125CHL1   C2715507   4.568   3.652   4.849  0.4982 -0.2114  0.6648
  125CHL1  H27A15508   4.665   3.629   4.898  0.0127  0.6134  2.0777
  125CHL1  H27B15509   4.501   3.689   4.930 -0.1273  0.2625 -0.0544
  125CHL1  H27C15510   4.528   3.552   4.824 -1.4795 -0.4393  4.1147
  126CHL1    C315511   2.290   5.659   3.460  0.2179 -0.5403 -0.3547
  126CHL1    H315512   2.200   5.595   3.449  0.0435 -0.1655 -1.1493
  126CHL1    O315513   2.338   5.676   3.329  0.9156  0.3276  0.1284
  126CHL1   H3'15514   2.359   5.769   3.318  0.2649  0.2849 -1.8850
  126CHL1    C415515   2.264   5.799   3.519 -0.1463 -0.8195 -1.0387
  126CHL1   H4A15516   2.369   5.836   3.528 -0.3724 -0.6193  1.9095
  126CHL1   H4B15517   2.195   5.863   3.461 -2.1716 -0.8000  1.2412
  126CHL1    C515518   2.209   5.785   3.659  0.3586 -0.6407 -0.0627
  126CHL1    C615519   2.090   5.834   3.692  0.5821 -0.7207 -0.1380
  126CHL1    H615520   2.024   5.883   3.620 -0.6491 -1.0177  0.7646
  126CHL1    C715521   2.025   5.823   3.828 -0.3468 -0.6002  0.0909
  126CHL1   H7A15522   1.982   5.920   3.859 -0.2516 -0.1964 -1.0047
  126CHL1   H7B15523   1.942   5.749   3.815 -2.3380  1.4349  0.5954
  126CHL1    C815524   2.122   5.776   3.939  0.6618 -0.3104 -0.4701
  126CHL1    H815525   2.187   5.862   3.966 -0.2374 -0.3903  2.2544
  126CHL1   C1415526   2.037   5.734   4.061  0.3227  0.2293 -0.3719
  126CHL1   H1415527   1.968   5.657   4.022  0.0005 -0.4834  1.4886
  126CHL1   C1515528   1.949   5.841   4.132 -0.4219 -0.4647  0.3282
  126CHL1  H15A15529   2.026   5.918   4.154  0.0151 -0.8731  0.2236
  126CHL1  H15B15530   1.873   5.890   4.067 -0.0327 -1.3818 -0.8413
  126CHL1   C1615531   1.914   5.772   4.263  0.3260  0.1488  0.0529
  126CHL1  H16A15532   1.937   5.828   4.356  2.1864  2.7928 -1.8560
  126CHL1  H16B15533   1.808   5.741   4.274  1.0137 -1.6625  2.2391
  126CHL1   C1715534   1.996   5.631   4.270 -0.7482  0.3915 -0.3802
  126CHL1   H1715535   1.948   5.555   4.205 -0.9421  0.2985 -0.1309
  126CHL1   C1315536   2.113   5.663   4.167 -0.2236 -0.2725 -0.3489
  126CHL1   C1815537   2.219   5.768   4.224  0.4466  0.6063 -1.1229
  126CHL1  H18A15538   2.164   5.848   4.278 -2.0432 -1.1926 -0.8226
  126CHL1  H18B15539   2.281   5.710   4.296 -1.7357 -2.0982 -1.2553
  126CHL1  H18C15540   2.279   5.813   4.143 -0.3867  2.5982 -0.7048
  126CHL1   C1215541   2.183   5.540   4.115 -0.7501  0.1343 -0.1839
  126CHL1  H12A15542   2.236   5.486   4.196  0.8205 -0.1502 -1.3642
  126CHL1  H12B15543   2.104   5.476   4.070 -0.4075 -1.1341  0.9553
  126CHL1   C1115544   2.285   5.579   4.004  1.1533 -1.0160  0.0030
  126CHL1  H11A15545   2.369   5.642   4.040  0.4862  0.9996 -1.7171
  126CHL1  H11B15546   2.328   5.491   3.951  3.3554  0.8435 -1.4993
  126CHL1    C915547   2.207   5.662   3.893  0.5858  0.8930  0.2775
  126CHL1    H915548   2.132   5.588   3.857  0.5483  0.1713  1.7595
  126CHL1   C1015549   2.294   5.702   3.766 -0.2990  0.4790  0.1432
  126CHL1   C1915550   2.413   5.785   3.813  0.0810  0.4645  0.1522
  126CHL1  H19A15551   2.481   5.725   3.877  0.2845  1.0328  0.4758
  126CHL1  H19B15552   2.477   5.816   3.727  1.0259 -0.7070  0.4032
  126CHL1  H19C15553   2.382   5.872   3.874 -1.1133  0.4483 -0.4014
  126CHL1    C115554   2.342   5.572   3.694 -0.2089 -0.0335  0.2852
  126CHL1   H1A15555   2.431   5.546   3.754  0.8301  1.6846 -0.4373
  126CHL1   H1B15556   2.267   5.490   3.706 -2.1658  1.8440  1.8726
  126CHL1    C215557   2.389   5.577   3.552  0.2063 -0.1292 -0.1630
  126CHL1   H2A15558   2.388   5.475   3.509 -1.2293  0.0780 -0.6656
  126CHL1   H2B15559   2.493   5.616   3.545  0.6528 -1.2764 -0.1323
  126CHL1   C2015560   2.019   5.560   4.402 -0.1556 -0.2895 -0.6808
  126CHL1   H2015561   2.102   5.487   4.387  0.4905  0.7058 -2.1277
  126CHL1   C2115562   1.888   5.491   4.436 -0.3442 -0.3760  0.4914
  126CHL1  H21A15563   1.847   5.429   4.353  0.0112 -1.8363  1.3736
  126CHL1  H21B15564   1.817   5.572   4.465  1.6420  1.6185 -0.0262
  126CHL1  H21C15565   1.902   5.423   4.523  3.1862 -1.6486 -0.9133
  126CHL1   C2215566   2.068   5.649   4.525 -0.2342  0.1077 -0.3760
  126CHL1  H22A15567   2.154   5.709   4.489  1.9835 -1.4833  1.8860
  126CHL1  H22B15568   1.990   5.719   4.562  1.4510  0.3086  3.3185
  126CHL1   C2315569   2.127   5.564   4.640 -0.4003  0.2416 -0.0471
  126CHL1  H23A15570   2.053   5.490   4.676 -1.8711  0.4981 -2.3606
  126CHL1  H23B15571   2.212   5.503   4.602 -0.3180 -0.1098  0.6838
  126CHL1   C2415572   2.183   5.651   4.759  0.1693 -0.0628 -0.6271
  126CHL1  H24A15573   2.235   5.738   4.713  0.3360 -0.2445 -0.7854
  126CHL1  H24B15574   2.100   5.687   4.823  0.0027  0.0933 -0.9303
  126CHL1   C2515575   2.284   5.585   4.856 -0.2978 -0.9934 -0.3284
  126CHL1   H2515576   2.366   5.541   4.796  0.6281  1.8800 -1.2957
  126CHL1   C2615577   2.345   5.691   4.955  0.2754 -0.0861 -0.3035
  126CHL1  H26A15578   2.267   5.739   5.019  0.6228  0.7328 -0.4974
  126CHL1  H26B15579   2.408   5.643   5.033 -1.3860  0.3298  1.3898
  126CHL1  H26C15580   2.416   5.760   4.906  1.5757  0.1816  1.8414
  126CHL1   C2715581   2.214   5.471   4.932 -0.3061  0.2595 -0.8394
  126CHL1  H27A15582   2.167   5.402   4.858 -0.3627  0.5723 -1.0978
  126CHL1  H27B15583   2.293   5.404   4.972 -2.4208 -2.0473 -0.2811
  126CHL1  H27C15584   2.145   5.491   5.016  1.8005 -0.1664  1.0729
  127CHL1    C315585   2.909   6.084   3.663 -0.3735  0.2472 -0.1576
  127CHL1    H315586   2.965   5.996   3.702 -2.8091 -1.4720 -0.3221
  127CHL1    O315587   2.908   6.070   3.522  0.2238  0.3614 -0.3281
  127CHL1   H3'15588   2.990   6.111   3.493  1.4332  0.2369  2.6038
  127CHL1    C415589   2.765   6.082   3.715 -0.2429  0.3026  0.0963
  127CHL1   H4A15590   2.722   6.167   3.657 -0.7007 -1.2367 -1.9710
  127CHL1   H4B15591   2.711   5.990   3.683 -0.9457  0.0637  1.8900
  127CHL1    C515592   2.752   6.108   3.860  0.9101  0.3373  0.1168
  127CHL1    C615593   2.676   6.017   3.927 -0.3565  0.4519  0.3427
  127CHL1    H615594   2.632   5.931   3.874  1.4444  0.8425 -1.9239
  127CHL1    C715595   2.656   6.024   4.080 -0.1142  0.3751 -0.3400
  127CHL1   H7A15596   2.550   6.042   4.108 -0.6174  0.5434 -2.1814
  127CHL1   H7B15597   2.701   5.941   4.138 -1.4850  1.4423  2.4499
  127CHL1    C815598   2.731   6.153   4.141  0.4996  0.0575 -0.9259
  127CHL1    H815599   2.659   6.235   4.125 -0.2407 -0.8807 -2.8310
  127CHL1   C1415600   2.761   6.131   4.294 -0.0979 -0.6313  0.1436
  127CHL1   H1415601   2.842   6.055   4.293 -0.2371 -0.7784  0.1415
  127CHL1   C1515602   2.646   6.077   4.387 -0.2057 -0.4808 -0.9381
  127CHL1  H15A15603   2.549   6.123   4.355 -0.7834 -1.4471 -0.6287
  127CHL1  H15B15604   2.631   5.967   4.387  0.5907 -0.6580  1.9256
  127CHL1   C1615605   2.684   6.134   4.527  0.4873  0.2803 -0.0973
  127CHL1  H16A15606   2.608   6.203   4.569  0.0135 -0.6197  0.5513
  127CHL1  H16B15607   2.695   6.046   4.595 -2.4013 -1.7838 -2.0864
  127CHL1   C1715608   2.821   6.215   4.505  0.2534 -0.4745 -0.0887
  127CHL1   H1715609   2.901   6.139   4.516 -0.7022 -1.5410 -0.4249
  127CHL1   C1315610   2.812   6.256   4.360  0.6959 -0.6641  0.8430
  127CHL1   C1815611   2.708   6.368   4.349 -0.1438 -0.4973 -0.4349
  127CHL1  H18A15612   2.604   6.344   4.379 -0.5696 -0.2660 -1.6660
  127CHL1  H18B15613   2.743   6.444   4.422 -2.7316  0.3863 -0.0109
  127CHL1  H18C15614   2.709   6.432   4.258 -1.3498 -0.3029 -0.3203
  127CHL1   C1215615   2.946   6.298   4.287  0.3137 -0.6022  0.1967
  127CHL1  H12A15616   2.987   6.394   4.324  0.5263 -1.2365  1.6630
  127CHL1  H12B15617   3.019   6.222   4.322  2.0768  2.0378  2.6705
  127CHL1   C1115618   2.921   6.314   4.144 -0.2832 -0.2276 -0.1016
  127CHL1  H11A15619   2.862   6.408   4.130  2.3791  1.6522  0.5950
  127CHL1  H11B15620   3.018   6.324   4.092 -0.1225  0.3955  0.3114
  127CHL1    C915621   2.856   6.195   4.073  0.1197  0.0121 -0.3076
  127CHL1    H915622   2.928   6.111   4.088  0.4659  0.5820  1.4264
  127CHL1   C1015623   2.840   6.214   3.922  0.0338 -0.6244  0.1214
  127CHL1   C1915624   2.755   6.345   3.892 -0.2930  0.3547 -0.4811
  127CHL1  H19A15625   2.658   6.353   3.945 -0.1056 -1.2098  0.1526
  127CHL1  H19B15626   2.826   6.424   3.925  0.7106  0.2865 -2.3250
  127CHL1  H19C15627   2.735   6.359   3.784  1.2690 -0.5754 -0.9263
  127CHL1    C115628   2.984   6.215   3.860 -0.3383 -0.3751 -0.5899
  127CHL1   H1A15629   3.044   6.302   3.893  1.3854 -2.0668  0.9588
  127CHL1   H1B15630   3.045   6.128   3.891 -0.3902 -0.6673 -1.2816
  127CHL1    C215631   2.979   6.210   3.706  0.3223 -0.2531 -0.9958
  127CHL1   H2A15632   3.082   6.209   3.665  1.0135  0.3061  0.6389
  127CHL1   H2B15633   2.927   6.298   3.664  0.0611 -0.1213 -0.3953
  127CHL1   C2015634   2.854   6.316   4.617 -0.6562 -0.0305 -0.7267
  127CHL1   H2015635   2.817   6.420   4.603 -0.3542 -0.1983 -3.1971
  127CHL1   C2115636   3.006   6.326   4.615 -0.6074 -0.3516  0.1867
  127CHL1  H21A15637   3.060   6.318   4.518  1.1555 -1.2141  1.1910
  127CHL1  H21B15638   3.049   6.243   4.675 -0.9646 -0.9036 -0.3112
  127CHL1  H21C15639   3.039   6.423   4.657 -2.2997 -0.1346  1.1303
  127CHL1   C2215640   2.796   6.287   4.758  0.5360  0.0836  1.3380
  127CHL1  H22A15641   2.688   6.266   4.740  0.9090  0.2481 -1.6082
  127CHL1  H22B15642   2.840   6.192   4.794  0.8072 -0.9734 -1.5019
  127CHL1   C2315643   2.796   6.397   4.861 -0.4685 -0.0167 -0.0489
  127CHL1  H23A15644   2.901   6.430   4.878 -0.6499  0.3567  0.3595
  127CHL1  H23B15645   2.735   6.479   4.819 -1.9403 -1.5323 -0.9815
  127CHL1   C2415646   2.734   6.361   5.001 -0.0193 -0.1521 -0.0129
  127CHL1  H24A15647   2.707   6.444   5.070 -0.1450  1.1606 -1.5884
  127CHL1  H24B15648   2.637   6.317   4.972 -2.3184  4.0725  0.4775
  127CHL1   C2515649   2.820   6.266   5.081 -0.5911  0.5412 -0.3809
  127CHL1   H2515650   2.844   6.182   5.012 -1.5982 -0.8626  0.9129
  127CHL1   C2615651   2.953   6.324   5.131  0.1776  0.3804 -0.1266
  127CHL1  H26A15652   2.917   6.420   5.174  0.0667  0.3217 -0.0870
  127CHL1  H26B15653   3.004   6.268   5.211  2.3310  4.2387  1.4721
  127CHL1  H26C15654   3.024   6.341   5.048 -0.8049 -0.1133 -1.1049
  127CHL1   C2715655   2.737   6.205   5.193 -0.2285  0.2056 -0.4457
  127CHL1  H27A15656   2.712   6.273   5.278 -0.6405 -1.4575  0.8105
  127CHL1  H27B15657   2.646   6.167   5.143 -0.5893  2.5911 -1.7628
  127CHL1  H27C15658   2.791   6.117   5.233 -0.2184 -0.3591 -1.6537
  128CHL1    C315659   2.975   1.899   3.566 -0.1483 -0.2515 -0.2748
  128CHL1    H315660   3.084   1.878   3.566  0.2820  1.7005 -2.1677
  128CHL1    O315661   2.949   1.940   3.433  0.3106  0.2696 -0.7195
  128CHL1   H3'15662   2.892   2.017   3.438  0.4869  0.3184  1.6733
  128CHL1    C415663   2.878   1.781   3.610  0.2070 -0.1142  0.2063
  128CHL1   H4A15664   2.771   1.806   3.593 -0.5661 -3.3964 -0.3643
  128CHL1   H4B15665   2.887   1.701   3.534  2.3560 -0.5233  0.8038
  128CHL1    C515666   2.905   1.732   3.748 -0.0807 -0.3110 -1.1189
  128CHL1    C615667   2.942   1.608   3.763  0.4310  0.1026  0.2467
  128CHL1    H615668   2.958   1.535   3.683  0.6425  0.6440 -0.2094
  128CHL1    C715669   2.966   1.553   3.902  0.7322  0.5746 -0.0569
  128CHL1   H7A15670   2.919   1.454   3.921 -0.0678  0.8650 -0.4702
  128CHL1   H7B15671   3.077   1.549   3.909  0.8741  0.2045 -1.9049
  128CHL1    C815672   2.931   1.653   4.019  0.1031  0.6211 -0.2295
  128CHL1    H815673   2.823   1.645   4.045  0.5170 -1.0610  1.1655
  128CHL1   C1415674   2.999   1.599   4.146 -0.2957 -0.6005  0.3065
  128CHL1   H1415675   3.106   1.609   4.118 -0.8680 -0.6610 -2.0725
  128CHL1   C1515676   2.959   1.459   4.189  0.5268  0.0435  0.1788
  128CHL1  H15A15677   2.849   1.459   4.179  0.4724  0.0078  0.7267
  128CHL1  H15B15678   3.014   1.379   4.134 -2.3265 -1.5028 -0.6372
  128CHL1   C1615679   3.002   1.458   4.342 -0.7108  0.1252 -0.6901
  128CHL1  H16A15680   2.918   1.437   4.410 -0.9921  2.9429 -0.0492
  128CHL1  H16B15681   3.091   1.394   4.363 -2.7582 -2.4663  0.6102
  128CHL1   C1715682   3.042   1.611   4.377 -0.7697  0.4943  0.7749
  128CHL1   H1715683   3.150   1.627   4.354 -1.1303  0.7652 -0.8760
  128CHL1   C1315684   2.968   1.693   4.263 -0.6267  0.5061 -0.0054
  128CHL1   C1815685   2.817   1.711   4.300  0.0863 -0.6070 -0.7728
  128CHL1  H18A15686   2.769   1.613   4.322  1.9030 -1.2435  0.6887
  128CHL1  H18B15687   2.808   1.779   4.388 -0.6245  1.3567 -2.2971
  128CHL1  H18C15688   2.759   1.745   4.212  1.0041 -0.7250 -1.4469
  128CHL1   C1215689   3.025   1.830   4.242  0.0131 -0.3583 -0.1287
  128CHL1  H12A15690   3.001   1.907   4.318  1.4080  0.6748 -0.6906
  128CHL1  H12B15691   3.135   1.825   4.243  0.3229  3.2332 -0.9809
  128CHL1   C1115692   2.972   1.891   4.104 -0.2208  0.5024  0.8971
  128CHL1  H11A15693   2.866   1.913   4.128 -0.3474  1.7090 -0.5866
  128CHL1  H11B15694   3.019   1.991   4.096  0.2026  0.4623  2.5539
  128CHL1    C915695   2.975   1.788   3.985  0.3660 -0.1221 -0.1874
  128CHL1    H915696   3.082   1.778   3.957  0.4064 -0.8962  0.2394
  128CHL1   C1015697   2.901   1.839   3.851  0.4460 -0.5520 -0.1687
  128CHL1   C1915698   2.755   1.881   3.881  0.6030  0.2028 -0.0620
  128CHL1  H19A15699   2.741   1.971   3.945  0.0943  0.5623 -0.6665
  128CHL1  H19B15700   2.696   1.896   3.788 -1.3824 -1.7081  0.8063
  128CHL1  H19C15701   2.701   1.802   3.937  0.8162  0.5788  0.6925
  128CHL1    C115702   2.988   1.966   3.800  1.1893 -0.3257 -1.0780
  128CHL1   H1A15703   2.984   2.048   3.875 -1.6856 -0.0456 -1.4278
  128CHL1   H1B15704   3.089   1.929   3.776  0.2888 -4.2789  0.4509
  128CHL1    C215705   2.946   2.011   3.664  0.0263  0.0583  0.9126
  128CHL1   H2A15706   3.011   2.099   3.642 -1.0037  0.6376  0.0867
  128CHL1   H2B15707   2.837   2.030   3.657 -0.2635 -1.6809  0.3751
  128CHL1   C2015708   3.017   1.657   4.518 -0.3717 -0.1719  0.0101
  128CHL1   H2015709   2.908   1.657   4.540 -0.3812 -0.5662 -0.0417
  128CHL1   C2115710   3.074   1.795   4.553  0.0900 -0.1201 -0.2463
  128CHL1  H21A15711   3.047   1.811   4.660 -2.1767 -2.3990 -0.3989
  128CHL1  H21B15712   3.024   1.879   4.500 -1.3676  0.0540  1.3140
  128CHL1  H21C15713   3.183   1.807   4.532 -0.3782  2.0771 -1.8094
  128CHL1   C2215714   3.078   1.558   4.616 -0.0224  0.6706  0.1837
  128CHL1  H22A15715   3.061   1.591   4.721 -0.9371  1.7866 -0.2901
  128CHL1  H22B15716   3.025   1.461   4.607  0.8715  0.0641  1.3525
  128CHL1   C2315717   3.232   1.522   4.598  0.5102 -0.1206  0.3418
  128CHL1  H23A15718   3.249   1.481   4.496 -1.9635  0.5371 -0.3927
  128CHL1  H23B15719   3.298   1.611   4.609  1.9957 -1.4662  4.0277
  128CHL1   C2415720   3.272   1.425   4.704  0.0897  0.3341 -0.2740
  128CHL1  H24A15721   3.256   1.477   4.801 -1.4414 -0.3903 -0.1204
  128CHL1  H24B15722   3.209   1.334   4.702  3.0464 -1.9435  1.3821
  128CHL1   C2515723   3.419   1.370   4.681  0.2662 -0.2396  0.5808
  128CHL1   H2515724   3.441   1.302   4.766 -0.6215  0.5745  1.4829
  128CHL1   C2615725   3.439   1.303   4.551  0.2646 -0.4957  0.1278
  128CHL1  H26A15726   3.413   1.364   4.462  1.1824  1.8381  1.3858
  128CHL1  H26B15727   3.543   1.268   4.538 -0.0893 -0.8259 -2.3095
  128CHL1  H26C15728   3.368   1.217   4.548 -1.6808  1.0446 -2.1735
  128CHL1   C2715729   3.521   1.490   4.685 -0.1169  1.0454  0.3104
  128CHL1  H27A15730   3.486   1.563   4.761  1.9368  1.9337  0.4638
  128CHL1  H27B15731   3.627   1.458   4.695  0.2467  1.7376 -1.0922
  128CHL1  H27C15732   3.518   1.549   4.591 -0.4253  0.3826 -0.1055
  129CHL1    C315733   4.909   4.896   3.570 -0.2209 -0.2049 -0.7849
  129CHL1    H315734   4.827   4.937   3.507 -0.4376  2.5336  1.0947
  129CHL1    O315735   5.026   4.856   3.496 -0.3435 -0.1041 -0.3982
  129CHL1   H3'15736   5.098   4.887   3.553 -2.2422  1.3255  1.4032
  129CHL1    C415737   4.955   5.015   3.657 -0.3865  0.0485 -0.1443
  129CHL1   H4A15738   5.041   4.992   3.722  0.0527 -1.0632 -1.0885
  129CHL1   H4B15739   4.991   5.093   3.587 -1.3351  1.8258  1.2590
  129CHL1    C515740   4.848   5.077   3.745  0.4145 -0.4254  0.0890
  129CHL1    C615741   4.809   5.204   3.743  1.0981 -0.0930 -0.0742
  129CHL1    H615742   4.861   5.271   3.673  1.5716  0.9507  1.2266
  129CHL1    C715743   4.707   5.267   3.843 -0.1139  0.6421  0.2879
  129CHL1   H7A15744   4.750   5.365   3.873  1.6712 -0.1483  0.4110
  129CHL1   H7B15745   4.605   5.285   3.801 -1.9606 -2.1485  3.1247
  129CHL1    C815746   4.669   5.168   3.953  1.1392  0.0595 -1.9893
  129CHL1    H815747   4.756   5.177   4.022  0.1165  0.6666 -0.7332
  129CHL1   C1415748   4.537   5.215   4.019 -0.6314  0.2307 -0.6996
  129CHL1   H1415749   4.463   5.214   3.936 -2.1625 -0.2582  0.6330
  129CHL1   C1515750   4.532   5.362   4.065 -0.9066  0.2675 -0.4920
  129CHL1  H15A15751   4.632   5.373   4.114 -0.9420 -3.7604  0.8524
  129CHL1  H15B15752   4.513   5.428   3.978 -0.5594  0.1977 -0.6252
  129CHL1   C1615753   4.412   5.367   4.159 -0.1849  0.5481  0.1936
  129CHL1  H16A15754   4.443   5.408   4.257 -0.1134  2.2874 -0.5292
  129CHL1  H16B15755   4.323   5.424   4.127 -0.4755 -0.1356 -0.2443
  129CHL1   C1715756   4.367   5.214   4.184  0.3860 -0.4640  0.0971
  129CHL1   H1715757   4.303   5.192   4.096  1.6151 -2.2788 -0.3941
  129CHL1   C1315758   4.488   5.131   4.140  0.0546  0.6576  0.4614
  129CHL1   C1815759   4.598   5.132   4.248  0.1369 -0.0224  0.0962
  129CHL1  H18A15760   4.579   5.077   4.343 -0.4871 -0.8259 -0.4780
  129CHL1  H18B15761   4.692   5.089   4.208 -1.2214 -1.7607 -1.4239
  129CHL1  H18C15762   4.631   5.234   4.277  1.3235 -0.4931  0.4868
  129CHL1   C1215763   4.462   4.989   4.091  0.2113 -0.3259 -0.2537
  129CHL1  H12A15764   4.419   4.916   4.162  1.3544 -1.4872 -0.7222
  129CHL1  H12B15765   4.379   5.000   4.017 -0.3925  0.9777  0.5868
  129CHL1   C1115766   4.579   4.930   4.014  0.0889  0.4139  0.2185
  129CHL1  H11A15767   4.658   4.899   4.085  2.6104  0.3735 -2.4362
  129CHL1  H11B15768   4.539   4.837   3.967  0.8166  0.1663  0.0866
  129CHL1    C915769   4.651   5.018   3.908 -0.2889 -0.3019  0.5906
  129CHL1    H915770   4.579   5.026   3.824  2.5100 -0.6314 -2.0193
  129CHL1   C1015771   4.780   4.969   3.834 -0.1602  0.2905 -0.4033
  129CHL1   C1915772   4.882   4.929   3.942 -0.8519  0.3020 -0.3905
  129CHL1  H19A15773   4.842   4.839   3.994  1.2516  0.4197  1.5842
  129CHL1  H19B15774   4.983   4.905   3.903  0.6772  2.0367  2.2246
  129CHL1  H19C15775   4.896   5.010   4.017 -1.1788  0.0888 -0.0956
  129CHL1    C115776   4.730   4.840   3.749  0.1023 -0.1542  0.0962
  129CHL1   H1A15777   4.697   4.753   3.810 -0.4320 -0.0957 -0.1069
  129CHL1   H1B15778   4.645   4.874   3.686  1.0674 -0.2910 -1.3023
  129CHL1    C215779   4.853   4.786   3.663  0.4229  0.0248 -0.0457
  129CHL1   H2A15780   4.816   4.703   3.599 -1.1052  1.0337 -0.5152
  129CHL1   H2B15781   4.929   4.748   3.734 -1.2177 -2.6416  0.4761
  129CHL1   C2015782   4.290   5.177   4.312 -0.7848  0.6133 -0.3791
  129CHL1   H2015783   4.317   5.076   4.349  1.5266  2.1405  2.5805
  129CHL1   C2115784   4.146   5.159   4.266  0.5826  0.1375  0.5033
  129CHL1  H21A15785   4.094   5.255   4.244 -0.4915 -0.2633  1.2217
  129CHL1  H21B15786   4.080   5.100   4.333  0.0886  0.4021  0.2528
  129CHL1  H21C15787   4.144   5.095   4.175  1.3164  2.3160 -1.1436
  129CHL1   C2215788   4.301   5.278   4.417 -0.1358 -0.3675  0.2988
  129CHL1  H22A15789   4.410   5.298   4.428 -0.1935 -1.2566  3.1763
  129CHL1  H22B15790   4.248   5.374   4.403  3.1870  1.1462 -4.2361
  129CHL1   C2315791   4.259   5.216   4.548  0.4302 -0.5949  0.1018
  129CHL1  H23A15792   4.152   5.184   4.546 -0.0571  0.9594 -0.6064
  129CHL1  H23B15793   4.321   5.131   4.582  0.1434 -0.1111  1.9440
  129CHL1   C2415794   4.277   5.313   4.663  0.2519 -0.5634  0.4672
  129CHL1  H24A15795   4.253   5.269   4.762  0.4156  0.3878  0.9387
  129CHL1  H24B15796   4.386   5.334   4.666  0.0994  1.0152 -2.3497
  129CHL1   C2515797   4.204   5.458   4.657 -0.0290 -0.1319  0.2173
  129CHL1   H2515798   4.239   5.516   4.569  1.1085 -2.6307 -1.0772
  129CHL1   C2615799   4.053   5.431   4.638  0.2329 -1.3463 -0.2049
  129CHL1  H26A15800   4.012   5.367   4.719  2.3896  1.2868  3.2559
  129CHL1  H26B15801   4.003   5.530   4.638 -0.8372 -1.8356  1.3150
  129CHL1  H26C15802   4.032   5.377   4.544 -2.9756 -2.5028  1.0310
  129CHL1   C2715803   4.243   5.543   4.783  0.8183  0.7948  0.6730
  129CHL1  H27A15804   4.345   5.585   4.770  2.3478 -2.2215  1.9008
  129CHL1  H27B15805   4.180   5.633   4.798  1.4685  1.5781 -1.0451
  129CHL1  H27C15806   4.250   5.495   4.883  2.8718 -0.0988  0.1391
  130CHL1    C315807   2.025   6.632   3.537  0.3069  0.3918 -0.0159
  130CHL1    H315808   1.963   6.539   3.540 -0.7923  1.1286  0.9420
  130CHL1    O315809   2.086   6.637   3.408 -0.1236  0.7789  0.2229
  130CHL1   H3'15810   2.016   6.677   3.355  0.9813  0.6338 -1.4188
  130CHL1    C415811   1.928   6.754   3.566  0.1436  0.5551 -0.2996
  130CHL1   H4A15812   1.999   6.837   3.546  1.5244 -0.7317 -0.9915
  130CHL1   H4B15813   1.845   6.754   3.492 -0.4659  0.4101  0.3737
  130CHL1    C515814   1.880   6.767   3.702 -0.0699 -0.1853  0.3787
  130CHL1    C615815   1.749   6.787   3.724  0.1872  0.4164  0.8978
  130CHL1    H615816   1.679   6.790   3.639  0.6380  1.0842  0.5489
  130CHL1    C715817   1.686   6.798   3.857  0.6114 -0.4632  0.5718
  130CHL1   H7A15818   1.608   6.876   3.847  0.5219 -0.9117 -4.4266
  130CHL1   H7B15819   1.633   6.706   3.889 -1.8114  0.4470 -0.6137
  130CHL1    C815820   1.793   6.822   3.970 -0.1647 -0.0060 -0.4982
  130CHL1    H815821   1.830   6.927   3.964 -0.0907 -0.1023 -2.0494
  130CHL1   C1415822   1.734   6.784   4.114  0.3432  0.1483  0.2657
  130CHL1   H1415823   1.688   6.683   4.102 -1.0753  0.6680  1.1189
  130CHL1   C1515824   1.612   6.874   4.163  0.5508 -0.2993 -0.3247
  130CHL1  H15A15825   1.629   6.979   4.132 -1.3831  0.1472  0.0098
  130CHL1  H15B15826   1.510   6.851   4.124  0.2142  0.2817  0.2068
  130CHL1   C1615827   1.607   6.844   4.315 -0.0603 -0.4529 -1.1624
  130CHL1  H16A15828   1.609   6.941   4.368  0.4759 -0.1350 -1.7426
  130CHL1  H16B15829   1.519   6.795   4.362 -0.4286  1.2048 -0.0207
  130CHL1   C1715830   1.729   6.757   4.339 -0.3047 -0.3993 -0.4885
  130CHL1   H1715831   1.684   6.657   4.317 -0.8608 -0.3567  0.3723
  130CHL1   C1315832   1.838   6.782   4.232  0.2463 -0.1658 -0.3425
  130CHL1   C1815833   1.904   6.922   4.257 -0.3477 -0.3501  0.3168
  130CHL1  H18A15834   1.834   6.991   4.308 -0.7284 -0.7870  0.3900
  130CHL1  H18B15835   1.985   6.910   4.332  0.2702  0.7081 -0.1456
  130CHL1  H18C15836   1.942   6.967   4.162 -0.5086 -0.9666 -0.0447
  130CHL1   C1215837   1.942   6.677   4.204  0.1965  0.0890  0.4878
  130CHL1  H12A15838   2.023   6.662   4.279 -0.6844  0.3995  1.5195
  130CHL1  H12B15839   1.891   6.579   4.203  0.3675 -0.0709  2.9795
  130CHL1   C1115840   2.013   6.702   4.067  0.5995  0.2435 -0.3664
  130CHL1  H11A15841   2.076   6.793   4.078  2.0483 -0.4957 -2.0211
  130CHL1  H11B15842   2.079   6.613   4.060  0.9940  0.2436  2.4522
  130CHL1    C915843   1.916   6.722   3.952  0.0377  0.0849  0.2886
  130CHL1    H915844   1.871   6.621   3.945 -0.5149  0.4144 -1.6235
  130CHL1   C1015845   1.985   6.744   3.817  0.2371 -0.3148  0.1804
  130CHL1   C1915846   2.068   6.876   3.829 -0.4722 -0.3264  0.2682
  130CHL1  H19A15847   2.115   6.921   3.739 -1.1982 -1.3057 -0.6160
  130CHL1  H19B15848   2.019   6.965   3.873 -0.3672  1.0595 -2.2443
  130CHL1  H19C15849   2.153   6.842   3.893 -0.1578  0.7931  0.4560
  130CHL1    C115850   2.074   6.624   3.786  0.1555  0.1866  0.1379
  130CHL1   H1A15851   2.159   6.605   3.855 -0.0300 -1.5251 -0.0479
  130CHL1   H1B15852   2.011   6.533   3.799  1.5271 -0.8024  0.1185
  130CHL1    C215853   2.136   6.624   3.641  0.4946  0.5243  0.2745
  130CHL1   H2A15854   2.180   6.525   3.615 -2.1121 -0.9679  1.2206
  130CHL1   H2B15855   2.207   6.709   3.627  0.6219  0.2478 -0.8955
  130CHL1   C2015856   1.777   6.750   4.492  0.0820 -0.1842  0.8688
  130CHL1   H2015857   1.872   6.807   4.503 -0.9934  2.9138 -3.2011
  130CHL1   C2115858   1.806   6.598   4.519 -0.6599  0.3908 -0.4956
  130CHL1  H21A15859   1.718   6.534   4.495  0.0960 -1.2819  1.0400
  130CHL1  H21B15860   1.850   6.581   4.619  0.8432  0.8255 -1.0470
  130CHL1  H21C15861   1.883   6.575   4.442  1.5288  3.8938  0.4047
  130CHL1   C2215862   1.677   6.804   4.590 -0.0633 -0.3105  0.1552
  130CHL1  H22A15863   1.659   6.911   4.565  2.0108 -0.1985 -1.0765
  130CHL1  H22B15864   1.586   6.741   4.585  1.1340 -2.0742 -0.3389
  130CHL1   C2315865   1.726   6.801   4.735  0.4739  0.3340 -1.0646
  130CHL1  H23A15866   1.755   6.698   4.765  2.8712  0.4625 -2.6846
  130CHL1  H23B15867   1.822   6.856   4.738  0.7230  0.5370 -5.4459
  130CHL1   C2415868   1.625   6.868   4.832  0.1576 -0.0322  0.2105
  130CHL1  H24A15869   1.596   6.960   4.775 -0.7251 -0.6810 -0.4179
  130CHL1  H24B15870   1.529   6.815   4.851 -0.8672  1.2444 -1.0724
  130CHL1   C2515871   1.687   6.907   4.973  1.0868 -1.0337 -0.4382
  130CHL1   H2515872   1.776   6.971   4.954  1.6979 -1.4489  0.9016
  130CHL1   C2615873   1.595   7.005   5.051  0.5308  0.4870 -0.1574
  130CHL1  H26A15874   1.569   7.082   4.975  0.4669 -1.9586 -2.7992
  130CHL1  H26B15875   1.509   6.953   5.098  0.6147  0.3523 -0.1537
  130CHL1  H26C15876   1.653   7.047   5.135 -1.2173  0.6702  1.0089
  130CHL1   C2715877   1.711   6.789   5.056 -0.3605  0.1605  0.5803
  130CHL1  H27A15878   1.774   6.717   5.000 -1.6675 -1.1252  0.7106
  130CHL1  H27B15879   1.767   6.816   5.149 -0.1169 -1.2257  0.8511
  130CHL1  H27C15880   1.620   6.734   5.089 -0.6386  1.2969  1.8397
  131CHL1    C315881   0.190   6.275   3.531  0.2226  0.5505  0.5500
  131CHL1    H315882   0.252   6.192   3.572 -2.5343 -2.3236 -0.6809
  131CHL1    O315883   0.143   6.247   3.397  0.3229 -0.7618 -1.0614
  131CHL1   H3'15884   0.223   6.276   3.352  2.0040  0.0104  2.1488
  131CHL1    C415885   0.060   6.288   3.620  0.2607 -0.0066  0.3789
  131CHL1   H4A15886   0.005   6.366   3.563  3.2139  1.2335 -0.9790
  131CHL1   H4B15887   0.007   6.191   3.609 -0.2991  0.5022 -2.1827
  131CHL1    C515888   0.095   6.331   3.763  0.1199  0.4578  0.5635
  131CHL1    C615889   0.044   6.264   3.870  0.7680  0.2599  0.3206
  131CHL1    H615890  -0.025   6.180   3.855 -0.5613  1.3018  0.4451
  131CHL1    C715891   0.070   6.303   4.016  0.0346 -0.2453  0.2019
  131CHL1   H7A15892  -0.030   6.305   4.063 -1.1633  0.1289 -2.1878
  131CHL1   H7B15893   0.135   6.224   4.060  1.9871  0.0089 -1.9971
  131CHL1    C815894   0.143   6.440   4.027 -0.3807 -0.1365 -0.6747
  131CHL1    H815895   0.070   6.523   4.015 -0.6335 -0.6175 -2.8244
  131CHL1   C1415896   0.210   6.456   4.165  0.1585 -0.2028  0.0915
  131CHL1   H1415897   0.292   6.383   4.176  1.5090  0.9005 -2.1069
  131CHL1   C1515898   0.131   6.433   4.290  0.6787  0.4363 -0.9791
  131CHL1  H15A15899   0.031   6.482   4.281  0.6853  0.3958 -1.2750
  131CHL1  H15B15900   0.113   6.325   4.309  1.3709  0.6010  0.9139
  131CHL1   C1615901   0.209   6.497   4.408 -0.1114  0.1101 -0.0237
  131CHL1  H16A15902   0.128   6.542   4.469 -1.6514 -0.0932 -1.8170
  131CHL1  H16B15903   0.258   6.420   4.471 -2.5544  0.5221  2.5987
  131CHL1   C1715904   0.319   6.578   4.335 -0.5912 -0.0130 -0.3561
  131CHL1   H1715905   0.405   6.509   4.322 -0.3330 -0.1298  1.6671
  131CHL1   C1315906   0.273   6.590   4.183  0.1372 -0.7098 -0.5076
  131CHL1   C1815907   0.175   6.708   4.183 -0.4976 -0.1783 -1.0975
  131CHL1  H18A15908   0.088   6.709   4.252 -0.3041  1.1064 -0.8553
  131CHL1  H18B15909   0.221   6.808   4.196 -0.9026 -0.0342 -0.7355
  131CHL1  H18C15910   0.121   6.708   4.086 -1.6211  1.1835 -0.5085
  131CHL1   C1215911   0.386   6.608   4.076  0.5394 -0.0156 -0.2099
  131CHL1  H12A15912   0.432   6.709   4.075 -0.0514  0.2766 -1.6398
  131CHL1  H12B15913   0.464   6.529   4.083  0.1369 -0.4628 -0.6768
  131CHL1   C1115914   0.324   6.598   3.935  0.4672 -0.0122  0.1317
  131CHL1  H11A15915   0.248   6.679   3.928 -0.5697 -0.8770  1.0137
  131CHL1  H11B15916   0.409   6.612   3.865 -0.4681  1.5384 -0.7407
  131CHL1    C915917   0.247   6.461   3.918  0.0619  0.3907 -0.2568
  131CHL1    H915918   0.320   6.381   3.938 -1.3307 -0.7075  0.6365
  131CHL1   C1015919   0.189   6.445   3.781  0.4841  0.1903  0.8464
  131CHL1   C1915920   0.105   6.572   3.740  0.1071  0.6985 -0.2439
  131CHL1  H19A15921   0.165   6.665   3.741  1.8978 -0.3899 -0.9870
  131CHL1  H19B15922   0.059   6.563   3.639  0.1028  1.2407 -0.2911
  131CHL1  H19C15923   0.018   6.578   3.810  0.3366 -1.8332  0.3589
  131CHL1    C115924   0.311   6.428   3.686 -0.0293  0.4931 -0.1179
  131CHL1   H1A15925   0.380   6.515   3.697  0.3318  0.0579  1.2459
  131CHL1   H1B15926   0.363   6.338   3.724  0.7728  0.0229 -2.1883
  131CHL1    C215927   0.273   6.397   3.536 -0.1583 -0.4137 -0.4092
  131CHL1   H2A15928   0.367   6.374   3.480  1.1506 -1.4836  2.0263
  131CHL1   H2B15929   0.224   6.484   3.489  1.0429  0.1880 -0.5878
  131CHL1   C2015930   0.358   6.704   4.406 -0.3623 -0.9660  0.2183
  131CHL1   H2015931   0.269   6.770   4.404  1.4857  1.6659 -0.4589
  131CHL1   C2115932   0.475   6.786   4.335  0.5771 -0.4766 -0.4744
  131CHL1  H21A15933   0.567   6.727   4.316  1.4181  0.6616 -0.0615
  131CHL1  H21B15934   0.511   6.868   4.400  0.4724  0.5857 -1.7131
  131CHL1  H21C15935   0.434   6.832   4.242 -2.3308 -1.1700  0.3585
  131CHL1   C2215936   0.395   6.681   4.560  0.3883  0.2583  0.7386
  131CHL1  H22A15937   0.410   6.780   4.609 -0.2882  0.7535 -0.0206
  131CHL1  H22B15938   0.305   6.632   4.603 -1.0716  2.4976  0.4576
  131CHL1   C2315939   0.504   6.581   4.583  0.1796  0.6862  0.1719
  131CHL1  H23A15940   0.473   6.487   4.532  0.1873  1.1607 -0.7240
  131CHL1  H23B15941   0.593   6.628   4.535  1.0854 -1.1525 -0.0632
  131CHL1   C2415942   0.547   6.562   4.733 -0.5681  0.2751 -0.3604
  131CHL1  H24A15943   0.562   6.658   4.787  0.0588 -0.5278  0.9593
  131CHL1  H24B15944   0.471   6.509   4.795 -0.2036  1.1548  0.8857
  131CHL1   C2515945   0.676   6.483   4.748 -0.0197 -0.0875 -0.1526
  131CHL1   H2515946   0.669   6.386   4.696  1.1751 -0.3335  0.1273
  131CHL1   C2615947   0.795   6.568   4.683  0.0935  0.4324 -0.3367
  131CHL1  H26A15948   0.774   6.576   4.574  1.7031 -1.3949 -0.8515
  131CHL1  H26B15949   0.804   6.663   4.739 -3.3668  0.4570  0.3876
  131CHL1  H26C15950   0.889   6.512   4.704 -0.5300  0.0066  1.4787
  131CHL1   C2715951   0.699   6.457   4.900 -0.1202  0.3949  0.3466
  131CHL1  H27A15952   0.641   6.371   4.939 -1.6674  1.2167 -0.0800
  131CHL1  H27B15953   0.807   6.430   4.910  0.0175 -1.6003 -4.1007
  131CHL1  H27C15954   0.684   6.556   4.946  0.4708  0.9268 -0.5753
  132CHL1    C315955   2.973   6.710   3.959  0.0748  0.1952 -0.2394
  132CHL1    H315956   2.870   6.671   3.945 -0.1225 -0.0200  1.6629
  132CHL1    O315957   3.058   6.680   3.849 -0.4558  0.3447  0.2768
  132CHL1   H3'15958   3.009   6.617   3.796  1.3392 -1.7686  0.9912
  132CHL1    C415959   2.960   6.860   3.980  0.3311  0.2026  0.0582
  132CHL1   H4A15960   3.062   6.904   3.981  0.6150 -0.4502  0.6582
  132CHL1   H4B15961   2.929   6.907   3.884 -0.9930 -1.7962 -0.5513
  132CHL1    C515962   2.885   6.903   4.105 -0.4385  0.2719  0.3189
  132CHL1    C615963   2.785   6.991   4.106  0.1859 -1.1365  0.7114
  132CHL1    H615964   2.757   7.030   4.008  0.1382 -0.2113  1.0859
  132CHL1    C715965   2.712   7.042   4.227 -1.0538 -0.3465 -0.0350
  132CHL1   H7A15966   2.697   7.152   4.222 -3.5375 -0.6520 -0.4663
  132CHL1   H7B15967   2.615   6.987   4.224 -1.0880 -0.2815 -0.1177
  132CHL1    C815968   2.778   7.000   4.366  0.4442  0.1938  0.7513
  132CHL1    H815969   2.864   7.068   4.384  1.1375 -0.6184  0.5821
  132CHL1   C1415970   2.675   7.013   4.480  0.6098 -0.3032 -0.1109
  132CHL1   H1415971   2.592   6.940   4.463  1.3141 -1.6995  1.9628
  132CHL1   C1515972   2.594   7.146   4.490 -0.0372  0.4608  0.6028
  132CHL1  H15A15973   2.667   7.230   4.488  0.7396 -0.2104 -0.2989
  132CHL1  H15B15974   2.520   7.149   4.407  1.7236  2.3045 -1.0129
  132CHL1   C1615975   2.538   7.140   4.629 -0.3023  0.0559  0.1414
  132CHL1  H16A15976   2.558   7.233   4.687  0.8942 -0.6481  0.8815
  132CHL1  H16B15977   2.432   7.107   4.630  0.3931 -2.3875 -0.7163
  132CHL1   C1715978   2.603   7.016   4.704  0.5136 -0.0499 -0.2656
  132CHL1   H1715979   2.534   6.931   4.682 -1.2249  1.6416 -1.6865
  132CHL1   C1315980   2.723   6.982   4.613  0.1843  0.5736 -0.0712
  132CHL1   C1815981   2.834   7.074   4.652  0.5852 -0.0447  0.6283
  132CHL1  H18A15982   2.924   7.062   4.588 -0.4171  0.9060 -1.0162
  132CHL1  H18B15983   2.802   7.179   4.634 -1.6121 -0.9309 -1.1931
  132CHL1  H18C15984   2.869   7.059   4.757  0.4120  0.1255  0.7107
  132CHL1   C1215985   2.777   6.833   4.611  0.3369  0.1436  0.3845
  132CHL1  H12A15986   2.829   6.811   4.707  0.1386 -0.4418  0.3595
  132CHL1  H12B15987   2.689   6.771   4.582 -0.4809  2.1391 -1.6883
  132CHL1   C1115988   2.883   6.816   4.500  0.1795 -0.1314  0.2387
  132CHL1  H11A15989   2.979   6.862   4.531  0.0285  0.2522  0.1448
  132CHL1  H11B15990   2.901   6.707   4.488 -2.5838 -0.7110  0.6124
  132CHL1    C915991   2.836   6.859   4.354  0.0733 -0.0730 -0.4830
  132CHL1    H915992   2.751   6.792   4.329  0.3221 -1.2255  1.5725
  132CHL1   C1015993   2.934   6.837   4.237  0.4664 -0.1378  0.6401
  132CHL1   C1915994   3.072   6.905   4.273  0.5494  0.2657 -0.0673
  132CHL1  H19A15995   3.067   7.013   4.298 -1.2093  0.5392 -1.4139
  132CHL1  H19B15996   3.116   6.854   4.362 -1.4714 -1.6218 -0.0741
  132CHL1  H19C15997   3.145   6.898   4.189  0.2753  1.6434 -0.4384
  132CHL1    C115998   2.952   6.687   4.211  0.3803 -0.7902  0.0970
  132CHL1   H1A15999   2.991   6.639   4.303  0.6911  0.7512  0.7950
  132CHL1   H1B16000   2.850   6.648   4.190  0.7189 -3.5213  2.8542
  132CHL1    C216001   3.035   6.651   4.087 -0.6983  0.7749  0.1295
  132CHL1   H2A16002   3.033   6.540   4.084  0.6060  0.7290  0.6368
  132CHL1   H2B16003   3.144   6.672   4.090 -0.5558 -0.0412  1.5552
  132CHL1   C2016004   2.622   7.027   4.856  0.6919  0.0811 -0.4897
  132CHL1   H2016005   2.713   7.082   4.887  1.4983 -0.3119 -2.0645
  132CHL1   C2116006   2.649   6.888   4.917 -0.3088  0.0564 -0.4505
  132CHL1  H21A16007   2.579   6.808   4.885 -2.1467  1.0740  0.8191
  132CHL1  H21B16008   2.645   6.885   5.028 -3.0692 -0.2466 -0.4889
  132CHL1  H21C16009   2.744   6.842   4.882 -0.7074 -1.9877  0.9869
  132CHL1   C2216010   2.506   7.093   4.934  0.1187 -0.0770  0.1214
  132CHL1  H22A16011   2.541   7.101   5.040  3.3388 -2.8392 -0.5609
  132CHL1  H22B16012   2.489   7.197   4.898 -0.0614 -0.4199 -0.8015
  132CHL1   C2316013   2.372   7.023   4.928  0.2208  0.9134  0.2341
  132CHL1  H23A16014   2.342   7.002   4.823  0.0831 -1.2103  0.6467
  132CHL1  H23B16015   2.377   6.922   4.973 -1.0173 -0.6340 -2.8206
  132CHL1   C2416016   2.255   7.092   4.999 -0.0180 -0.0447  0.2003
  132CHL1  H24A16017   2.287   7.121   5.102  1.2051 -3.3094  0.8658
  132CHL1  H24B16018   2.242   7.187   4.943  1.1900  1.0819  1.7216
  132CHL1   C2516019   2.127   7.010   5.006 -0.3165 -0.1015  0.5527
  132CHL1   H2516020   2.049   7.086   5.028 -0.1810 -0.0549  0.8783
  132CHL1   C2616021   2.100   6.949   4.874  0.0144  0.6092  0.1414
  132CHL1  H26A16022   2.096   7.033   4.801  0.3268 -0.5175 -1.2266
  132CHL1  H26B16023   2.181   6.879   4.846 -2.1730 -1.8607 -0.4270
  132CHL1  H26C16024   2.008   6.888   4.871  0.3451  0.0754  0.7231
  132CHL1   C2716025   2.121   6.900   5.116 -0.0948 -0.1838  0.1872
  132CHL1  H27A16026   2.161   6.926   5.217  1.0681 -1.5201  0.1018
  132CHL1  H27B16027   2.015   6.868   5.124 -0.2840  0.0278 -1.2748
  132CHL1  H27C16028   2.175   6.812   5.076  0.3318  0.3804 -0.5078
  133CHL1    C316029   0.736   1.969   3.750 -0.5340  0.2611 -0.2320
  133CHL1    H316030   0.819   2.030   3.792  0.8084 -1.4115 -0.3320
  133CHL1    O316031   0.743   1.965   3.611 -0.0472  0.2293 -0.4566
  133CHL1   H3'16032   0.748   2.056   3.582 -0.2035 -0.2287 -2.0050
  133CHL1    C416033   0.767   1.823   3.792  0.0796 -0.5548  0.9425
  133CHL1   H4A16034   0.691   1.759   3.742  0.7616 -0.2573 -0.5464
  133CHL1   H4B16035   0.859   1.788   3.741 -0.7621 -2.2163  0.4823
  133CHL1    C516036   0.783   1.824   3.946 -0.5412  0.2212  0.4548
  133CHL1    C616037   0.897   1.783   4.003  0.4486 -0.0253 -1.0569
  133CHL1    H616038   0.987   1.755   3.947  0.9853  0.6458 -0.5465
  133CHL1    C716039   0.913   1.778   4.152  1.1627 -0.5312 -0.0527
  133CHL1   H7A16040   0.969   1.685   4.175  0.5066 -1.0967 -0.7141
  133CHL1   H7B16041   0.985   1.862   4.170  0.2721  0.7462 -2.0607
  133CHL1    C816042   0.783   1.794   4.238  0.2907  0.0834  0.3714
  133CHL1    H816043   0.731   1.696   4.240  3.4781 -1.7370  0.1909
  133CHL1   C1416044   0.806   1.836   4.383  0.4391 -0.7887  0.9834
  133CHL1   H1416045   0.863   1.931   4.371 -1.2469 -0.0492 -2.3734
  133CHL1   C1516046   0.886   1.743   4.465 -0.4627  0.1421 -0.2969
  133CHL1  H15A16047   0.835   1.644   4.465  0.1474 -0.1956 -1.6146
  133CHL1  H15B16048   0.990   1.728   4.429  1.2628  2.4816  3.2156
  133CHL1   C1616049   0.891   1.807   4.604  0.2563 -0.1323  0.0437
  133CHL1  H16A16050   0.887   1.731   4.685 -5.8372 -0.1292  0.1883
  133CHL1  H16B16051   0.990   1.859   4.603  0.2041  0.0270  1.3736
  133CHL1   C1716052   0.779   1.915   4.608  0.3365  0.2663  0.1892
  133CHL1   H1716053   0.828   2.012   4.583  0.5505  0.6360  1.9470
  133CHL1   C1316054   0.698   1.873   4.479  0.5274 -0.5546 -0.5691
  133CHL1   C1816055   0.611   1.748   4.521 -0.7682 -0.5715  0.1445
  133CHL1  H18A16056   0.510   1.780   4.554 -1.4569 -0.8705 -1.5831
  133CHL1  H18B16057   0.594   1.684   4.432  1.6788  1.2171 -1.7538
  133CHL1  H18C16058   0.647   1.686   4.605 -2.6305  0.7785  2.0437
  133CHL1   C1216059   0.605   1.975   4.419 -1.0516  0.6778 -0.1339
  133CHL1  H12A16060   0.512   1.990   4.478 -1.8157  0.3102 -1.2188
  133CHL1  H12B16061   0.656   2.073   4.428  0.0144  0.1812 -0.6209
  133CHL1   C1116062   0.569   1.932   4.270 -0.5690 -0.0657  0.3378
  133CHL1  H11A16063   0.516   1.835   4.279 -0.7122  0.0077  0.2868
  133CHL1  H11B16064   0.508   2.006   4.214  1.4180  0.1332 -1.7336
  133CHL1    C916065   0.693   1.903   4.179 -0.2152  0.0382  0.7969
  133CHL1    H916066   0.740   2.002   4.159 -0.4034 -0.0716 -0.2591
  133CHL1   C1016067   0.665   1.881   4.026 -0.0737 -0.0602 -0.2611
  133CHL1   C1916068   0.554   1.776   4.018 -0.1867 -0.3677 -0.0327
  133CHL1  H19A16069   0.458   1.802   4.066  1.7569  0.4663  3.8122
  133CHL1  H19B16070   0.525   1.744   3.916 -0.2678  1.8882 -0.7822
  133CHL1  H19C16071   0.592   1.687   4.072  1.5851  0.5191  0.2706
  133CHL1    C116072   0.620   2.014   3.962 -0.2387  0.7445 -0.0195
  133CHL1   H1A16073   0.527   2.050   4.011 -0.7127 -0.4132 -0.0254
  133CHL1   H1B16074   0.702   2.087   3.980  0.7210 -0.3927  0.3176
  133CHL1    C216075   0.605   2.018   3.809 -0.8275 -0.6385  0.8977
  133CHL1   H2A16076   0.594   2.126   3.787  1.1549 -0.3254  1.3078
  133CHL1   H2B16077   0.527   1.954   3.763 -0.1792 -1.1293  0.4740
  133CHL1   C2016078   0.715   1.930   4.749  0.2723  0.4581  0.4125
  133CHL1   H2016079   0.673   1.830   4.774 -0.5936  0.0092 -2.5188
  133CHL1   C2116080   0.613   2.044   4.741 -0.1816 -0.4135 -0.3068
  133CHL1  H21A16081   0.529   2.033   4.670 -1.9856  1.0038  1.4907
  133CHL1  H21B16082   0.661   2.142   4.720  0.9470 -0.5304  1.5298
  133CHL1  H21C16083   0.566   2.051   4.842 -0.9704  0.6714 -0.7380
  133CHL1   C2216084   0.823   1.951   4.848  0.1807 -0.5674 -0.4853
  133CHL1  H22A16085   0.912   1.885   4.837 -0.3044 -1.2092 -0.6108
  133CHL1  H22B16086   0.854   2.057   4.832 -1.1878 -0.2837 -1.4342
  133CHL1   C2316087   0.778   1.932   4.996 -0.6331 -0.0429  0.1169
  133CHL1  H23A16088   0.703   2.012   5.014 -0.0504  0.5256  0.0197
  133CHL1  H23B16089   0.744   1.826   5.002  0.5260 -0.4249  0.0512
  133CHL1   C2416090   0.899   1.956   5.098  1.0091 -0.7061  0.1339
  133CHL1  H24A16091   0.970   1.871   5.084  0.5023 -0.8482 -1.9650
  133CHL1  H24B16092   0.944   2.055   5.078 -2.8294  1.0188 -0.8911
  133CHL1   C2516093   0.860   1.948   5.247 -0.6085  0.0828  0.7572
  133CHL1   H2516094   0.756   1.977   5.270 -1.2191 -1.8974  0.7093
  133CHL1   C2616095   0.859   1.799   5.289  0.3215 -0.2394  0.2371
  133CHL1  H26A16096   0.788   1.732   5.235  1.6475 -1.4263 -0.1166
  133CHL1  H26B16097   0.960   1.757   5.271  0.4459  0.3739 -0.5562
  133CHL1  H26C16098   0.839   1.786   5.397  0.2811  2.2666  0.5873
  133CHL1   C2716099   0.949   2.035   5.344  0.2782  0.5395  0.1504
  133CHL1  H27A16100   0.946   2.142   5.314 -2.1310  0.2918 -0.7030
  133CHL1  H27B16101   0.911   2.029   5.449 -2.4384 -0.2787 -0.7976
  133CHL1  H27C16102   1.056   2.004   5.340 -0.1860 -1.3236  0.9572
  134CHL1    C316103   0.704   2.960   3.770 -0.0936  0.6205 -0.8166
  134CHL1    H316104   0.785   2.889   3.744 -1.1954 -1.6576  1.5572
  134CHL1    O316105   0.666   3.034   3.660  0.4018 -0.1392  0.2503
  134CHL1   H3'16106   0.584   2.992   3.632  0.4733  0.4716 -0.9553
  134CHL1    C416107   0.593   2.869   3.822  0.1518  0.0531  0.2729
  134CHL1   H4A16108   0.504   2.929   3.851 -0.8190 -1.6319  0.9455
  134CHL1   H4B16109   0.563   2.803   3.738 -1.6990  0.6727  0.4012
  134CHL1    C516110   0.639   2.784   3.935  0.8149 -0.7613  0.2631
  134CHL1    C616111   0.634   2.654   3.929  0.4638  0.2618  0.9703
  134CHL1    H616112   0.588   2.605   3.842 -0.9740 -0.3670  2.0411
  134CHL1    C716113   0.667   2.560   4.041  0.2812  0.7387  0.1808
  134CHL1   H7A16114   0.594   2.478   4.061 -0.0931  0.8657 -0.5978
  134CHL1   H7B16115   0.757   2.504   4.009  0.7356  2.0590 -0.9573
  134CHL1    C816116   0.691   2.639   4.171  0.3985 -0.0638  0.2886
  134CHL1    H816117   0.596   2.659   4.224  0.0238 -3.2363  1.0153
  134CHL1   C1416118   0.773   2.554   4.268  0.1841 -0.2288  0.5266
  134CHL1   H1416119   0.871   2.532   4.221  0.6150  2.9021 -0.2696
  134CHL1   C1516120   0.721   2.411   4.292  0.3171  0.5257  0.3145
  134CHL1  H15A16121   0.612   2.410   4.313  0.2909 -0.1321  0.1652
  134CHL1  H15B16122   0.748   2.342   4.210  1.4153  1.7622 -0.4079
  134CHL1   C1616123   0.800   2.375   4.419  0.5546 -0.1487 -0.2524
  134CHL1  H16A16124   0.715   2.361   4.488  0.0627  0.1982 -0.7798
  134CHL1  H16B16125   0.855   2.282   4.392 -1.9651 -1.5378 -0.8810
  134CHL1   C1716126   0.883   2.500   4.467 -0.2269 -0.1128  0.4075
  134CHL1   H1716127   0.987   2.493   4.430  0.2626  0.7436  1.5578
  134CHL1   C1316128   0.808   2.614   4.396 -1.0149 -0.0192  0.6139
  134CHL1   C1816129   0.676   2.635   4.474  0.5252 -0.1169  0.0317
  134CHL1  H18A16130   0.623   2.720   4.427  2.0085  0.3423 -0.8918
  134CHL1  H18B16131   0.609   2.547   4.485 -1.5303  1.3345 -0.3683
  134CHL1  H18C16132   0.707   2.676   4.572 -0.3271  2.8050 -0.8111
  134CHL1   C1216133   0.891   2.747   4.372  0.4777  0.2550  0.0847
  134CHL1  H12A16134   0.920   2.801   4.464 -0.8365  1.3224 -0.1090
  134CHL1  H12B16135   0.986   2.717   4.322 -0.1066 -1.0581 -0.2732
  134CHL1   C1116136   0.818   2.846   4.277 -0.4960  0.2253 -0.2001
  134CHL1  H11A16137   0.727   2.872   4.335 -1.3591 -1.6690 -0.6577
  134CHL1  H11B16138   0.876   2.939   4.257  0.0446 -0.0993 -0.1829
  134CHL1    C916139   0.765   2.770   4.144 -1.0143  0.0095 -0.7422
  134CHL1    H916140   0.865   2.736   4.109  0.4370 -1.5861  4.1551
  134CHL1   C1016141   0.699   2.864   4.049  0.1585 -0.4037  0.1639
  134CHL1   C1916142   0.583   2.942   4.121 -0.2906  0.2938  0.0067
  134CHL1  H19A16143   0.525   3.006   4.051 -0.3587  1.0469  0.7369
  134CHL1  H19B16144   0.508   2.871   4.162 -1.5880  0.9975 -1.0601
  134CHL1  H19C16145   0.635   2.998   4.201  0.9303 -1.7633  0.7299
  134CHL1    C116146   0.802   2.963   3.993  0.7228 -0.1601  0.2534
  134CHL1   H1A16147   0.844   3.034   4.067 -3.0510  3.1303 -0.3808
  134CHL1   H1B16148   0.884   2.896   3.960  0.1277 -1.5213  1.4445
  134CHL1    C216149   0.758   3.049   3.877  0.3704  0.0612 -0.0323
  134CHL1   H2A16150   0.851   3.098   3.843  1.3772 -1.2445  0.7735
  134CHL1   H2B16151   0.683   3.127   3.903  1.3015  0.7708  0.5848
  134CHL1   C2016152   0.898   2.502   4.627  0.1807  0.6445 -0.3601
  134CHL1   H2016153   0.804   2.518   4.685  0.8308 -1.1013  1.2579
  134CHL1   C2116154   0.992   2.605   4.676  0.2453 -0.3417 -0.9042
  134CHL1  H21A16155   0.950   2.708   4.666  0.6454  0.4552  3.5936
  134CHL1  H21B16156   1.091   2.602   4.624  1.9941 -0.9275  2.1981
  134CHL1  H21C16157   1.012   2.588   4.784  0.8336  1.4723 -0.6783
  134CHL1   C2216158   0.939   2.349   4.667  0.3849 -0.3852 -0.5361
  134CHL1  H22A16159   0.936   2.355   4.778 -3.2236 -2.6861 -0.3517
  134CHL1  H22B16160   0.855   2.278   4.653  0.8542 -1.0847  0.1416
  134CHL1   C2316161   1.065   2.301   4.609 -0.2454  0.3122  0.9594
  134CHL1  H23A16162   1.047   2.286   4.500 -0.7603 -0.1249  1.0980
  134CHL1  H23B16163   1.141   2.379   4.631 -0.5263  0.5721  1.0288
  134CHL1   C2416164   1.114   2.172   4.679 -0.2093 -0.5390  0.8813
  134CHL1  H24A16165   1.036   2.094   4.665 -0.7696  0.3398 -1.1079
  134CHL1  H24B16166   1.201   2.127   4.627 -0.5251  0.1252 -0.2570
  134CHL1   C2516167   1.159   2.185   4.832  0.2443 -0.3392 -0.2788
  134CHL1   H2516168   1.074   2.217   4.896 -1.1422  0.2878 -2.3313
  134CHL1   C2616169   1.199   2.056   4.892 -0.3019 -0.2135 -0.3441
  134CHL1  H26A16170   1.309   2.036   4.893  0.1593  1.8224  2.6739
  134CHL1  H26B16171   1.174   2.073   4.999  1.7042  2.7271 -0.2171
  134CHL1  H26C16172   1.127   1.981   4.855 -1.1575  1.3321 -1.9287
  134CHL1   C2716173   1.271   2.293   4.869  0.1409  0.2868 -0.6518
  134CHL1  H27A16174   1.366   2.258   4.822  0.9067 -1.3322  1.9126
  134CHL1  H27B16175   1.251   2.397   4.836 -1.0640  0.8408  1.6308
  134CHL1  H27C16176   1.276   2.296   4.980 -1.0015 -0.0463 -0.5766
  135CHL1    C316177   6.650   2.791   3.305  0.4879 -0.5707 -0.4065
  135CHL1    H316178   6.659   2.902   3.308 -2.3785 -0.1996 -1.7688
  135CHL1    O316179   6.670   2.742   3.175 -0.5456  0.0067 -0.1660
  135CHL1   H3'16180   6.652   2.648   3.182  1.0251 -0.2668  0.4148
  135CHL1    C416181   6.748   2.732   3.405 -0.2342 -0.2224 -0.2002
  135CHL1   H4A16182   6.747   2.622   3.395  3.7835 -0.2279 -3.6467
  135CHL1   H4B16183   6.851   2.765   3.377 -0.3054 -0.6029 -0.9234
  135CHL1    C516184   6.728   2.771   3.550 -0.5240  0.0428 -0.7437
  135CHL1    C616185   6.825   2.830   3.630  0.5354  0.4125  0.4313
  135CHL1    H616186   6.927   2.849   3.592  0.7160 -0.0055  0.7023
  135CHL1    C716187   6.811   2.859   3.776  0.8458  0.0230  0.3654
  135CHL1   H7A16188   6.880   2.799   3.838  0.8065 -0.5462 -0.1362
  135CHL1   H7B16189   6.808   2.968   3.799 -0.1693  1.1454 -4.1155
  135CHL1    C816190   6.672   2.810   3.833 -0.9192 -0.3356 -0.1728
  135CHL1    H816191   6.684   2.702   3.855  1.9907  0.1646  1.1812
  135CHL1   C1416192   6.644   2.888   3.962 -0.3022 -0.1501 -0.1970
  135CHL1   H1416193   6.640   2.993   3.926 -1.1624 -1.0676 -3.0203
  135CHL1   C1516194   6.757   2.891   4.060  0.4683 -0.7768 -0.0217
  135CHL1  H15A16195   6.805   2.791   4.063  0.0659 -0.9491  0.8705
  135CHL1  H15B16196   6.827   2.969   4.023 -1.5648  1.1375 -0.0687
  135CHL1   C1616197   6.689   2.940   4.187  0.1557  0.1476  0.7725
  135CHL1  H16A16198   6.712   2.862   4.263  6.4059  2.4029  1.8138
  135CHL1  H16B16199   6.712   3.040   4.228  1.2902  0.4129 -0.4536
  135CHL1   C1716200   6.530   2.943   4.158 -0.6045 -0.0852 -0.2246
  135CHL1   H1716201   6.512   3.048   4.127  0.3231  0.1218 -0.0869
  135CHL1   C1316202   6.513   2.855   4.034 -0.2247 -0.0072  0.3323
  135CHL1   C1816203   6.511   2.710   4.079 -0.5208  0.1218 -0.0142
  135CHL1  H18A16204   6.598   2.696   4.146  0.1141  1.3021 -0.5468
  135CHL1  H18B16205   6.417   2.673   4.123  0.4503 -2.2247  0.2176
  135CHL1  H18C16206   6.530   2.646   3.990 -1.9837  1.4792 -1.3784
  135CHL1   C1216207   6.401   2.900   3.932 -0.0933  0.3447  0.0763
  135CHL1  H12A16208   6.296   2.886   3.967 -0.8403  0.7953 -1.8730
  135CHL1  H12B16209   6.421   3.006   3.907  0.1031  0.1928 -0.4228
  135CHL1   C1116210   6.421   2.819   3.799  0.0626 -0.7619  0.3318
  135CHL1  H11A16211   6.382   2.716   3.812 -2.5256  0.3089  2.0658
  135CHL1  H11B16212   6.353   2.870   3.728  0.7453  0.8096  0.7507
  135CHL1    C916213   6.561   2.831   3.736  0.0459  0.4390  0.0934
  135CHL1    H916214   6.578   2.935   3.701  0.0197  0.2995 -0.3386
  135CHL1   C1016215   6.580   2.746   3.610 -0.5366  0.0608 -0.0282
  135CHL1   C1916216   6.559   2.594   3.635  0.3296  0.2923 -0.4796
  135CHL1  H19A16217   6.584   2.527   3.550  0.3370  0.1107 -0.3352
  135CHL1  H19B16218   6.622   2.563   3.721  0.8587  2.2757 -0.1130
  135CHL1  H19C16219   6.457   2.565   3.669  0.1168 -0.8802 -2.0160
  135CHL1    C116220   6.475   2.796   3.498  0.1699 -0.5777 -0.5587
  135CHL1   H1A16221   6.375   2.756   3.528 -0.0377  1.4928  1.8098
  135CHL1   H1B16222   6.467   2.906   3.500 -1.9005 -0.6667 -1.5602
  135CHL1    C216223   6.509   2.745   3.348  0.4969 -0.4314 -0.0891
  135CHL1   H2A16224   6.435   2.784   3.275  0.7675  1.4298  0.5971
  135CHL1   H2B16225   6.503   2.634   3.341  1.4857 -0.4280 -1.5906
  135CHL1   C2016226   6.436   2.919   4.279  0.1985 -0.0891  0.0016
  135CHL1   H2016227   6.430   2.810   4.296 -1.1939  0.0197  0.3049
  135CHL1   C2116228   6.294   2.957   4.239 -0.2035  0.2110  0.3798
  135CHL1  H21A16229   6.225   2.938   4.324 -2.3239  2.3389 -0.7603
  135CHL1  H21B16230   6.252   2.894   4.157 -2.0606  1.8005  0.0346
  135CHL1  H21C16231   6.287   3.065   4.216 -0.0031  0.2332  0.4225
  135CHL1   C2216232   6.484   2.986   4.415 -0.7706 -0.1412  0.0582
  135CHL1  H22A16233   6.577   2.931   4.443 -0.7785 -0.9367 -1.3519
  135CHL1  H22B16234   6.510   3.092   4.397 -0.4740 -0.3150 -0.5680
  135CHL1   C2316235   6.393   2.991   4.538  0.2197 -0.3891  0.1493
  135CHL1  H23A16236   6.309   3.063   4.523 -0.2247 -0.9505 -0.0819
  135CHL1  H23B16237   6.355   2.887   4.539  1.7616 -0.9754  1.4975
  135CHL1   C2416238   6.453   3.016   4.677  0.1669 -0.1604  0.0961
  135CHL1  H24A16239   6.528   2.935   4.692 -0.0181 -0.1652  1.0425
  135CHL1  H24B16240   6.508   3.111   4.690 -1.6296  0.8972  0.2552
  135CHL1   C2516241   6.351   3.000   4.791 -0.6162  1.0170 -1.0664
  135CHL1   H2516242   6.279   2.919   4.766 -0.1823  0.2933 -0.0079
  135CHL1   C2616243   6.416   2.969   4.922 -1.0259 -0.0745  0.4736
  135CHL1  H26A16244   6.475   3.053   4.966  0.5093 -0.5387 -0.5855
  135CHL1  H26B16245   6.343   2.934   4.998  0.4375  0.2152  2.0808
  135CHL1  H26C16246   6.493   2.890   4.913 -0.2988  0.7449 -0.8782
  135CHL1   C2716247   6.271   3.130   4.813  0.6953 -0.0875  0.3681
  135CHL1  H27A16248   6.198   3.114   4.895 -2.8641  1.0007 -2.3614
  135CHL1  H27B16249   6.329   3.221   4.839 -1.1135  1.5090 -0.9042
  135CHL1  H27C16250   6.203   3.156   4.729 -1.7758  0.3379  2.3571
  136CHL1    C316251   6.309   0.239   3.309 -0.1903 -0.2330  0.2707
  136CHL1    H316252   6.289   0.344   3.281 -0.5524 -0.1954  0.6759
  136CHL1    O316253   6.354   0.180   3.192  0.0665  0.4705 -0.3609
  136CHL1   H3'16254   6.328   0.088   3.196  1.8452 -0.0487  0.7273
  136CHL1    C416255   6.426   0.249   3.409  0.2869 -0.3068 -0.7419
  136CHL1   H4A16256   6.468   0.147   3.426 -1.5128 -1.0888 -0.7581
  136CHL1   H4B16257   6.512   0.311   3.376  1.7899 -1.0659  1.4778
  136CHL1    C516258   6.377   0.303   3.543 -0.0036 -0.0338 -0.8884
  136CHL1    C616259   6.430   0.413   3.599 -0.5220 -0.1297  0.3200
  136CHL1    H616260   6.520   0.457   3.555 -1.4467  1.0673 -0.4276
  136CHL1    C716261   6.398   0.459   3.739  0.3771  0.0097  0.8318
  136CHL1   H7A16262   6.494   0.479   3.792  1.1985 -0.2890 -0.4919
  136CHL1   H7B16263   6.341   0.554   3.743  1.9600  0.9748  2.6453
  136CHL1    C816264   6.308   0.357   3.821 -0.1566 -0.3548  0.3000
  136CHL1    H816265   6.381   0.278   3.847 -0.4154 -1.1360 -1.2399
  136CHL1   C1416266   6.246   0.425   3.941  0.3642 -0.2034 -0.1909
  136CHL1   H1416267   6.183   0.499   3.887  2.6880  1.2203 -1.0865
  136CHL1   C1516268   6.331   0.513   4.034  0.3844 -0.2314  0.0126
  136CHL1  H15A16269   6.424   0.457   4.055  1.0857  1.1698  0.7688
  136CHL1  H15B16270   6.362   0.613   3.996  1.6921  0.6312  3.1151
  136CHL1   C1616271   6.237   0.535   4.165  0.4597  0.6159 -0.1982
  136CHL1  H16A16272   6.294   0.505   4.256  0.6962  2.2818  0.2478
  136CHL1  H16B16273   6.202   0.638   4.190 -1.0518 -0.7618  4.5744
  136CHL1   C1716274   6.113   0.442   4.137  0.0892 -0.0342 -0.4094
  136CHL1   H1716275   6.041   0.507   4.083  0.9489 -2.1304 -4.4103
  136CHL1   C1316276   6.156   0.339   4.023  0.5193 -0.0141  0.0058
  136CHL1   C1816277   6.244   0.224   4.088  0.0839 -0.1377 -0.1390
  136CHL1  H18A16278   6.320   0.268   4.156 -3.1925  2.1575  2.4080
  136CHL1  H18B16279   6.176   0.161   4.150 -1.5588  0.9584 -0.7489
  136CHL1  H18C16280   6.294   0.170   4.004  0.5557 -0.3683  0.2845
  136CHL1   C1216281   6.045   0.288   3.927 -0.3987 -0.3436  0.2717
  136CHL1  H12A16282   5.980   0.217   3.982 -0.2405 -0.2153  0.6289
  136CHL1  H12B16283   5.982   0.367   3.879  2.0733  0.9442 -1.0871
  136CHL1   C1116284   6.106   0.204   3.815 -0.0074  0.0115 -0.5930
  136CHL1  H11A16285   6.155   0.115   3.861 -0.0047 -0.2663 -1.1213
  136CHL1  H11B16286   6.023   0.160   3.755 -0.3985  0.6554 -0.5253
  136CHL1    C916287   6.202   0.292   3.730  0.2362 -0.4394  0.0176
  136CHL1    H916288   6.135   0.373   3.694 -0.2911  0.2901  2.4248
  136CHL1   C1016289   6.260   0.228   3.611 -0.0122 -0.0502  0.9830
  136CHL1   C1916290   6.314   0.086   3.662 -0.2703 -0.3946  0.3735
  136CHL1  H19A16291   6.348   0.028   3.574 -2.8038  0.2098 -1.1172
  136CHL1  H19B16292   6.383   0.092   3.749  0.9337  0.5712 -0.6154
  136CHL1  H19C16293   6.245   0.006   3.694  0.0661 -0.5428  0.7315
  136CHL1    C116294   6.143   0.203   3.499 -0.0302 -0.7377  0.0858
  136CHL1   H1A16295   6.074   0.131   3.547  0.5555 -0.5799  1.2051
  136CHL1   H1B16296   6.095   0.303   3.488 -2.1060 -1.8218 -1.5434
  136CHL1    C216297   6.188   0.158   3.362 -0.9074 -0.0242 -0.2982
  136CHL1   H2A16298   6.105   0.165   3.288 -0.2078  1.5595 -0.9695
  136CHL1   H2B16299   6.224   0.054   3.378 -0.1007  0.5807  2.1284
  136CHL1   C2016300   6.036   0.387   4.260  0.0120  0.3908 -0.3029
  136CHL1   H2016301   6.093   0.305   4.310 -1.5164 -0.9529 -0.6638
  136CHL1   C2116302   5.900   0.335   4.219  0.4057 -0.0130  0.0385
  136CHL1  H21A16303   5.826   0.332   4.303  1.1805 -0.8188  0.7071
  136CHL1  H21B16304   5.909   0.231   4.183 -0.6764  1.2638 -4.5229
  136CHL1  H21C16305   5.858   0.388   4.131 -0.2872 -0.9689 -0.2175
  136CHL1   C2216306   6.023   0.488   4.373  0.3325 -0.7285  0.0132
  136CHL1  H22A16307   6.119   0.536   4.402 -0.0856 -1.3431  2.7302
  136CHL1  H22B16308   5.959   0.572   4.338 -1.1886 -2.4440 -1.5099
  136CHL1   C2316309   5.982   0.434   4.517  0.1044  0.4247 -0.0577
  136CHL1  H23A16310   5.889   0.373   4.519  1.7310 -2.2913 -1.3297
  136CHL1  H23B16311   6.065   0.362   4.529  0.2339  0.4129 -0.9214
  136CHL1   C2416312   5.994   0.549   4.622  0.0272 -0.1076  0.1155
  136CHL1  H24A16313   6.093   0.597   4.616 -0.0652  0.0403 -0.3117
  136CHL1  H24B16314   5.908   0.616   4.600 -0.6294 -1.3276 -1.1956
  136CHL1   C2516315   5.974   0.500   4.764 -0.6811  0.1390 -0.2460
  136CHL1   H2516316   6.064   0.437   4.781 -1.9328 -1.3784  1.2403
  136CHL1   C2616317   6.005   0.609   4.859 -0.6353 -0.8390  0.3176
  136CHL1  H26A16318   6.093   0.667   4.823 -0.9175 -0.8345 -0.3843
  136CHL1  H26B16319   5.920   0.681   4.857  0.5321  0.5841  0.3143
  136CHL1  H26C16320   6.015   0.568   4.961  1.6795 -1.1323  0.0137
  136CHL1   C2716321   5.846   0.416   4.792  0.0321  0.3069 -0.3064
  136CHL1  H27A16322   5.762   0.487   4.777 -0.6774 -0.1703  1.1938
  136CHL1  H27B16323   5.844   0.330   4.722 -1.7282  1.2722 -1.5088
  136CHL1  H27C16324   5.852   0.382   4.898  2.1055  1.4629  0.0020
  137CHL1    C316325   1.818   0.792   3.488  0.1120 -0.2912 -0.0191
  137CHL1    H316326   1.908   0.849   3.520 -0.9837  0.8189  1.1943
  137CHL1    O316327   1.798   0.789   3.342  0.5831  0.3741  0.4439
  137CHL1   H3'16328   1.715   0.743   3.325  0.9975  0.2932 -1.5553
  137CHL1    C416329   1.839   0.646   3.535 -0.2341 -0.2937  0.1658
  137CHL1   H4A16330   1.749   0.587   3.506 -0.2139 -0.9637  1.4143
  137CHL1   H4B16331   1.919   0.596   3.476  0.3493 -1.5494  1.9315
  137CHL1    C516332   1.847   0.630   3.684  0.2444  0.2308  0.2040
  137CHL1    C616333   1.946   0.567   3.742  0.0071  0.4007 -1.3853
  137CHL1    H616334   2.037   0.536   3.688  0.1850 -3.2968  0.6979
  137CHL1    C716335   1.948   0.551   3.888 -0.5640  0.5906 -0.3201
  137CHL1   H7A16336   1.982   0.448   3.913 -1.3243  0.3307 -0.3265
  137CHL1   H7B16337   2.023   0.619   3.933 -1.4953  0.9989  0.6517
  137CHL1    C816338   1.817   0.565   3.967  0.0961 -0.4199  0.4961
  137CHL1    H816339   1.747   0.482   3.945 -1.9013  2.2573 -5.2759
  137CHL1   C1416340   1.842   0.579   4.120 -0.0671  0.4807 -0.0877
  137CHL1   H1416341   1.921   0.656   4.128  0.7611 -0.5105  1.7982
  137CHL1   C1516342   1.905   0.458   4.190  0.6884 -0.3369  0.2571
  137CHL1  H15A16343   1.846   0.366   4.167 -1.1100  1.0249 -0.8467
  137CHL1  H15B16344   2.012   0.448   4.164  0.3352 -1.8132 -0.7559
  137CHL1   C1616345   1.880   0.491   4.341 -0.2665 -0.4539 -0.3148
  137CHL1  H16A16346   1.838   0.400   4.389  2.0578 -1.5176 -0.1589
  137CHL1  H16B16347   1.970   0.523   4.397  0.2016 -0.4440 -1.0593
  137CHL1   C1716348   1.773   0.608   4.348 -0.5123 -0.1352  0.4266
  137CHL1   H1716349   1.831   0.703   4.357 -0.2721 -0.4207  2.4696
  137CHL1   C1316350   1.714   0.606   4.203 -0.3770  0.9096 -0.6731
  137CHL1   C1816351   1.613   0.486   4.192 -0.2102 -0.0943  0.2533
  137CHL1  H18A16352   1.653   0.389   4.228  1.0411 -0.2539 -1.4486
  137CHL1  H18B16353   1.520   0.516   4.244 -0.8552  0.4313 -1.1425
  137CHL1  H18C16354   1.594   0.481   4.083  1.5418 -0.3388 -0.0652
  137CHL1   C1216355   1.653   0.734   4.157 -0.1152  0.6065 -0.0262
  137CHL1  H12A16356   1.565   0.773   4.211 -0.8316  2.7382 -2.4993
  137CHL1  H12B16357   1.735   0.808   4.168  0.2173  0.1536  0.6055
  137CHL1   C1116358   1.619   0.727   4.009 -0.4230 -0.1052  0.3916
  137CHL1  H11A16359   1.538   0.654   3.989 -1.6720  1.1924  0.5194
  137CHL1  H11B16360   1.586   0.827   3.975 -1.5844 -1.0173 -1.3040
  137CHL1    C916361   1.744   0.690   3.920  0.1483  0.3164 -0.4846
  137CHL1    H916362   1.823   0.765   3.943  0.5955  0.0436 -1.0885
  137CHL1   C1016363   1.720   0.680   3.763  0.1022 -0.2313  0.4143
  137CHL1   C1916364   1.606   0.582   3.736  0.8796 -0.3746 -0.4784
  137CHL1  H19A16365   1.515   0.620   3.786 -0.7739 -1.0110 -2.8019
  137CHL1  H19B16366   1.577   0.576   3.629 -0.5100  0.0005 -0.1379
  137CHL1  H19C16367   1.621   0.480   3.778 -2.0224 -1.9623 -2.8880
  137CHL1    C116368   1.686   0.824   3.713  0.0474  1.2022 -0.0483
  137CHL1   H1A16369   1.587   0.861   3.746  0.2034 -0.0886  2.0396
  137CHL1   H1B16370   1.760   0.900   3.746 -0.5737  1.5369  0.5872
  137CHL1    C216371   1.683   0.844   3.559 -0.4801 -0.0483  0.0985
  137CHL1   H2A16372   1.666   0.952   3.536  0.4927  0.1821  0.4048
  137CHL1   H2B16373   1.594   0.789   3.521 -0.6422  0.3872 -0.1596
  137CHL1   C2016374   1.682   0.600   4.482 -0.5516  0.1667  0.5283
  137CHL1   H2016375   1.648   0.494   4.490 -0.2449  0.0058 -0.2616
  137CHL1   C2116376   1.562   0.696   4.479 -0.5088 -0.1449 -0.4052
  137CHL1  H21A16377   1.493   0.663   4.398 -1.3813  0.0742  0.2226
  137CHL1  H21B16378   1.595   0.801   4.465 -1.5335  0.7075  2.7532
  137CHL1  H21C16379   1.515   0.699   4.580  0.8096  0.2710  0.2066
  137CHL1   C2216380   1.770   0.622   4.608 -0.4374  0.2032 -0.4129
  137CHL1  H22A16381   1.703   0.614   4.696  0.5161  0.3904  0.3474
  137CHL1  H22B16382   1.842   0.539   4.624 -0.7307  0.1640  0.7810
  137CHL1   C2316383   1.848   0.758   4.624  0.2170  0.5428 -0.0875
  137CHL1  H23A16384   1.915   0.780   4.538 -1.0594  1.0584 -0.9800
  137CHL1  H23B16385   1.776   0.842   4.634 -0.1427  0.3421 -0.8996
  137CHL1   C2416386   1.933   0.748   4.754  0.7375  0.8738 -0.2542
  137CHL1  H24A16387   1.868   0.736   4.843  0.5530 -0.6852 -0.5848
  137CHL1  H24B16388   1.989   0.653   4.750 -0.0054  0.4735 -2.1672
  137CHL1   C2516389   2.030   0.870   4.765 -0.2048  0.4673 -0.6841
  137CHL1   H2516390   1.983   0.968   4.742  1.2662  1.1081 -1.0717
  137CHL1   C2616391   2.087   0.874   4.902 -0.2025 -0.7294  0.4049
  137CHL1  H26A16392   2.141   0.970   4.912  1.5559 -1.6372 -0.0663
  137CHL1  H26B16393   2.015   0.866   4.987  0.2183 -0.6115  0.7745
  137CHL1  H26C16394   2.153   0.785   4.905  2.6607  1.2584 -0.2045
  137CHL1   C2716395   2.155   0.861   4.672 -0.7295  0.7913 -0.0784
  137CHL1  H27A16396   2.227   0.946   4.677  2.1592 -1.5573  1.4235
  137CHL1  H27B16397   2.216   0.771   4.694 -0.1727  1.3563  0.7608
  137CHL1  H27C16398   2.127   0.843   4.566 -1.2380  0.6577  0.0814
  138CHL1    C316399   6.666   0.720   3.122 -0.4736 -0.6218 -0.1451
  138CHL1    H316400   6.574   0.775   3.094 -1.2597 -2.5006 -1.4331
  138CHL1    O316401   6.672   0.613   3.029  0.2033  0.2289  0.7981
  138CHL1   H3'16402   6.623   0.541   3.068  1.3939 -0.7618  0.5065
  138CHL1    C416403   6.783   0.818   3.100  0.4173  0.9519 -0.4686
  138CHL1   H4A16404   6.881   0.766   3.090  0.5172  1.0972 -0.2539
  138CHL1   H4B16405   6.776   0.864   2.999  1.1409 -0.1614 -1.0516
  138CHL1    C516406   6.783   0.924   3.206  0.1961  0.1737 -0.7990
  138CHL1    C616407   6.782   1.053   3.179  0.6646 -0.0572  0.1619
  138CHL1    H616408   6.777   1.087   3.074 -0.0398  1.4552  0.6509
  138CHL1    C716409   6.781   1.154   3.289  0.0968 -0.1057 -0.2305
  138CHL1   H7A16410   6.829   1.245   3.249 -0.1728 -0.8156 -2.3022
  138CHL1   H7B16411   6.677   1.185   3.314  0.4865  1.3328 -0.3135
  138CHL1    C816412   6.832   1.103   3.429 -0.1031  1.1104 -0.1708
  138CHL1    H816413   6.940   1.081   3.417 -0.1562  0.7161  0.0374
  138CHL1   C1416414   6.820   1.210   3.535  0.7972  0.1140  0.3030
  138CHL1   H1416415   6.710   1.225   3.530  0.7851 -0.1494 -0.2472
  138CHL1   C1516416   6.891   1.343   3.520 -0.2003  0.2374 -0.0864
  138CHL1  H15A16417   6.999   1.329   3.495  0.0084  0.9188  0.3971
  138CHL1  H15B16418   6.844   1.404   3.440 -0.1796  2.0423  1.2233
  138CHL1   C1616419   6.876   1.401   3.661 -0.4562  0.3977  0.8012
  138CHL1  H16A16420   6.980   1.421   3.696 -0.7622  0.3404  1.7557
  138CHL1  H16B16421   6.812   1.492   3.658 -1.4238 -0.3011 -0.9892
  138CHL1   C1716422   6.811   1.290   3.747 -0.3172  0.1948  1.0502
  138CHL1   H1716423   6.702   1.304   3.730 -0.4854 -0.4085  1.5726
  138CHL1   C1316424   6.849   1.169   3.669  0.7417  0.3212 -0.5190
  138CHL1   C1816425   7.004   1.130   3.691 -0.0302 -0.1037  0.3561
  138CHL1  H18A16426   7.032   1.063   3.607 -2.8195 -1.8120  0.6741
  138CHL1  H18B16427   7.067   1.218   3.670 -1.6692  0.7774 -1.1766
  138CHL1  H18C16428   7.016   1.085   3.792  0.0739  1.7382  1.2001
  138CHL1   C1216429   6.753   1.046   3.702 -0.7726 -0.2384 -1.0322
  138CHL1  H12A16430   6.794   1.019   3.802  1.6908  0.8338 -1.6784
  138CHL1  H12B16431   6.646   1.077   3.705 -1.0091 -1.1299  1.2985
  138CHL1   C1116432   6.771   0.930   3.613  0.2700 -0.2359  0.1046
  138CHL1  H11A16433   6.867   0.877   3.629 -0.8359 -2.0561  1.1738
  138CHL1  H11B16434   6.691   0.854   3.630 -0.8197  0.1232 -2.7533
  138CHL1    C916435   6.758   0.974   3.463 -0.3011 -0.4145 -0.3328
  138CHL1    H916436   6.653   1.003   3.447 -0.7481  0.3194  3.0788
  138CHL1   C1016437   6.790   0.859   3.355  0.2442 -0.4321  0.6451
  138CHL1   C1916438   6.925   0.793   3.378 -0.0894 -0.0389  0.2957
  138CHL1  H19A16439   6.917   0.747   3.479 -0.3715 -0.8281 -0.0738
  138CHL1  H19B16440   6.940   0.709   3.307  1.9842 -0.5477  1.2660
  138CHL1  H19C16441   7.004   0.871   3.387 -1.2727  1.1923  0.3877
  138CHL1    C116442   6.677   0.755   3.372 -0.2504 -0.2265 -0.5349
  138CHL1   H1A16443   6.695   0.701   3.468 -1.7614 -0.7137 -0.4985
  138CHL1   H1B16444   6.584   0.814   3.384  1.1628  1.9012  0.6895
  138CHL1    C216445   6.672   0.659   3.259  0.2024 -0.2544  0.2563
  138CHL1   H2A16446   6.582   0.595   3.271 -1.2011  1.4298 -0.8623
  138CHL1   H2B16447   6.763   0.595   3.262 -1.0153 -2.0130  2.9106
  138CHL1   C2016448   6.831   1.290   3.896 -0.3197 -0.6703 -0.5957
  138CHL1   H2016449   6.913   1.219   3.918  0.4327 -0.1214 -1.5548
  138CHL1   C2116450   6.699   1.246   3.958  0.0168 -0.5305 -0.4605
  138CHL1  H21A16451   6.619   1.323   3.953  1.4882  1.0143 -1.3766
  138CHL1  H21B16452   6.715   1.227   4.066  0.0511 -0.7521 -0.5028
  138CHL1  H21C16453   6.663   1.149   3.918 -0.8463 -0.7556  0.8274
  138CHL1   C2216454   6.875   1.430   3.954 -0.6878 -0.1091 -0.7993
  138CHL1  H22A16455   6.959   1.470   3.892 -0.2031 -0.1269 -0.1607
  138CHL1  H22B16456   6.784   1.490   3.933  0.1661  0.2687 -4.0167
  138CHL1   C2316457   6.919   1.418   4.102 -0.2895  0.1173 -0.1798
  138CHL1  H23A16458   6.825   1.416   4.160 -2.4494  1.9046 -3.3265
  138CHL1  H23B16459   6.971   1.322   4.121  0.1552  0.4489  0.3121
  138CHL1   C2416460   7.010   1.535   4.154  0.2841  0.7161  0.0584
  138CHL1  H24A16461   7.101   1.523   4.092  0.1369 -0.5579  0.0663
  138CHL1  H24B16462   6.943   1.623   4.144  0.0114  0.5793  0.6430
  138CHL1   C2516463   7.049   1.532   4.309 -0.5621  0.3899 -0.2469
  138CHL1   H2516464   7.111   1.623   4.325  0.7638 -0.4355 -0.4973
  138CHL1   C2616465   6.931   1.543   4.413 -0.1263  0.0625  0.5626
  138CHL1  H26A16466   6.852   1.473   4.376 -0.3106  1.3275 -1.6444
  138CHL1  H26B16467   6.965   1.510   4.513 -2.9446 -1.3479  1.1742
  138CHL1  H26C16468   6.874   1.637   4.427 -0.6064 -0.0414 -0.5488
  138CHL1   C2716469   7.146   1.413   4.338  0.4705 -0.4801  0.1846
  138CHL1  H27A16470   7.092   1.318   4.315  2.5883 -1.7341  0.1040
  138CHL1  H27B16471   7.241   1.418   4.280  1.2090 -0.5383  1.3624
  138CHL1  H27C16472   7.176   1.409   4.444  1.2742 -1.0220 -0.0536
  139CHL1    C316473   7.532   7.209   3.261 -0.2365  0.5820 -0.1408
  139CHL1    H316474   7.518   7.318   3.277 -1.3313  0.3122  0.9751
  139CHL1    O316475   7.515   7.177   3.121  0.6408  0.1774 -0.3770
  139CHL1   H3'16476   7.579   7.240   3.087  0.3409  2.0659  2.2943
  139CHL1    C416477   7.678   7.175   3.302 -0.0883  0.0607  0.5293
  139CHL1   H4A16478   7.708   7.069   3.287  0.7809  0.1941  1.1941
  139CHL1   H4B16479   7.737   7.236   3.230 -0.5288 -0.3829 -0.2120
  139CHL1    C516480   7.699   7.202   3.448  0.4305  0.3289 -0.7051
  139CHL1    C616481   7.803   7.279   3.497  0.4395  0.0764 -0.9638
  139CHL1    H616482   7.874   7.323   3.425  0.5832  0.5872 -0.5146
  139CHL1    C716483   7.835   7.297   3.644 -0.5442  0.1430  0.2633
  139CHL1   H7A16484   7.940   7.266   3.664 -1.1810 -0.9697  2.1560
  139CHL1   H7B16485   7.822   7.401   3.680 -0.9267 -0.0315  0.6266
  139CHL1    C816486   7.756   7.198   3.728  0.4385  0.7368 -0.7321
  139CHL1    H816487   7.809   7.101   3.721 -2.5836 -1.0409 -0.9928
  139CHL1   C1416488   7.777   7.237   3.879 -0.0260  0.8074  0.4834
  139CHL1   H1416489   7.753   7.345   3.884  1.7945  1.2125  1.1177
  139CHL1   C1516490   7.920   7.224   3.942  0.1026  0.1160 -0.1139
  139CHL1  H15A16491   7.957   7.123   3.913  1.6257 -0.2969  2.9016
  139CHL1  H15B16492   7.987   7.306   3.909 -0.4473  0.5370 -0.1780
  139CHL1   C1616493   7.897   7.237   4.097  0.7615  0.5428  0.2381
  139CHL1  H16A16494   7.953   7.151   4.141  0.0082 -0.0431  0.0729
  139CHL1  H16B16495   7.937   7.329   4.143 -2.4876  2.7611 -1.0050
  139CHL1   C1716496   7.743   7.231   4.116  0.9251  0.9083 -0.0171
  139CHL1   H1716497   7.700   7.333   4.129 -2.2575 -0.0307 -1.9519
  139CHL1   C1316498   7.688   7.173   3.982  0.4643 -0.1947  0.2015
  139CHL1   C1816499   7.720   7.019   3.972 -0.5575 -0.0140 -0.6971
  139CHL1  H18A16500   7.719   6.973   3.871 -0.1003 -0.8390 -0.3351
  139CHL1  H18B16501   7.813   6.981   4.019  1.5818 -0.1719 -4.6882
  139CHL1  H18C16502   7.639   6.967   4.028  0.6980 -0.4549  0.7512
  139CHL1   C1216503   7.541   7.193   3.940  0.5627  0.5349 -0.1399
  139CHL1  H12A16504   7.479   7.135   4.011  1.8543 -0.0619  0.5292
  139CHL1  H12B16505   7.526   7.304   3.943  0.5721  0.5755 -1.1297
  139CHL1   C1116506   7.514   7.132   3.798  0.0304  0.1564 -0.8337
  139CHL1  H11A16507   7.538   7.024   3.795 -3.2913 -0.7013 -0.1908
  139CHL1  H11B16508   7.409   7.152   3.769  0.2490  0.5442 -1.3739
  139CHL1    C916509   7.607   7.201   3.696 -0.6521  0.3046  0.0198
  139CHL1    H916510   7.565   7.304   3.692 -3.0437 -0.6552 -1.6240
  139CHL1   C1016511   7.587   7.146   3.547 -0.6800 -0.5937 -0.4876
  139CHL1   C1916512   7.605   6.986   3.551 -0.1638 -0.5208  0.1197
  139CHL1  H19A16513   7.526   6.935   3.609 -0.3229 -0.0224  0.3488
  139CHL1  H19B16514   7.608   6.938   3.451 -1.5803 -0.1050 -0.1365
  139CHL1  H19C16515   7.700   6.959   3.601  1.0145  0.3784 -1.5247
  139CHL1    C116516   7.445   7.179   3.491 -0.4598 -0.2251 -0.8073
  139CHL1   H1A16517   7.364   7.125   3.545  0.3486 -1.6547 -0.9755
  139CHL1   H1B16518   7.435   7.289   3.500 -0.7763 -0.3161  0.1190
  139CHL1    C216519   7.425   7.137   3.347 -0.4616 -0.0849  0.0057
  139CHL1   H2A16520   7.319   7.138   3.314 -0.6809  2.8231  0.5142
  139CHL1   H2B16521   7.463   7.034   3.333  3.9894  1.5953 -2.2391
  139CHL1   C2016522   7.715   7.155   4.245 -0.1906 -0.6487 -0.4060
  139CHL1   H2016523   7.748   7.049   4.243  2.2410  0.0311  0.4607
  139CHL1   C2116524   7.563   7.177   4.278  0.1145 -0.0585 -0.0158
  139CHL1  H21A16525   7.545   7.142   4.381  2.3631 -3.1024 -0.5076
  139CHL1  H21B16526   7.495   7.122   4.210  1.3633  1.2505 -2.4741
  139CHL1  H21C16527   7.541   7.286   4.272 -0.1793 -0.1995 -2.3820
  139CHL1   C2216528   7.803   7.211   4.359 -0.7914  0.1672  0.7355
  139CHL1  H22A16529   7.909   7.190   4.336 -1.5079 -2.3265 -0.6503
  139CHL1  H22B16530   7.786   7.319   4.378  1.6226  0.6197  0.5906
  139CHL1   C2316531   7.772   7.146   4.497  0.2012 -0.0236  0.5856
  139CHL1  H23A16532   7.859   7.157   4.566  0.7491 -2.9138  0.4737
  139CHL1  H23B16533   7.692   7.209   4.540  1.4881  1.4726  0.9256
  139CHL1   C2416534   7.740   6.994   4.493  0.8669  0.7526 -0.1443
  139CHL1  H24A16535   7.652   6.970   4.430 -0.5324  0.5871  1.7600
  139CHL1  H24B16536   7.823   6.936   4.449  0.7301 -1.3712  2.2006
  139CHL1   C2516537   7.690   6.935   4.625  0.2184 -0.7158 -0.0117
  139CHL1   H2516538   7.773   6.936   4.698 -0.6921  0.0314  1.0473
  139CHL1   C2616539   7.562   7.009   4.680 -0.7567 -0.6252 -0.4833
  139CHL1  H26A16540   7.530   6.976   4.781  0.1289 -0.0921 -0.0182
  139CHL1  H26B16541   7.577   7.119   4.689 -0.2461 -0.4556 -2.8765
  139CHL1  H26C16542   7.484   6.994   4.603 -0.8343  0.6305 -0.6827
  139CHL1   C2716543   7.667   6.789   4.606  0.9158  0.9017  0.4969
  139CHL1  H27A16544   7.591   6.757   4.532 -1.1812 -0.3822  3.0402
  139CHL1  H27B16545   7.754   6.727   4.574 -0.2930 -1.1363  0.9855
  139CHL1  H27C16546   7.644   6.740   4.703 -2.0879  0.7678 -0.2034
  140CHL1    C316547   0.208   0.354   3.307  0.4622  0.2547 -0.0106
  140CHL1    H316548   0.176   0.252   3.335 -0.6108  0.4384 -0.5193
  140CHL1    O316549   0.212   0.369   3.164  0.4927 -0.1848 -0.0241
  140CHL1   H3'16550   0.239   0.459   3.145 -1.5754  0.3974 -0.5338
  140CHL1    C416551   0.109   0.453   3.369 -0.1811  0.1123  0.3918
  140CHL1   H4A16552   0.131   0.551   3.321 -0.5492  0.5015  0.9842
  140CHL1   H4B16553   0.004   0.435   3.337  0.1619 -0.2348 -0.5401
  140CHL1    C516554   0.126   0.459   3.521 -0.0495 -0.6798  0.2821
  140CHL1    C616555   0.013   0.441   3.592  0.1428 -1.0735 -0.0667
  140CHL1    H616556  -0.083   0.438   3.539 -0.0496  0.5520  0.1579
  140CHL1    C716557   0.009   0.428   3.738  0.0742 -0.0289  0.0475
  140CHL1   H7A16558  -0.078   0.480   3.784 -1.0759 -2.2729  0.6053
  140CHL1   H7B16559   0.012   0.322   3.771  4.0018  0.7780  3.0348
  140CHL1    C816560   0.133   0.491   3.804 -0.1524  0.0810 -0.1071
  140CHL1    H816561   0.128   0.602   3.801 -0.9824  0.0424 -0.6151
  140CHL1   C1416562   0.138   0.438   3.948 -0.3443 -0.2257 -0.2712
  140CHL1   H1416563   0.134   0.328   3.933  2.0676 -0.3370 -0.4585
  140CHL1   C1516564   0.018   0.467   4.036  0.9723 -0.0616 -0.1404
  140CHL1  H15A16565  -0.025   0.568   4.019  0.3963 -0.3619 -0.5335
  140CHL1  H15B16566  -0.055   0.389   4.004  1.9671 -1.5787  1.1529
  140CHL1   C1616567   0.069   0.463   4.178 -0.5981  0.0554 -0.3851
  140CHL1  H16A16568   0.048   0.562   4.223 -0.9255  0.6289 -1.7666
  140CHL1  H16B16569   0.011   0.390   4.239 -1.1085 -0.1239 -1.0737
  140CHL1   C1716570   0.223   0.432   4.166  0.8073  0.0539 -0.0242
  140CHL1   H1716571   0.232   0.323   4.147  1.1564 -0.5627  3.2256
  140CHL1   C1316572   0.256   0.489   4.028 -0.4407  0.0926 -0.3935
  140CHL1   C1816573   0.249   0.642   4.037 -0.7779 -0.2571  0.2565
  140CHL1  H18A16574   0.164   0.679   4.097 -1.2560 -1.6561  0.4715
  140CHL1  H18B16575   0.340   0.678   4.090 -0.6707  0.7115 -0.5414
  140CHL1  H18C16576   0.254   0.689   3.936  0.5000 -0.3386  0.2640
  140CHL1   C1216577   0.380   0.435   3.962 -0.2434  1.5232 -0.0417
  140CHL1  H12A16578   0.460   0.473   4.029  1.1516 -0.4959 -0.4601
  140CHL1  H12B16579   0.366   0.326   3.973 -1.6944  1.5801 -0.9935
  140CHL1   C1116580   0.387   0.479   3.817  0.4706 -0.6484 -0.1402
  140CHL1  H11A16581   0.398   0.589   3.816 -2.5034 -0.2093  2.2048
  140CHL1  H11B16582   0.481   0.432   3.780  1.5926 -0.6708  2.4836
  140CHL1    C916583   0.262   0.444   3.734  0.7287  0.5927  0.7051
  140CHL1    H916584   0.251   0.333   3.733  1.6976  0.4875  0.8057
  140CHL1   C1016585   0.264   0.477   3.579 -0.0812  0.5390 -0.2393
  140CHL1   C1916586   0.296   0.625   3.564 -0.2839  0.0783  0.2927
  140CHL1  H19A16587   0.261   0.687   3.649 -0.2231 -0.8331  0.9893
  140CHL1  H19B16588   0.407   0.635   3.564 -0.3840  1.4722  0.3376
  140CHL1  H19C16589   0.272   0.653   3.459  2.1320  0.0378 -0.3369
  140CHL1    C116590   0.363   0.385   3.511 -0.4733 -0.5559  0.1371
  140CHL1   H1A16591   0.468   0.414   3.534 -0.1714 -1.4348 -0.0926
  140CHL1   H1B16592   0.343   0.279   3.540  2.0233 -0.9265  0.7661
  140CHL1    C216593   0.346   0.381   3.354  0.3796 -0.2022  0.2056
  140CHL1   H2A16594   0.407   0.293   3.322 -0.8757 -0.4630 -1.5928
  140CHL1   H2B16595   0.374   0.475   3.303 -0.3531 -0.7601 -1.2915
  140CHL1   C2016596   0.298   0.457   4.302  0.3434 -0.5954  0.6746
  140CHL1   H2016597   0.267   0.379   4.375 -0.3243 -1.4463 -0.4822
  140CHL1   C2116598   0.282   0.594   4.369  0.1970  0.8727 -0.1291
  140CHL1  H21A16599   0.181   0.599   4.416 -0.3553  0.8897 -1.2871
  140CHL1  H21B16600   0.301   0.680   4.301 -2.7754  1.4222 -0.3964
  140CHL1  H21C16601   0.361   0.615   4.445 -1.6688 -0.9543  2.5268
  140CHL1   C2216602   0.449   0.424   4.287 -0.3066  0.6617 -0.2859
  140CHL1  H22A16603   0.464   0.331   4.229 -0.4113  1.6575 -1.9682
  140CHL1  H22B16604   0.498   0.503   4.227 -1.3735  0.8281 -0.9674
  140CHL1   C2316605   0.521   0.397   4.425 -0.5926 -0.0322 -0.7609
  140CHL1  H23A16606   0.513   0.484   4.494  1.0756 -0.2839 -0.2196
  140CHL1  H23B16607   0.478   0.315   4.487  1.3206 -0.0393  0.6500
  140CHL1   C2416608   0.664   0.350   4.395  0.5277  0.3252 -0.0762
  140CHL1  H24A16609   0.643   0.250   4.349  0.4706  0.5620 -0.5759
  140CHL1  H24B16610   0.714   0.427   4.332  0.5553 -0.4354 -1.0172
  140CHL1   C2516611   0.760   0.324   4.516  0.3409  0.1733  0.5475
  140CHL1   H2516612   0.764   0.413   4.582  1.6395  0.5951 -0.0679
  140CHL1   C2616613   0.908   0.311   4.470 -0.0521  0.1001  0.0348
  140CHL1  H26A16614   0.944   0.406   4.425 -1.0586  0.8813  0.8311
  140CHL1  H26B16615   0.972   0.285   4.556  0.1807  1.1182  0.1839
  140CHL1  H26C16616   0.918   0.233   4.391 -2.5776 -1.6789  1.3272
  140CHL1   C2716617   0.726   0.195   4.597 -0.3255 -0.6788 -0.2647
  140CHL1  H27A16618   0.621   0.208   4.630 -0.0299  1.5347 -0.0194
  140CHL1  H27B16619   0.741   0.113   4.523  2.9562  0.4014 -0.9516
  140CHL1  H27C16620   0.794   0.188   4.684 -2.0500  1.2476  1.3276
  141DOPC     N16621   2.880   3.175   6.995 -0.8937  0.3276 -0.6801
  141DOPC   C1216622   2.881   3.325   7.009  0.5908 -0.6117  0.1408
  141DOPC  H12A16623   2.801   3.361   7.072 -1.2857 -1.2638 -1.7703
  141DOPC  H12B16624   2.846   3.358   6.913 -1.5111  0.8534  1.3179
  141DOPC   C1316625   2.944   3.142   6.862  0.4201 -0.4098  0.0541
  141DOPC  H13A16626   3.047   3.172   6.867 -0.3445  2.2187  2.7930
  141DOPC  H13B16627   2.936   3.037   6.840  0.4754 -0.1448 -1.3357
  141DOPC  H13C16628   2.896   3.196   6.781  2.1843  2.8908  1.0141
  141DOPC   C1416629   2.737   3.118   6.988  0.0785 -0.0870  0.1131
  141DOPC  H14A16630   2.675   3.169   7.060  1.0393  2.2817 -0.6190
  141DOPC  H14B16631   2.694   3.134   6.890 -0.5586 -0.2058  0.3716
  141DOPC  H14C16632   2.737   3.015   7.020  0.0468  0.3943  1.7595
  141DOPC   C1516633   2.960   3.116   7.106 -0.0668 -0.4980 -0.2436
  141DOPC  H15A16634   3.060   3.154   7.104  0.8614 -2.6103  1.4784
  141DOPC  H15B16635   2.969   3.008   7.096  1.6968 -0.2940 -1.1753
  141DOPC  H15C16636   2.911   3.138   7.200 -1.3455  0.4334 -1.0901
  141DOPC   C1116637   3.015   3.385   7.049  0.0567  0.2595 -0.6778
  141DOPC  H11A16638   3.012   3.496   7.050  1.3108  0.3219  1.0385
  141DOPC  H11B16639   3.045   3.358   7.152  2.7880  1.8497 -0.9405
  141DOPC     P16640   3.185   3.399   6.839  0.0786  0.2551 -0.3156
  141DOPC   O1316641   3.233   3.288   6.752 -0.1691  0.5634  0.0430
  141DOPC   O1416642   3.280   3.500   6.879  0.3644 -0.4993 -0.2411
  141DOPC   O1216643   3.129   3.336   6.970  0.5335 -0.0616  0.1368
  141DOPC   O1116644   3.060   3.475   6.777  0.1861  0.4003 -0.0128
  141DOPC    C116645   3.028   3.450   6.641 -0.3470  0.2519  1.2957
  141DOPC    HA16646   2.929   3.493   6.614  0.2532 -0.5263 -2.9191
  141DOPC    HB16647   3.010   3.342   6.622 -0.2841  0.4337  0.0722
  141DOPC    C216648   3.127   3.509   6.532 -0.3967  0.2976  0.0197
  141DOPC    HS16649   3.215   3.441   6.528 -0.9634 -0.3997 -0.9778
  141DOPC   O2116650   3.160   3.646   6.566 -0.6548  0.4428  0.4231
  141DOPC   C2116651   3.283   3.681   6.540 -0.1019 -0.3363 -0.5921
  141DOPC   O2216652   3.368   3.616   6.482 -0.2747  0.6845  0.3615
  141DOPC   C2216653   3.302   3.824   6.583 -0.2255  0.8714  0.0855
  141DOPC   H2R16654   3.408   3.852   6.570  0.0784 -0.6777 -1.1408
  141DOPC   H2S16655   3.262   3.829   6.687 -2.5713 -0.0702 -0.6922
  141DOPC    C316656   3.061   3.492   6.394  0.1929 -0.0125  0.2256
  141DOPC    HX16657   2.982   3.570   6.395  1.1273  1.0617 -2.0820
  141DOPC    HY16658   3.004   3.397   6.387  3.2868 -1.9515 -0.8042
  141DOPC   O3116659   3.140   3.525   6.279 -0.2979  0.2876 -0.2159
  141DOPC   C3116660   3.224   3.425   6.258  0.6346  0.5990 -0.0358
  141DOPC   O3216661   3.216   3.310   6.313 -0.1762 -0.1510 -0.7113
  141DOPC   C3216662   3.327   3.463   6.151  1.0252 -0.1260 -0.3207
  141DOPC   H2X16663   3.424   3.415   6.170  1.8298  1.1882 -0.9192
  141DOPC   H2Y16664   3.296   3.403   6.062 -0.9155  0.0158  0.2027
  141DOPC   C2316665   3.220   3.922   6.494 -0.4279 -0.1177  0.2973
  141DOPC   H3R16666   3.261   4.024   6.507  0.4201 -0.6563  2.1621
  141DOPC   H3S16667   3.110   3.923   6.506 -0.6893 -1.0825 -1.5389
  141DOPC   C2416668   3.244   3.885   6.342  0.2016  0.6013 -0.0928
  141DOPC   H4R16669   3.194   3.789   6.320  1.8023 -0.4456  0.6391
  141DOPC   H4S16670   3.353   3.867   6.327 -0.4253 -2.1679 -2.0505
  141DOPC   C2516671   3.215   3.999   6.243 -0.4577 -0.8395  0.4456
  141DOPC   H5R16672   3.278   4.089   6.258 -1.0987 -0.0718 -1.2237
  141DOPC   H5S16673   3.110   4.029   6.265 -0.4911 -0.8945  0.3609
  141DOPC   C2616674   3.226   3.964   6.096 -0.1519 -0.1213  0.3717
  141DOPC   H6R16675   3.160   3.878   6.071  0.0365  0.1852 -1.3052
  141DOPC   H6S16676   3.331   3.930   6.086  0.1503  0.9197 -0.1842
  141DOPC   C2716677   3.200   4.075   5.996 -0.4237 -0.0648 -0.6051
  141DOPC   H7R16678   3.280   4.152   6.003  1.6530 -2.1634  0.1667
  141DOPC   H7S16679   3.107   4.128   6.027 -1.1372  0.9914 -4.1725
  141DOPC   C2816680   3.159   4.019   5.859  0.0378 -0.1142  0.2496
  141DOPC   H8R16681   3.235   3.944   5.829 -0.2839 -0.0792 -0.6817
  141DOPC   H8S16682   3.184   4.108   5.798  0.4494  0.7202  1.5934
  141DOPC   C2916683   3.029   3.953   5.822  0.0135 -0.0714  0.2609
  141DOPC   H9R16684   2.985   3.901   5.909  1.5378  0.3871  1.3395
  141DOPC  C21016685   2.967   3.945   5.700  0.0994  0.2311 -0.3213
  141DOPC  H10R16686   2.877   3.881   5.696 -0.8865  1.4909  0.6777
  141DOPC  C21116687   3.016   4.004   5.574 -0.3321  1.2240 -0.3077
  141DOPC  H11R16688   3.012   3.931   5.490 -1.2352  0.8418  0.0474
  141DOPC  H11S16689   3.124   4.025   5.588 -0.5312  1.3235  1.2592
  141DOPC  C21216690   2.943   4.141   5.549  0.0320  0.1471 -0.0946
  141DOPC  H12R16691   2.971   4.209   5.633 -2.4017  0.9220  0.1873
  141DOPC  H12S16692   2.832   4.134   5.545  0.1228 -0.9031 -2.8320
  141DOPC  C21316693   2.973   4.215   5.416  0.5380 -0.0552 -0.3829
  141DOPC  H13R16694   3.084   4.209   5.409  0.6220  0.8835  0.0588
  141DOPC  H13S16695   2.939   4.320   5.417  0.9901  0.1031 -1.1259
  141DOPC  C21416696   2.927   4.146   5.288  0.2083  0.5626  0.5662
  141DOPC  H14R16697   2.817   4.144   5.298  0.0145 -0.1259 -1.4030
  141DOPC  H14S16698   2.966   4.043   5.277  0.8656  1.0178 -1.9343
  141DOPC  C21516699   2.965   4.220   5.161  0.2099  0.5814 -0.1820
  141DOPC  H15R16700   3.074   4.240   5.165  0.4359 -0.4229 -0.9230
  141DOPC  H15S16701   2.923   4.323   5.167 -0.4653  0.2254  3.3580
  141DOPC  C21616702   2.922   4.160   5.026 -0.0115  0.2686 -0.1115
  141DOPC  H16R16703   2.978   4.214   4.946  0.8028 -0.5075 -0.0774
  141DOPC  H16S16704   2.812   4.168   5.017  0.0545 -0.4316 -2.1468
  141DOPC  C21716705   2.955   4.012   5.020  0.5118 -0.1288  0.6268
  141DOPC  H17R16706   2.879   3.954   5.076 -0.2164 -0.1039 -0.3132
  141DOPC  H17S16707   3.050   3.998   5.078  0.3944 -0.8746  0.6461
  141DOPC  C21816708   2.957   3.953   4.881 -0.1936  0.0696 -0.3534
  141DOPC  H18R16709   2.930   3.846   4.872 -0.4959 -0.1002  2.0269
  141DOPC  H18S16710   3.061   3.953   4.843 -0.2582 -1.2171 -0.5841
  141DOPC  H18T16711   2.882   4.008   4.821 -1.1973  0.0873  0.8669
  141DOPC   C3316712   3.354   3.618   6.125  0.2770  0.5548  0.1422
  141DOPC   H3X16713   3.417   3.667   6.202 -0.8784  0.7552  0.9889
  141DOPC   H3Y16714   3.255   3.670   6.129  0.5184  0.9582  0.9740
  141DOPC   C3416715   3.419   3.638   5.986  0.1339 -0.0361  0.6943
  141DOPC   H4X16716   3.500   3.565   5.964 -0.7523 -0.4763 -1.2514
  141DOPC   H4Y16717   3.463   3.739   5.979  1.1791 -0.4740  0.8026
  141DOPC   C3516718   3.313   3.620   5.870 -0.4875  0.3259  0.6202
  141DOPC   H5X16719   3.234   3.698   5.878 -1.7150 -0.8998  0.8742
  141DOPC   H5Y16720   3.251   3.528   5.861  1.3625 -0.7282 -3.5929
  141DOPC   C3616721   3.381   3.628   5.732 -0.2649 -0.3768 -0.4166
  141DOPC   H6X16722   3.434   3.725   5.718  0.9290 -0.9960 -0.3095
  141DOPC   H6Y16723   3.458   3.550   5.717  0.4423  0.1746  0.2392
  141DOPC   C3716724   3.286   3.602   5.614 -0.0399  0.0878 -0.4048
  141DOPC   H7X16725   3.224   3.510   5.618  2.0747 -1.3854  0.3275
  141DOPC   H7Y16726   3.212   3.685   5.608 -1.9682 -1.4636  0.8476
  141DOPC   C3816727   3.359   3.592   5.484  0.2496  0.0417 -0.2922
  141DOPC   H8X16728   3.297   3.537   5.410 -1.0407  0.8501  0.1478
  141DOPC   H8Y16729   3.450   3.530   5.493 -0.0329 -0.5295 -1.2565
  141DOPC   C3916730   3.399   3.730   5.439 -0.1275 -0.5703 -0.0713
  141DOPC   H9X16731   3.479   3.770   5.502 -0.6911 -0.4396  0.5711
  141DOPC  C31016732   3.353   3.802   5.331  0.4100  0.3170 -0.2342
  141DOPC  H10X16733   3.411   3.890   5.302 -1.3737  1.1971 -1.3045
  141DOPC  C31116734   3.249   3.765   5.235  0.6926  0.5290 -0.1960
  141DOPC  H11X16735   3.165   3.838   5.224 -0.0433 -0.5786 -2.4544
  141DOPC  H11Y16736   3.188   3.681   5.275  0.2531  1.3611  0.9581
  141DOPC  C31216737   3.294   3.716   5.101 -0.4044 -0.5481  0.2769
  141DOPC  H12X16738   3.355   3.624   5.111 -0.4123 -0.8131 -1.6474
  141DOPC  H12Y16739   3.363   3.786   5.049  0.6737 -0.9874  1.0691
  141DOPC  C31316740   3.181   3.672   5.010 -0.1521  0.4031 -0.1678
  141DOPC  H13X16741   3.117   3.597   5.059 -0.7051  1.3777  0.6248
  141DOPC  H13Y16742   3.120   3.757   4.973 -0.8314  0.2723  0.6408
  141DOPC  C31416743   3.236   3.602   4.881  0.1071 -0.1347  0.0096
  141DOPC  H14X16744   3.323   3.657   4.839 -1.1255  2.5208  0.7710
  141DOPC  H14Y16745   3.268   3.502   4.918 -0.1974  0.3494  1.6652
  141DOPC  C31516746   3.127   3.588   4.774 -0.0853 -0.5286  0.1325
  141DOPC  H15X16747   3.166   3.543   4.680  0.1780  0.7767 -0.4092
  141DOPC  H15Y16748   3.120   3.694   4.742 -0.2057 -0.5294  0.1547
  141DOPC  C31616749   2.990   3.530   4.814 -0.4467 -0.0965 -0.4090
  141DOPC  H16X16750   3.006   3.420   4.824  1.7361  0.1865 -0.3103
  141DOPC  H16Y16751   2.958   3.575   4.911  0.3083 -0.3718 -0.0205
  141DOPC  C31716752   2.891   3.534   4.699 -0.3376  0.1200 -0.0035
  141DOPC  H17X16753   2.798   3.491   4.741 -0.4047 -1.2255 -1.4574
  141DOPC  H17Y16754   2.864   3.641   4.689 -0.8873 -0.2190 -2.6537
  141DOPC  C31816755   2.929   3.471   4.567  0.0895 -0.4237  1.0465
  141DOPC  H18X16756   2.840   3.450   4.503  0.4064  1.1077  0.0463
  141DOPC  H18Y16757   3.002   3.513   4.495 -0.0714  0.0872  1.1782
  141DOPC  H18Z16758   2.970   3.369   4.586 -0.1141 -0.7821 -0.3366
  142DOPC     N16759   3.706   4.161   7.045 -0.5674  0.2243  0.0682
  142DOPC   C1216760   3.823   4.158   6.939  0.0344  0.1428  0.4638
  142DOPC  H12A16761   3.911   4.197   6.988  0.0495 -0.6685  1.1036
  142DOPC  H12B16762   3.792   4.218   6.856 -1.5445 -1.6339 -0.3067
  142DOPC   C1316763   3.592   4.074   6.995 -0.6445 -0.0434  0.6503
  142DOPC  H13A16764   3.629   3.974   6.982 -2.4679 -0.6664 -0.0294
  142DOPC  H13B16765   3.506   4.070   7.060  0.2226 -0.7719  1.7964
  142DOPC  H13C16766   3.556   4.115   6.902 -0.0789 -0.3141  0.3075
  142DOPC   C1416767   3.659   4.299   7.070 -0.1701 -0.8444 -0.2614
  142DOPC  H14A16768   3.724   4.351   7.139  1.7724 -0.9313 -1.9545
  142DOPC  H14B16769   3.649   4.356   6.978 -1.5820 -1.2589 -0.3958
  142DOPC  H14C16770   3.559   4.305   7.110  0.0923  1.3040  0.1956
  142DOPC   C1516771   3.756   4.097   7.169  0.4462 -0.4399  0.1244
  142DOPC  H15A16772   3.687   4.092   7.252  1.1605  1.9071  0.9476
  142DOPC  H15B16773   3.846   4.144   7.207 -0.2137  0.9880 -0.0279
  142DOPC  H15C16774   3.792   3.996   7.152 -0.5412 -0.7667 -0.0566
  142DOPC   C1116775   3.881   4.024   6.888 -0.0748 -0.0906 -0.6606
  142DOPC  H11A16776   3.804   3.950   6.861  2.1709 -2.5103 -0.8193
  142DOPC  H11B16777   3.948   4.050   6.803  0.3700 -1.6031 -0.7965
  142DOPC     P16778   4.121   3.960   6.998 -0.1473  0.1677  0.2773
  142DOPC   O1316779   4.155   3.837   7.075  0.3751 -0.0884  0.4576
  142DOPC   O1416780   4.179   4.086   7.055  0.0294 -0.2512  0.1856
  142DOPC   O1216781   3.963   3.970   6.993  0.3078  0.1608 -0.2693
  142DOPC   O1116782   4.177   3.951   6.851  0.1773 -0.6236  0.4447
  142DOPC    C116783   4.132   3.854   6.753 -0.2537 -0.3232  0.4301
  142DOPC    HA16784   4.028   3.820   6.772 -0.6442  0.4457 -0.2852
  142DOPC    HB16785   4.192   3.761   6.755  1.4006  0.7041  1.1335
  142DOPC    C216786   4.134   3.913   6.608 -0.2362  0.0214 -0.3314
  142DOPC    HS16787   4.087   4.013   6.605  0.4580  0.4097  1.1000
  142DOPC   O2116788   4.068   3.816   6.529 -0.7990  0.6553  0.0887
  142DOPC   C2116789   3.937   3.833   6.513 -0.6920 -0.1070  0.2143
  142DOPC   O2216790   3.867   3.907   6.581  0.3908 -0.6822 -0.3747
  142DOPC   C2216791   3.886   3.737   6.404  0.1518 -0.5236 -0.3729
  142DOPC   H2R16792   3.915   3.635   6.437  0.0805 -0.6975 -0.8413
  142DOPC   H2S16793   3.959   3.762   6.323  2.0384 -0.3425  1.2917
  142DOPC    C316794   4.284   3.935   6.550 -0.4594  0.2211 -0.1842
  142DOPC    HX16795   4.343   3.842   6.568  0.9569  1.5230  2.4057
  142DOPC    HY16796   4.327   4.015   6.614 -2.1895 -0.5466  2.1115
  142DOPC   O3116797   4.282   3.986   6.416  0.0316  0.1498  0.0724
  142DOPC   C3116798   4.311   3.900   6.317 -0.0662 -0.4401 -0.3391
  142DOPC   O3216799   4.341   3.784   6.326 -0.0578  0.2643 -0.0507
  142DOPC   C3216800   4.305   3.976   6.185 -0.3613  0.0121 -0.0483
  142DOPC   H2X16801   4.205   4.018   6.161 -0.5343 -0.3235  0.0694
  142DOPC   H2Y16802   4.377   4.061   6.188 -0.5689  0.1776  2.3214
  142DOPC   C2316803   3.739   3.741   6.366  0.2842  0.3773 -0.2305
  142DOPC   H3R16804   3.682   3.743   6.461  2.3951 -1.7025  1.2192
  142DOPC   H3S16805   3.719   3.649   6.307 -1.2920 -0.5469  1.6361
  142DOPC   C2416806   3.717   3.863   6.277  0.5294  0.0394 -0.0116
  142DOPC   H4R16807   3.768   3.950   6.323  1.5129 -0.1127 -0.7861
  142DOPC   H4S16808   3.610   3.893   6.273  1.3699  3.4196 -3.6582
  142DOPC   C2516809   3.755   3.854   6.131 -0.2247  0.0106  0.1702
  142DOPC   H5R16810   3.705   3.761   6.096 -0.4494  0.6392 -1.2662
  142DOPC   H5S16811   3.865   3.838   6.119  0.1286  1.1780  1.5713
  142DOPC   C2616812   3.714   3.971   6.043 -0.6567  0.2685  0.1714
  142DOPC   H6R16813   3.768   4.061   6.079  0.8684 -0.7475  0.5108
  142DOPC   H6S16814   3.607   3.998   6.055 -1.1753 -1.7003  0.3891
  142DOPC   C2716815   3.756   3.944   5.900  0.1554  0.3912 -0.1023
  142DOPC   H7R16816   3.690   3.863   5.864  0.6698 -0.2046  0.2817
  142DOPC   H7S16817   3.865   3.920   5.898  0.4615  1.5465  1.1637
  142DOPC   C2816818   3.720   4.061   5.805 -0.1504  0.9409 -0.0268
  142DOPC   H8R16819   3.741   4.162   5.848 -1.8169  1.8737 -1.2603
  142DOPC   H8S16820   3.609   4.056   5.798 -0.3284  2.1067  1.3088
  142DOPC   C2916821   3.784   4.059   5.670  0.3537  0.5686  0.9727
  142DOPC   H9R16822   3.892   4.039   5.672  0.4079  0.9121  1.7545
  142DOPC  C21016823   3.727   4.059   5.546  0.1086 -0.2000  0.2236
  142DOPC  H10R16824   3.796   4.068   5.461  0.6564  1.7783  0.8147
  142DOPC  C21116825   3.578   4.086   5.512  0.0870 -0.0847  0.0817
  142DOPC  H11R16826   3.528   4.150   5.588  0.1453 -2.5809  2.3510
  142DOPC  H11S16827   3.515   3.995   5.513 -1.1360  0.6868 -1.3157
  142DOPC  C21216828   3.555   4.168   5.382 -0.0446  0.3008  0.2655
  142DOPC  H12R16829   3.595   4.105   5.300  0.0076 -0.2603  0.7091
  142DOPC  H12S16830   3.606   4.266   5.378 -0.3109  0.4298 -0.0136
  142DOPC  C21316831   3.406   4.193   5.343  0.1184 -0.4552 -0.3831
  142DOPC  H13R16832   3.348   4.245   5.422  0.6261 -0.4189 -0.0345
  142DOPC  H13S16833   3.355   4.094   5.340 -3.2914  1.0606  1.7069
  142DOPC  C21416834   3.396   4.271   5.206  0.1528 -0.2408  0.0842
  142DOPC  H14R16835   3.458   4.362   5.219  0.5670 -0.3672 -0.9368
  142DOPC  H14S16836   3.290   4.303   5.194  0.2467 -0.7289 -2.8954
  142DOPC  C21516837   3.420   4.181   5.086 -0.2846  0.3870  0.2987
  142DOPC  H15R16838   3.346   4.099   5.075  0.0931  0.0377  0.3472
  142DOPC  H15S16839   3.514   4.128   5.112 -1.1216  0.0153  2.7796
  142DOPC  C21616840   3.423   4.256   4.955  0.3581  0.2548 -0.8723
  142DOPC  H16R16841   3.478   4.352   4.953 -3.1244  2.4033 -1.0878
  142DOPC  H16S16842   3.320   4.285   4.928 -0.0066  0.1925  0.3986
  142DOPC  C21716843   3.470   4.181   4.825 -0.1321 -0.5697  0.1056
  142DOPC  H17R16844   3.399   4.103   4.790  0.3408 -0.8104 -0.3197
  142DOPC  H17S16845   3.566   4.137   4.860  0.1779  0.5429  0.6955
  142DOPC  C21816846   3.494   4.281   4.713 -0.5937 -0.2707  0.5294
  142DOPC  H18R16847   3.564   4.244   4.635 -0.8334 -1.3918  0.8407
  142DOPC  H18S16848   3.537   4.378   4.746 -2.0570  0.7578 -0.4722
  142DOPC  H18T16849   3.400   4.314   4.665 -0.6480 -1.2590 -0.0688
  142DOPC   C3316850   4.339   3.875   6.073  0.0839 -0.1499  0.5068
  142DOPC   H3X16851   4.284   3.780   6.087 -1.2588  0.5346  0.0041
  142DOPC   H3Y16852   4.448   3.854   6.085 -0.1400 -0.8167  1.5020
  142DOPC   C3416853   4.298   3.925   5.936  0.2877  0.1582 -0.8649
  142DOPC   H4X16854   4.381   3.983   5.891  0.1815  1.5705  0.6395
  142DOPC   H4Y16855   4.208   3.989   5.949  1.6786  2.2936 -1.1647
  142DOPC   C3516856   4.259   3.809   5.840  0.3026 -0.7474  0.0131
  142DOPC   H5X16857   4.159   3.823   5.794  0.2639 -1.0661 -0.0001
  142DOPC   H5Y16858   4.247   3.712   5.892  0.1988 -2.3865 -2.8811
  142DOPC   C3616859   4.361   3.790   5.723 -0.1664 -0.0483 -0.3679
  142DOPC   H6X16860   4.465   3.822   5.745 -0.4466  0.2673  0.5424
  142DOPC   H6Y16861   4.361   3.683   5.692  0.6173  0.1634 -1.1356
  142DOPC   C3716862   4.310   3.861   5.593 -0.0920 -0.2623 -0.7503
  142DOPC   H7X16863   4.352   3.797   5.511 -3.2520 -2.4719 -0.8329
  142DOPC   H7Y16864   4.203   3.834   5.587 -0.5481  1.0097  0.9863
  142DOPC   C3816865   4.331   4.015   5.601 -0.5820 -0.0518  0.4556
  142DOPC   H8X16866   4.320   4.055   5.704  1.2162  3.5154 -0.5706
  142DOPC   H8Y16867   4.253   4.051   5.531  0.4318  1.2679 -0.0341
  142DOPC   C3916868   4.469   4.041   5.545 -0.5385 -0.2048 -0.1591
  142DOPC   H9X16869   4.500   3.979   5.460  2.1896  0.8504 -0.0113
  142DOPC  C31016870   4.569   4.115   5.600 -0.7095 -0.2842 -0.1908
  142DOPC  H10X16871   4.666   4.109   5.549 -0.4309  0.5785  0.2279
  142DOPC  C31116872   4.573   4.206   5.721  0.5823 -0.3557 -0.3030
  142DOPC  H11X16873   4.476   4.244   5.758  0.0673 -3.0315  1.3288
  142DOPC  H11Y16874   4.626   4.299   5.689 -0.8041  0.2476 -0.9316
  142DOPC  C31216875   4.648   4.134   5.837 -0.2587  0.0651  0.4381
  142DOPC  H12X16876   4.746   4.090   5.808  0.1376 -0.9837  3.1051
  142DOPC  H12Y16877   4.597   4.045   5.880 -1.9365  0.4660 -0.6698
  142DOPC  C31316878   4.655   4.228   5.953  0.2996  0.1410  0.1825
  142DOPC  H13X16879   4.725   4.309   5.923  1.2247  0.0567  1.9534
  142DOPC  H13Y16880   4.556   4.270   5.984  0.8969 -0.1859  2.7848
  142DOPC  C31416881   4.723   4.172   6.077  0.4330 -0.3562  0.0659
  142DOPC  H14X16882   4.665   4.079   6.099  1.3904 -1.8798 -3.1845
  142DOPC  H14Y16883   4.824   4.141   6.042  0.2698 -1.0123  0.1518
  142DOPC  C31516884   4.722   4.283   6.181  0.1497  0.0581  0.1010
  142DOPC  H15X16885   4.627   4.341   6.175 -0.5039 -1.1652 -2.6617
  142DOPC  H15Y16886   4.817   4.341   6.170  1.2629 -1.3988  1.5055
  142DOPC  C31616887   4.737   4.231   6.321  0.4767  0.1391  0.6687
  142DOPC  H16X16888   4.832   4.175   6.329  0.1000 -0.4002  1.5576
  142DOPC  H16Y16889   4.745   4.316   6.391  3.4952  0.3800  0.1529
  142DOPC  C31716890   4.621   4.144   6.379 -0.1943  0.5372  0.6110
  142DOPC  H17X16891   4.524   4.196   6.359 -1.3451 -1.7394 -0.0055
  142DOPC  H17Y16892   4.618   4.045   6.330 -0.5051  0.1692  1.3475
  142DOPC  C31816893   4.627   4.126   6.533 -1.0369  0.1794 -0.8818
  142DOPC  H18X16894   4.581   4.033   6.572 -2.9276  0.8896 -1.2759
  142DOPC  H18Y16895   4.732   4.126   6.568 -0.6267 -1.0685 -2.0487
  142DOPC  H18Z16896   4.580   4.219   6.573 -0.7287 -0.1780  0.3479
  143DOPC     N16897   2.309   1.937   7.484 -0.5392 -0.4025 -0.0213
  143DOPC   C1216898   2.355   1.958   7.341 -0.2471  0.0631  0.5889
  143DOPC  H12A16899   2.360   1.858   7.300 -2.0345 -0.2387  1.0280
  143DOPC  H12B16900   2.453   2.002   7.350 -1.2537  2.5324  0.3088
  143DOPC   C1316901   2.197   1.852   7.470  0.2196  0.4586  0.0380
  143DOPC  H13A16902   2.148   1.835   7.565 -0.7508  3.7433  0.2828
  143DOPC  H13B16903   2.128   1.906   7.407  2.8427  2.2104 -1.5409
  143DOPC  H13C16904   2.218   1.760   7.418  2.1669  0.8193  0.1106
  143DOPC   C1416905   2.273   2.068   7.546 -0.5436 -0.0125 -0.2185
  143DOPC  H14A16906   2.221   2.134   7.479 -1.1069 -0.7386 -0.5161
  143DOPC  H14B16907   2.222   2.056   7.641  0.3607  0.5769  0.3617
  143DOPC  H14C16908   2.371   2.110   7.561 -0.2890  0.3084 -2.4509
  143DOPC   C1516909   2.418   1.865   7.567  0.0804  0.0470 -0.0333
  143DOPC  H15A16910   2.453   1.771   7.527  1.7857  0.8598 -0.5371
  143DOPC  H15B16911   2.377   1.859   7.667 -1.6811  2.9956 -0.4690
  143DOPC  H15C16912   2.506   1.926   7.579  0.2699 -0.1410 -0.4805
  143DOPC   C1116913   2.277   2.050   7.249  1.3359  0.0151  0.3302
  143DOPC  H11A16914   2.329   2.041   7.151  1.8119 -0.5105  0.6267
  143DOPC  H11B16915   2.172   2.015   7.247  1.5402 -0.5962  0.2849
  143DOPC     P16916   2.175   2.288   7.237  0.4196 -0.2117  0.2884
  143DOPC   O1316917   2.222   2.427   7.260  0.6701  0.3689  0.0886
  143DOPC   O1416918   2.050   2.252   7.310 -0.1246 -0.4941  0.1416
  143DOPC   O1216919   2.291   2.186   7.289 -0.2266  0.2964 -0.3488
  143DOPC   O1116920   2.163   2.242   7.084 -0.1198  0.0662 -0.0042
  143DOPC    C116921   2.263   2.285   6.989  0.1093  0.1534  0.3398
  143DOPC    HA16922   2.303   2.198   6.933 -1.2385 -0.0390 -0.3718
  143DOPC    HB16923   2.346   2.339   7.041 -0.9568  0.5140  1.7312
  143DOPC    C216924   2.208   2.387   6.880 -0.6932  0.5952  0.5158
  143DOPC    HS16925   2.142   2.452   6.941 -1.0564 -0.0776  0.8473
  143DOPC   O2116926   2.136   2.312   6.779 -0.2221 -0.0898 -0.0508
  143DOPC   C2116927   2.015   2.346   6.753  0.1054 -0.9357  0.0580
  143DOPC   O2216928   1.944   2.421   6.818 -0.5613 -0.4416 -0.6564
  143DOPC   C2216929   1.962   2.259   6.632  0.0220 -0.2649  0.2750
  143DOPC   H2R16930   1.861   2.224   6.663 -0.1646 -0.1057 -0.1320
  143DOPC   H2S16931   2.023   2.167   6.630  0.8792  0.2764 -2.0305
  143DOPC    C316932   2.331   2.460   6.820  0.2940  0.0401 -0.5674
  143DOPC    HX16933   2.410   2.389   6.787  1.9276  1.2273  0.6492
  143DOPC    HY16934   2.361   2.532   6.899 -1.4331  0.1222  0.0437
  143DOPC   O3116935   2.285   2.534   6.706 -0.2681 -0.1486  0.2028
  143DOPC   C3116936   2.375   2.609   6.644  0.1437 -0.2878 -1.2286
  143DOPC   O3216937   2.497   2.604   6.662 -0.0461  0.2952 -0.3215
  143DOPC   C3216938   2.305   2.708   6.548  0.2602  0.1818  0.0447
  143DOPC   H2X16939   2.258   2.635   6.478 -0.1255 -0.6344  1.1346
  143DOPC   H2Y16940   2.223   2.759   6.601  1.4528  5.0201 -2.2208
  143DOPC   C2316941   1.958   2.330   6.498 -0.2326  0.2355 -0.5400
  143DOPC   H3R16942   1.895   2.418   6.472  0.1866 -0.2347 -3.4566
  143DOPC   H3S16943   1.917   2.251   6.431 -0.8871 -1.1387  1.3925
  143DOPC   C2416944   2.098   2.381   6.447  0.1822 -0.3141 -0.2158
  143DOPC   H4R16945   2.185   2.318   6.478 -0.7349 -1.1480  0.7496
  143DOPC   H4S16946   2.110   2.479   6.498  2.1701 -0.7842  0.3415
  143DOPC   C2516947   2.096   2.432   6.298  0.4351  0.1767 -0.2867
  143DOPC   H5R16948   2.180   2.501   6.279 -0.1403  0.9712 -0.0168
  143DOPC   H5S16949   1.999   2.482   6.277 -0.2306 -1.6290 -1.7928
  143DOPC   C2616950   2.100   2.312   6.201 -0.6355 -0.1995  0.5676
  143DOPC   H6R16951   1.998   2.267   6.199 -0.1388 -1.3396 -2.0020
  143DOPC   H6S16952   2.180   2.243   6.234 -1.3232 -2.3702 -2.0024
  143DOPC   C2716953   2.100   2.365   6.055 -0.0909  0.9952  0.0886
  143DOPC   H7R16954   2.185   2.434   6.036  0.3335  0.6771  0.8109
  143DOPC   H7S16955   2.009   2.422   6.028 -0.2122  1.4526  1.4095
  143DOPC   C2816956   2.117   2.253   5.945  0.1808  1.2084 -0.1296
  143DOPC   H8R16957   2.131   2.306   5.848  1.3657 -0.9473 -1.2051
  143DOPC   H8S16958   2.018   2.203   5.945 -0.4830  2.4803  0.9304
  143DOPC   C2916959   2.237   2.158   5.970  0.0072 -0.5672  0.0170
  143DOPC   H9R16960   2.230   2.097   6.061 -0.2824 -3.0632 -1.5922
  143DOPC  C21016961   2.355   2.154   5.905 -0.0661  0.3354 -0.2645
  143DOPC  H10R16962   2.441   2.101   5.948 -0.3090 -1.1334 -1.5128
  143DOPC  C21116963   2.382   2.227   5.780 -0.0598 -0.4771 -0.1157
  143DOPC  H11R16964   2.491   2.239   5.762 -0.4691  1.2995 -1.7300
  143DOPC  H11S16965   2.355   2.332   5.806  0.7897  0.1626 -1.6727
  143DOPC  C21216966   2.303   2.189   5.655  0.6406 -0.0657 -1.3263
  143DOPC  H12R16967   2.327   2.259   5.572 -0.0916 -0.9761 -2.3265
  143DOPC  H12S16968   2.197   2.189   5.688  0.4541 -1.6182 -1.8600
  143DOPC  C21316969   2.330   2.047   5.612  0.2955  0.5389  0.8745
  143DOPC  H13R16970   2.272   1.977   5.676  1.2534 -1.9217 -0.8180
  143DOPC  H13S16971   2.438   2.023   5.620  0.4912  0.6556 -0.9791
  143DOPC  C21416972   2.291   2.031   5.458  0.4508 -0.1168 -0.8298
  143DOPC  H14R16973   2.308   1.923   5.436 -2.5597 -0.7062 -0.6249
  143DOPC  H14S16974   2.368   2.089   5.403  0.5321  1.8638  1.2026
  143DOPC  C21516975   2.149   2.076   5.413  0.2799 -0.4668 -0.7829
  143DOPC  H15R16976   2.128   2.181   5.444 -1.7082 -1.5492  1.9326
  143DOPC  H15S16977   2.073   2.018   5.469 -0.2239  0.4010 -0.5389
  143DOPC  C21616978   2.136   2.072   5.259  0.6813  1.1840 -0.0493
  143DOPC  H16R16979   2.141   1.969   5.219  0.7960  0.6626  1.2444
  143DOPC  H16S16980   2.223   2.122   5.213  1.4014 -1.8757 -2.2805
  143DOPC  C21716981   2.015   2.139   5.212 -0.0831 -0.1659  0.6517
  143DOPC  H17R16982   2.015   2.153   5.102 -2.2253  1.2736  0.7690
  143DOPC  H17S16983   2.012   2.238   5.263 -2.8045  1.2058 -1.8410
  143DOPC  C21816984   1.895   2.057   5.246 -0.2983 -0.3358 -0.1560
  143DOPC  H18R16985   1.885   2.038   5.355  2.4854 -1.0299  0.0480
  143DOPC  H18S16986   1.896   1.956   5.199  0.1017 -0.3369 -0.1493
  143DOPC  H18T16987   1.805   2.117   5.221 -0.4195 -0.0987  0.8087
  143DOPC   C3316988   2.399   2.814   6.486  0.8752  0.0930  0.2828
  143DOPC   H3X16989   2.475   2.759   6.426 -0.1077  0.2608 -1.1717
  143DOPC   H3Y16990   2.442   2.880   6.564 -0.3935 -0.0771  1.1580
  143DOPC   C3416991   2.320   2.900   6.385  0.5882  1.3678 -0.5001
  143DOPC   H4X16992   2.237   2.944   6.444  2.2995 -0.8936  4.1010
  143DOPC   H4Y16993   2.277   2.825   6.316  0.6698  0.0266  0.8416
  143DOPC   C3516994   2.398   3.009   6.318 -0.4141 -0.2547  0.3448
  143DOPC   H5X16995   2.458   3.069   6.391 -1.0266  1.1937 -0.2954
  143DOPC   H5Y16996   2.332   3.078   6.261  0.1384  0.4848  0.5753
  143DOPC   C3616997   2.512   2.958   6.224  0.0385  0.6196 -0.1441
  143DOPC   H6X16998   2.573   3.045   6.191  2.6990 -0.7441  0.9368
  143DOPC   H6Y16999   2.579   2.879   6.263 -3.1046 -2.7609 -0.9767
  143DOPC   C3717000   2.444   2.901   6.094 -0.0869  0.3141  0.6285
  143DOPC   H7X17001   2.518   2.860   6.023 -0.3511 -1.4676  1.3253
  143DOPC   H7Y17002   2.382   2.811   6.115 -1.3587 -0.0865 -3.9588
  143DOPC   C3817003   2.351   3.000   6.013  0.1341 -0.2472  0.0978
  143DOPC   H8X17004   2.418   3.087   6.000 -0.0208  0.1437  1.7031
  143DOPC   H8Y17005   2.266   3.032   6.077  1.1310  0.0894  1.2917
  143DOPC   C3917006   2.299   2.932   5.890  0.0598 -0.3284  0.5195
  143DOPC   H9X17007   2.377   2.877   5.835  0.9885  0.7484  0.7051
  143DOPC  C31017008   2.181   2.960   5.829 -0.1345 -0.1416  0.1934
  143DOPC  H10X17009   2.160   2.930   5.726  1.7673  0.3405 -0.3792
  143DOPC  C31117010   2.073   3.055   5.881 -0.4730 -0.0718 -0.7397
  143DOPC  H11X17011   2.066   3.023   5.987  0.2732 -0.3453 -0.7661
  143DOPC  H11Y17012   1.974   3.052   5.830 -0.8278  0.8844 -0.1479
  143DOPC  C31217013   2.102   3.205   5.881  0.2976  0.4717 -0.4879
  143DOPC  H12X17014   2.126   3.240   5.778  1.0287 -0.0637 -0.5103
  143DOPC  H12Y17015   2.198   3.219   5.936  1.7507 -0.3609 -2.6778
  143DOPC  C31317016   1.990   3.302   5.927  0.0387 -0.2084  0.1810
  143DOPC  H13X17017   1.941   3.258   6.016  1.8724 -1.8310  0.4572
  143DOPC  H13Y17018   2.049   3.391   5.960 -0.0937  0.3967 -1.1440
  143DOPC  C31417019   1.900   3.351   5.816  0.6833 -0.8955  0.3486
  143DOPC  H14X17020   1.848   3.441   5.855  1.8274  0.9160 -2.0060
  143DOPC  H14Y17021   1.959   3.397   5.734 -0.5019  0.7727  0.3866
  143DOPC  C31517022   1.803   3.251   5.759  0.5136  0.5088 -0.2281
  143DOPC  H15X17023   1.769   3.178   5.837  0.0475 -2.6978 -3.1702
  143DOPC  H15Y17024   1.861   3.183   5.693  1.0727 -0.3322  1.0814
  143DOPC  C31617025   1.683   3.304   5.679 -0.0203 -0.0019  0.2055
  143DOPC  H16X17026   1.678   3.415   5.682  1.1328  0.0454  1.0228
  143DOPC  H16Y17027   1.692   3.274   5.572  0.0292 -2.3495  0.8039
  143DOPC  C31717028   1.554   3.247   5.739 -0.0887 -0.2407 -0.6268
  143DOPC  H17X17029   1.577   3.140   5.754  0.0560  0.1211  2.1692
  143DOPC  H17Y17030   1.538   3.287   5.841  0.3060 -1.5230 -0.0441
  143DOPC  C31817031   1.429   3.284   5.662  0.3660 -0.6018 -0.0959
  143DOPC  H18X17032   1.437   3.393   5.643  0.2042 -0.4440  0.7182
  143DOPC  H18Y17033   1.432   3.240   5.560  0.5229  1.6400 -1.1238
  143DOPC  H18Z17034   1.338   3.260   5.721 -0.5053 -0.4198 -1.3501
  144DOPC     N17035   2.685   4.361   7.260 -0.1089 -0.8552 -0.0787
  144DOPC   C1217036   2.696   4.259   7.141  0.6050 -0.5133  0.1258
  144DOPC  H12A17037   2.626   4.177   7.150 -0.0109  0.0308  0.3560
  144DOPC  H12B17038   2.797   4.225   7.121  1.4733  2.7237 -1.7603
  144DOPC   C1317039   2.551   4.421   7.260  0.4942  0.1733 -0.2857
  144DOPC  H13A17040   2.525   4.438   7.156  0.6557 -1.5159 -0.6336
  144DOPC  H13B17041   2.485   4.342   7.296  0.4667 -1.8127 -4.1034
  144DOPC  H13C17042   2.545   4.509   7.321  0.2212 -0.1852  0.2131
  144DOPC   C1417043   2.784   4.468   7.232  0.1080 -0.1748  0.4203
  144DOPC  H14A17044   2.889   4.442   7.239  0.3504  0.4985 -0.4777
  144DOPC  H14B17045   2.762   4.501   7.132 -3.0786 -0.8270  0.7895
  144DOPC  H14C17046   2.772   4.561   7.287  0.7777  1.1951 -1.6210
  144DOPC   C1517047   2.738   4.310   7.387  0.2149 -1.0706 -0.1943
  144DOPC  H15A17048   2.701   4.212   7.413  1.2702 -1.5352 -0.3901
  144DOPC  H15B17049   2.717   4.384   7.463  0.0439 -0.8133 -0.4941
  144DOPC  H15C17050   2.846   4.308   7.391  0.2400 -0.1609 -0.1655
  144DOPC   C1117051   2.665   4.315   7.003 -0.1139 -0.0455  0.1156
  144DOPC  H11A17052   2.715   4.412   6.982 -0.9215  0.3090 -0.2154
  144DOPC  H11B17053   2.697   4.243   6.925  0.0278 -0.0783  0.2028
  144DOPC     P17054   2.429   4.215   6.949  0.0049 -0.0792 -0.6659
  144DOPC   O1317055   2.294   4.266   6.970  0.3162 -1.2504  0.1558
  144DOPC   O1417056   2.477   4.101   7.028  0.4887  0.2240  0.1789
  144DOPC   O1217057   2.525   4.332   6.987  0.5330 -0.2631 -0.3101
  144DOPC   O1117058   2.451   4.187   6.795 -0.0633  0.1380  0.1212
  144DOPC    C117059   2.451   4.295   6.700  0.1837 -0.1532 -0.8099
  144DOPC    HA17060   2.548   4.350   6.707 -0.2836  0.4987  0.8586
  144DOPC    HB17061   2.368   4.367   6.715  1.4783  0.9964  1.1637
  144DOPC    C217062   2.437   4.251   6.554 -0.1085 -0.4770  0.0807
  144DOPC    HS17063   2.333   4.213   6.550  0.4153 -1.8997 -3.6351
  144DOPC   O2117064   2.533   4.144   6.529 -0.1431  0.2234  0.0409
  144DOPC   C2117065   2.501   4.064   6.424 -0.6757  0.0568 -0.2878
  144DOPC   O2217066   2.400   4.068   6.357  0.7433  0.4266  0.0123
  144DOPC   C2217067   2.624   3.975   6.392  0.4461 -0.1512  0.0621
  144DOPC   H2R17068   2.657   3.921   6.484 -0.1638  0.5298  0.6855
  144DOPC   H2S17069   2.700   4.044   6.350  1.7981 -1.3931  0.3894
  144DOPC    C317070   2.454   4.377   6.457 -0.4526  0.3757 -0.0110
  144DOPC    HX17071   2.554   4.416   6.487 -1.4120  0.9782  2.6354
  144DOPC    HY17072   2.386   4.463   6.477  1.4815  1.8773  0.4632
  144DOPC   O3117073   2.460   4.340   6.319 -0.0827  0.4056 -0.5541
  144DOPC   C3117074   2.338   4.329   6.262 -0.2039 -0.6744  0.1138
  144DOPC   O3217075   2.237   4.332   6.327  0.3781  0.2568  0.5789
  144DOPC   C3217076   2.349   4.319   6.108 -0.1867 -0.1261  0.0609
  144DOPC   H2X17077   2.245   4.301   6.075  0.2560  0.0341 -1.5214
  144DOPC   H2Y17078   2.366   4.418   6.061 -1.7448 -0.6309 -1.6542
  144DOPC   C2317079   2.592   3.874   6.279  0.0273  0.6117 -0.2230
  144DOPC   H3R17080   2.556   3.923   6.187 -1.5232 -2.5966 -1.4882
  144DOPC   H3S17081   2.516   3.805   6.323  1.1208  0.3777  1.3701
  144DOPC   C2417082   2.723   3.807   6.227  0.4583  0.0272 -0.3938
  144DOPC   H4R17083   2.780   3.754   6.307  1.9705 -1.8329 -2.5446
  144DOPC   H4S17084   2.793   3.880   6.182  0.5388  0.0942 -0.1587
  144DOPC   C2517085   2.695   3.710   6.114 -0.0364 -0.3788 -0.0168
  144DOPC   H5R17086   2.654   3.763   6.026 -0.2885 -1.0931 -0.3434
  144DOPC   H5S17087   2.622   3.632   6.144  0.6217 -1.0018 -0.0015
  144DOPC   C2617088   2.826   3.637   6.069  0.3761 -0.0013  0.5074
  144DOPC   H6R17089   2.878   3.589   6.155  0.1522 -3.8295 -1.2456
  144DOPC   H6S17090   2.890   3.718   6.027 -0.0574 -0.0957 -0.3643
  144DOPC   C2717091   2.803   3.535   5.957  0.3900 -0.1301  0.9519
  144DOPC   H7R17092   2.747   3.579   5.872 -0.1892 -0.7730  0.9883
  144DOPC   H7S17093   2.738   3.452   5.993  2.1848 -1.1892  1.8655
  144DOPC   C2817094   2.942   3.474   5.907 -0.7121 -0.4218 -0.0854
  144DOPC   H8R17095   2.995   3.415   5.984  0.3546  0.0954 -0.4053
  144DOPC   H8S17096   3.016   3.553   5.883  0.8587 -1.7171  0.3852
  144DOPC   C2917097   2.921   3.385   5.791  0.4253  0.5398 -0.1882
  144DOPC   H9R17098   2.919   3.275   5.800 -0.1919  0.6444  1.1587
  144DOPC  C21017099   2.908   3.432   5.664 -0.3129 -0.4078  0.1622
  144DOPC  H10R17100   2.912   3.365   5.577  0.4061  0.1577 -0.2574
  144DOPC  C21117101   2.907   3.576   5.619  0.3943 -0.2559  0.6215
  144DOPC  H11R17102   2.988   3.629   5.675  0.4532 -1.7347  2.0075
  144DOPC  H11S17103   2.812   3.631   5.635  0.2193 -0.5022  0.4319
  144DOPC  C21217104   2.947   3.596   5.467  0.3629 -0.0578 -0.0080
  144DOPC  H12R17105   3.049   3.563   5.439 -0.4416 -1.2515 -1.6957
  144DOPC  H12S17106   2.949   3.703   5.438  0.6483  0.2329  1.0218
  144DOPC  C21317107   2.849   3.524   5.365 -0.0758 -0.1122 -0.2100
  144DOPC  H13R17108   2.748   3.506   5.409  0.1001 -0.3877  0.0870
  144DOPC  H13S17109   2.886   3.424   5.335 -0.0747 -0.6473  1.4582
  144DOPC  C21417110   2.855   3.609   5.233  0.4349 -0.6852  1.0578
  144DOPC  H14R17111   2.951   3.589   5.181 -0.1413 -1.3684  0.2260
  144DOPC  H14S17112   2.845   3.718   5.256 -4.0509 -0.5130 -0.6179
  144DOPC  C21517113   2.746   3.585   5.134 -0.1154  0.3325 -0.2700
  144DOPC  H15R17114   2.749   3.479   5.100 -1.6184 -0.5346  2.0154
  144DOPC  H15S17115   2.760   3.656   5.050  0.1250  0.6383  0.0240
  144DOPC  C21617116   2.605   3.626   5.189  0.0965 -0.3652  0.0324
  144DOPC  H16R17117   2.618   3.735   5.211  0.5454  0.0019 -1.8721
  144DOPC  H16S17118   2.568   3.578   5.282 -0.2066 -1.2011 -0.5202
  144DOPC  C21717119   2.494   3.617   5.076 -0.6178 -0.0288 -0.5437
  144DOPC  H17R17120   2.514   3.522   5.022 -0.4420 -0.2203 -0.1501
  144DOPC  H17S17121   2.505   3.693   4.996  3.4120  0.7577  0.5197
  144DOPC  C21817122   2.343   3.619   5.121  0.6117 -0.0635 -0.2692
  144DOPC  H18R17123   2.324   3.528   5.183  1.9127 -0.0291  0.2166
  144DOPC  H18S17124   2.280   3.615   5.030 -0.7739  0.4941  0.6321
  144DOPC  H18T17125   2.334   3.715   5.175  2.3211 -0.6444  1.1588
  144DOPC   C3317126   2.436   4.198   6.057  0.8402 -0.2650 -0.9969
  144DOPC   H3X17127   2.381   4.113   6.102 -0.2542  0.9985  0.1216
  144DOPC   H3Y17128   2.544   4.197   6.082  0.1012  2.1152  3.1585
  144DOPC   C3417129   2.430   4.166   5.907  0.3093 -0.7090  0.3210
  144DOPC   H4X17130   2.475   4.253   5.855  1.1177 -0.0826  1.9898
  144DOPC   H4Y17131   2.326   4.158   5.867  0.7659  1.0241 -1.3915
  144DOPC   C3517132   2.519   4.044   5.878 -0.1426 -0.2938  0.2447
  144DOPC   H5X17133   2.485   3.959   5.941 -0.9457 -0.0304  0.1672
  144DOPC   H5Y17134   2.625   4.071   5.900  0.0071 -0.3490 -0.3633
  144DOPC   C3617135   2.527   4.005   5.731 -0.2105 -0.0548  0.2078
  144DOPC   H6X17136   2.428   4.015   5.682  0.4233  0.5655 -0.9963
  144DOPC   H6Y17137   2.599   4.077   5.686 -0.0330 -0.1442  0.3463
  144DOPC   C3717138   2.580   3.867   5.722  0.0770  0.6211  0.7615
  144DOPC   H7X17139   2.667   3.854   5.790 -1.4130 -0.6273  2.5068
  144DOPC   H7Y17140   2.518   3.784   5.760  1.2108 -1.6049 -1.9016
  144DOPC   C3817141   2.621   3.835   5.579 -0.0588 -0.1517 -0.1206
  144DOPC   H8X17142   2.679   3.740   5.574 -0.5957 -0.5212  0.3959
  144DOPC   H8Y17143   2.684   3.919   5.544 -0.3534 -0.0560 -0.4277
  144DOPC   C3917144   2.505   3.801   5.490 -0.2597  0.6730  0.0696
  144DOPC   H9X17145   2.484   3.693   5.481  1.8539  0.2451 -0.3014
  144DOPC  C31017146   2.459   3.886   5.387  0.6907  0.6867 -0.1460
  144DOPC  H10X17147   2.381   3.842   5.323  0.7844 -2.1095  1.4562
  144DOPC  C31117148   2.499   4.027   5.347 -0.2623  0.5127  0.0251
  144DOPC  H11X17149   2.596   4.052   5.396 -0.0565 -2.3638  1.3273
  144DOPC  H11Y17150   2.425   4.101   5.383 -0.8549 -0.5106  1.0037
  144DOPC  C31217151   2.516   4.032   5.196  0.0374  0.5306  0.4018
  144DOPC  H12X17152   2.571   3.944   5.156  0.2709 -0.4908  2.7928
  144DOPC  H12Y17153   2.578   4.124   5.183 -2.1341  1.7997 -1.7986
  144DOPC  C31317154   2.388   4.057   5.116 -0.3264 -0.0292 -0.2852
  144DOPC  H13X17155   2.314   3.987   5.160 -0.4408  0.4840  0.3619
  144DOPC  H13Y17156   2.339   4.153   5.144 -2.2795 -1.9305  3.6993
  144DOPC  C31417157   2.394   4.055   4.966 -0.3765 -0.1748  0.5186
  144DOPC  H14X17158   2.419   3.949   4.945 -2.6369 -0.8529  0.9203
  144DOPC  H14Y17159   2.292   4.082   4.932  0.3464  0.1809 -1.4487
  144DOPC  C31517160   2.503   4.155   4.912 -0.0251  0.2563  0.2338
  144DOPC  H15X17161   2.609   4.128   4.935  1.0557  3.6965 -0.0703
  144DOPC  H15Y17162   2.470   4.250   4.959 -0.1378  0.6998 -0.7073
  144DOPC  C31617163   2.489   4.186   4.764 -0.2852  0.5588 -0.8269
  144DOPC  H16X17164   2.393   4.168   4.712 -0.4895 -0.0621 -0.2446
  144DOPC  H16Y17165   2.520   4.291   4.745  0.3576  0.7221  0.8771
  144DOPC  C31717166   2.597   4.110   4.693 -0.1938 -0.2760 -0.1628
  144DOPC  H17X17167   2.697   4.149   4.723 -0.2787  0.2291 -0.5278
  144DOPC  H17Y17168   2.593   4.000   4.709 -0.1809 -0.3470 -0.6394
  144DOPC  C31817169   2.569   4.118   4.544 -0.5761 -0.5601  0.0982
  144DOPC  H18X17170   2.553   4.223   4.513  0.2094 -0.7974 -1.2258
  144DOPC  H18Y17171   2.654   4.081   4.482  0.8051  2.5887 -0.0878
  144DOPC  H18Z17172   2.476   4.066   4.512 -2.3517  2.8227 -0.7196
  145DOPC     N17173   4.637   6.080   7.168  0.2125 -0.0918  0.4161
  145DOPC   C1217174   4.736   6.101   7.058 -0.4766 -0.2107 -0.3517
  145DOPC  H12A17175   4.819   6.035   7.076 -0.2158  0.0331 -0.6392
  145DOPC  H12B17176   4.774   6.202   7.061  1.0603 -0.7529 -0.6214
  145DOPC   C1317177   4.680   6.161   7.288 -0.9747  0.1045  0.0732
  145DOPC  H13A17178   4.770   6.122   7.331 -0.2506  1.4145 -0.2053
  145DOPC  H13B17179   4.694   6.265   7.261  2.8313 -0.2579  0.2456
  145DOPC  H13C17180   4.610   6.172   7.370 -0.9660 -1.7645  0.3692
  145DOPC   C1417181   4.636   5.937   7.203  0.8334  0.1869  0.8340
  145DOPC  H14A17182   4.590   5.922   7.299  1.3335  0.4262  1.1176
  145DOPC  H14B17183   4.591   5.881   7.122  0.6725  1.7282 -0.1831
  145DOPC  H14C17184   4.732   5.889   7.213 -0.3811 -2.0964  2.3672
  145DOPC   C1517185   4.498   6.130   7.132  0.6010  0.2804  0.1019
  145DOPC  H15A17186   4.497   6.235   7.107 -1.2164  0.3227  0.2830
  145DOPC  H15B17187   4.429   6.106   7.211  0.1472 -3.4233 -1.2471
  145DOPC  H15C17188   4.453   6.070   7.055  1.0205  0.2165 -0.0956
  145DOPC   C1117189   4.689   6.076   6.911 -0.2106  0.5992  0.6724
  145DOPC  H11A17190   4.597   6.128   6.878  1.1831  0.9788 -3.0234
  145DOPC  H11B17191   4.771   6.103   6.842  0.1623 -1.4217  0.2628
  145DOPC     P17192   4.545   5.861   6.840 -0.1601 -0.0143 -0.0196
  145DOPC   O1317193   4.426   5.847   6.932 -0.4669 -0.0865  0.4425
  145DOPC   O1417194   4.595   5.741   6.781  0.1228 -0.3689  0.1311
  145DOPC   O1217195   4.667   5.937   6.908 -0.4856  0.3291  0.0693
  145DOPC   O1117196   4.493   5.960   6.729 -0.7032 -0.0602  0.4349
  145DOPC    C117197   4.400   5.915   6.632  0.3221 -0.6107 -0.0298
  145DOPC    HA17198   4.305   5.896   6.687  0.4364  0.7595  0.6920
  145DOPC    HB17199   4.429   5.818   6.586 -0.8521 -0.7027 -0.6140
  145DOPC    C217200   4.384   6.023   6.519 -0.0600  0.1730  0.0873
  145DOPC    HS17201   4.334   5.972   6.433  0.9833  2.4207 -1.9760
  145DOPC   O2117202   4.504   6.082   6.475  0.1728  0.5554  0.4597
  145DOPC   C2117203   4.583   5.999   6.399  0.3823 -0.0540 -0.3763
  145DOPC   O2217204   4.566   5.884   6.383  0.2653  0.4171 -0.4392
  145DOPC   C2217205   4.699   6.078   6.333  0.0792  0.7064  0.3098
  145DOPC   H2R17206   4.765   6.096   6.421  0.8477  2.1871 -0.5483
  145DOPC   H2S17207   4.653   6.167   6.286 -1.4780 -1.5960 -2.8752
  145DOPC    C317208   4.290   6.131   6.574 -0.0914  0.0182  0.7172
  145DOPC    HX17209   4.357   6.186   6.645  1.4756  1.3048 -1.6217
  145DOPC    HY17210   4.210   6.079   6.631 -2.1206  0.2900 -1.7235
  145DOPC   O3117211   4.243   6.222   6.469  0.3699  0.6988  0.3154
  145DOPC   C3117212   4.281   6.347   6.458 -0.6712  0.4810 -0.3805
  145DOPC   O3217213   4.357   6.408   6.530 -0.5564 -0.1107  0.1824
  145DOPC   C3217214   4.219   6.406   6.327  0.0545  0.6951 -0.2736
  145DOPC   H2X17215   4.272   6.352   6.245 -0.7975 -0.8057  0.1311
  145DOPC   H2Y17216   4.115   6.369   6.334  0.7738 -1.6488 -0.9062
  145DOPC   C2317217   4.781   6.001   6.223  0.0290 -0.1123  0.2690
  145DOPC   H3R17218   4.755   5.893   6.222  0.3635 -0.2050  0.8491
  145DOPC   H3S17219   4.887   6.023   6.251  0.3626 -0.0148 -1.0244
  145DOPC   C2417220   4.766   6.059   6.079 -0.2453  0.4231  0.2927
  145DOPC   H4R17221   4.858   6.027   6.026 -1.0428 -0.6338 -0.4969
  145DOPC   H4S17222   4.757   6.169   6.086 -0.0794  0.4408  0.2316
  145DOPC   C2517223   4.640   6.002   6.021  0.1033 -0.0290 -0.1527
  145DOPC   H5R17224   4.578   5.975   6.108  0.5179 -0.1765  0.1003
  145DOPC   H5S17225   4.666   5.907   5.968 -0.1302 -0.5433  0.6379
  145DOPC   C2617226   4.568   6.094   5.928  0.0760 -0.1537  0.9155
  145DOPC   H6R17227   4.496   6.034   5.869 -0.9754  3.0549 -1.3301
  145DOPC   H6S17228   4.639   6.133   5.852  0.7440 -1.6682  0.7211
  145DOPC   C2717229   4.507   6.217   5.996  0.3297  0.1059  0.1917
  145DOPC   H7R17230   4.584   6.288   6.034  1.6135 -1.0364 -0.2013
  145DOPC   H7S17231   4.459   6.167   6.083  0.8364 -3.2242 -1.3050
  145DOPC   C2817232   4.398   6.296   5.913  0.1131 -0.6041 -0.7560
  145DOPC   H8R17233   4.355   6.376   5.977  0.6147  1.0338 -2.3733
  145DOPC   H8S17234   4.317   6.221   5.901  1.0216 -1.7543 -0.0242
  145DOPC   C2917235   4.444   6.346   5.780 -0.5030  0.3732 -0.3510
  145DOPC   H9R17236   4.459   6.273   5.699  1.8684  0.1678  0.2006
  145DOPC  C21017237   4.459   6.477   5.754  0.4793  0.9477 -0.1454
  145DOPC  H10R17238   4.485   6.499   5.649  1.9186  1.4227  0.2729
  145DOPC  C21117239   4.436   6.602   5.831  0.2083 -0.4689 -0.2734
  145DOPC  H11R17240   4.531   6.657   5.845  1.3755 -1.4776 -3.2781
  145DOPC  H11S17241   4.390   6.582   5.930  0.9298  0.2620  0.2220
  145DOPC  C21217242   4.340   6.695   5.759 -0.7042 -0.3786 -0.3297
  145DOPC  H12R17243   4.306   6.775   5.828 -0.3055  0.2217 -0.8191
  145DOPC  H12S17244   4.255   6.637   5.717 -1.6911  0.1253  0.9064
  145DOPC  C21317245   4.407   6.776   5.645  0.5161 -0.4083  1.0613
  145DOPC  H13R17246   4.451   6.713   5.565  2.4017  1.0736  0.8553
  145DOPC  H13S17247   4.498   6.827   5.682  0.9450  1.1191 -1.8572
  145DOPC  C21417248   4.325   6.890   5.586 -0.1656  0.5917 -0.3148
  145DOPC  H14R17249   4.279   6.954   5.665  2.2822  3.1176 -0.8053
  145DOPC  H14S17250   4.234   6.851   5.535  0.0255  0.0477 -0.2444
  145DOPC  C21517251   4.387   6.984   5.482  0.1733 -0.0350 -1.0022
  145DOPC  H15R17252   4.461   7.052   5.532 -0.7847  0.2229  0.1146
  145DOPC  H15S17253   4.307   7.051   5.445  0.3209  0.6486 -0.1366
  145DOPC  C21617254   4.458   6.915   5.366  0.0839 -0.2178 -0.4497
  145DOPC  H16R17255   4.377   6.855   5.320 -0.1360 -1.0624  0.9582
  145DOPC  H16S17256   4.532   6.841   5.405 -1.0568 -0.5603  1.1472
  145DOPC  C21717257   4.513   7.010   5.256  0.2403  0.3196  0.5068
  145DOPC  H17R17258   4.422   7.054   5.210 -0.1306 -1.0649 -0.1234
  145DOPC  H17S17259   4.563   6.947   5.180  1.5286  0.6319  1.0652
  145DOPC  C21817260   4.612   7.120   5.306 -0.1286 -0.1763  0.7299
  145DOPC  H18R17261   4.686   7.142   5.226 -0.3927 -1.6918  0.0375
  145DOPC  H18S17262   4.664   7.095   5.401 -1.6531  0.7312  1.8442
  145DOPC  H18T17263   4.555   7.211   5.334  2.0295  1.0156  1.4920
  145DOPC   C3317264   4.210   6.554   6.311  0.0932 -0.7658  0.1596
  145DOPC   H3X17265   4.142   6.598   6.387 -0.6687 -1.2497 -0.2374
  145DOPC   H3Y17266   4.162   6.578   6.214 -0.3506 -4.0507 -0.5367
  145DOPC   C3417267   4.346   6.629   6.306  0.1322 -0.8591  0.5839
  145DOPC   H4X17268   4.411   6.591   6.224 -1.3125  0.6400 -1.3314
  145DOPC   H4Y17269   4.408   6.626   6.398 -0.4879 -0.3878  1.0159
  145DOPC   C3517270   4.336   6.781   6.271  0.3744  0.1072  0.7656
  145DOPC   H5X17271   4.279   6.845   6.342 -2.0232 -0.1446 -0.8068
  145DOPC   H5Y17272   4.274   6.786   6.179  1.6284 -2.7450 -0.3496
  145DOPC   C3617273   4.468   6.858   6.245  0.5035 -0.0215 -0.5780
  145DOPC   H6X17274   4.450   6.967   6.260  1.5284 -0.0153  0.8098
  145DOPC   H6Y17275   4.542   6.825   6.320 -0.5409 -1.3698 -0.0984
  145DOPC   C3717276   4.529   6.836   6.105 -0.7523 -0.2511  0.4468
  145DOPC   H7X17277   4.520   6.730   6.073  0.3388  0.3740 -2.1801
  145DOPC   H7Y17278   4.472   6.881   6.021 -0.8897 -3.3205 -1.2491
  145DOPC   C3817279   4.683   6.862   6.088  0.0823 -0.3461  0.2151
  145DOPC   H8X17280   4.735   6.779   6.139  0.4837 -0.1739  0.0874
  145DOPC   H8Y17281   4.717   6.957   6.134  2.1400 -1.1099  0.3545
  145DOPC   C3917282   4.731   6.873   5.949  0.3714  0.2249  0.3646
  145DOPC   H9X17283   4.768   6.778   5.906 -2.2199 -0.8938  0.3979
  145DOPC  C31017284   4.743   6.983   5.866 -0.6203 -0.4823 -0.3294
  145DOPC  H10X17285   4.795   6.977   5.769  1.2259 -0.4153  0.6120
  145DOPC  C31117286   4.720   7.132   5.904 -0.0366  0.1686  0.7373
  145DOPC  H11X17287   4.688   7.133   6.010  0.9488 -0.6760  1.0478
  145DOPC  H11Y17288   4.644   7.177   5.836 -0.3998 -1.0070  0.3356
  145DOPC  C31217289   4.844   7.222   5.884 -0.2864 -0.1964 -0.3701
  145DOPC  H12X17290   4.917   7.188   5.961 -1.1471 -0.6666  0.2651
  145DOPC  H12Y17291   4.808   7.325   5.907 -0.9476 -0.2734 -1.0514
  145DOPC  C31317292   4.891   7.233   5.740  0.4406  0.4160 -0.2346
  145DOPC  H13X17293   4.919   7.133   5.700  0.1019  0.2832 -0.1535
  145DOPC  H13Y17294   4.810   7.280   5.680  0.7704  0.2739 -0.7919
  145DOPC  C31417295   5.011   7.325   5.735 -0.0130  0.8355  0.6657
  145DOPC  H14X17296   5.032   7.335   5.627  1.8331 -2.7928  0.5504
  145DOPC  H14Y17297   4.977   7.422   5.778  2.4961  2.4500 -0.7892
  145DOPC  C31517298   5.139   7.270   5.796 -0.9206  0.2542 -0.2291
  145DOPC  H15X17299   5.209   7.277   5.709 -0.9880 -0.4223 -0.3391
  145DOPC  H15Y17300   5.119   7.164   5.819  0.8929  0.0943  0.8438
  145DOPC  C31617301   5.189   7.335   5.928  0.3992 -0.5778  0.0989
  145DOPC  H16X17302   5.158   7.442   5.927  0.9816 -0.3891 -1.6620
  145DOPC  H16Y17303   5.127   7.310   6.017 -1.1686  0.9088 -0.5203
  145DOPC  C31717304   5.336   7.323   5.946 -0.2252 -0.4339 -0.4597
  145DOPC  H17X17305   5.367   7.218   5.926 -1.3220 -1.3437  2.1207
  145DOPC  H17Y17306   5.387   7.391   5.875 -1.1216  0.5212 -0.2193
  145DOPC  C31817307   5.380   7.352   6.091 -0.3563 -0.8652 -0.1519
  145DOPC  H18X17308   5.491   7.358   6.095 -0.3483 -0.5255 -0.7297
  145DOPC  H18Y17309   5.339   7.451   6.120 -0.0950 -1.1623  1.2744
  145DOPC  H18Z17310   5.327   7.276   6.151 -1.2575  0.8537  1.3462
  146DOPC     N17311   4.780   2.347   7.168 -0.3852 -0.1083 -0.1960
  146DOPC   C1217312   4.719   2.349   7.028 -0.3667  0.1779  1.1669
  146DOPC  H12A17313   4.720   2.451   6.994  0.8187 -0.5726 -1.2490
  146DOPC  H12B17314   4.614   2.323   7.033 -0.5644  0.4481 -0.7437
  146DOPC   C1317315   4.923   2.390   7.167  0.5708  0.0004  0.0428
  146DOPC  H13A17316   4.968   2.374   7.263  0.9232 -0.3549 -0.1807
  146DOPC  H13B17317   4.983   2.328   7.102  1.8249 -0.8040  1.9087
  146DOPC  H13C17318   4.934   2.497   7.151  1.2924  0.4000  2.6966
  146DOPC   C1417319   4.767   2.205   7.225 -0.6241  0.3918 -0.1100
  146DOPC  H14A17320   4.831   2.145   7.161 -0.2870 -1.5251  1.9203
  146DOPC  H14B17321   4.791   2.194   7.329  1.3417  2.1554 -0.2983
  146DOPC  H14C17322   4.667   2.171   7.203 -0.1723 -1.1971  0.1901
  146DOPC   C1517323   4.694   2.443   7.251 -0.0344 -0.5045 -0.1503
  146DOPC  H15A17324   4.680   2.539   7.202 -1.0001 -1.0682 -0.9978
  146DOPC  H15B17325   4.728   2.475   7.348 -0.5157  3.0682 -1.0063
  146DOPC  H15C17326   4.594   2.406   7.261 -0.2396  0.5563  2.3332
  146DOPC   C1117327   4.793   2.260   6.924 -0.2816  0.4811 -0.1071
  146DOPC  H11A17328   4.796   2.154   6.956  1.7961  0.2321 -0.9520
  146DOPC  H11B17329   4.734   2.258   6.830 -1.8960 -3.0228  0.8052
  146DOPC     P17330   4.977   2.425   6.824 -0.0487 -0.2655  0.6568
  146DOPC   O1317331   5.004   2.387   6.683 -0.1544 -0.1955 -0.2235
  146DOPC   O1417332   5.080   2.500   6.900  0.0038  0.0117  0.5240
  146DOPC   O1217333   4.932   2.298   6.901  0.2541 -0.2215 -0.1285
  146DOPC   O1117334   4.844   2.529   6.834 -1.2549  0.7366  0.0444
  146DOPC    C117335   4.763   2.555   6.722  0.1782 -1.1144  0.9497
  146DOPC    HA17336   4.665   2.586   6.765  0.9484  1.5258  0.9720
  146DOPC    HB17337   4.748   2.467   6.656 -1.0871 -1.0143  1.0755
  146DOPC    C217338   4.805   2.682   6.632  0.7073  0.5002 -1.3491
  146DOPC    HS17339   4.711   2.727   6.593  0.1856  0.7787  0.1508
  146DOPC   O2117340   4.889   2.632   6.523 -0.0169  0.2172 -0.0920
  146DOPC   C2117341   4.830   2.588   6.410 -0.2882  0.3921 -0.5068
  146DOPC   O2217342   4.710   2.571   6.395  0.7644 -0.4352  0.5757
  146DOPC   C2217343   4.948   2.560   6.314 -0.0213  0.0279  0.0009
  146DOPC   H2R17344   5.003   2.471   6.352 -1.6499 -0.4065  1.4613
  146DOPC   H2S17345   5.011   2.651   6.311 -1.6387  1.2847  1.9012
  146DOPC    C317346   4.884   2.789   6.707 -0.3935  0.3797 -0.6504
  146DOPC    HX17347   4.974   2.737   6.747 -1.7914 -0.8607  0.9781
  146DOPC    HY17348   4.815   2.812   6.791 -2.3244 -3.2889 -1.0442
  146DOPC   O3117349   4.934   2.896   6.622 -0.4934 -0.1136  0.4745
  146DOPC   C3117350   4.846   3.004   6.606 -0.8538  0.6934  0.4406
  146DOPC   O3217351   4.735   3.002   6.645  0.5743  0.4507 -0.3214
  146DOPC   C3217352   4.909   3.119   6.524 -0.1926 -0.1906  0.6264
  146DOPC   H2X17353   4.948   3.192   6.599  2.3075 -2.1211  1.3373
  146DOPC   H2Y17354   5.001   3.083   6.472 -0.3774  0.5308 -0.2196
  146DOPC   C2317355   4.896   2.526   6.168 -0.7851  0.3656 -0.3796
  146DOPC   H3R17356   4.826   2.608   6.140 -0.4017  0.5203 -0.8980
  146DOPC   H3S17357   4.823   2.446   6.188 -1.7933  1.0729 -1.1402
  146DOPC   C2417358   5.004   2.485   6.070  0.0802  0.4429 -0.6871
  146DOPC   H4R17359   5.047   2.386   6.097  0.4661  0.9466  0.6183
  146DOPC   H4S17360   5.095   2.549   6.070 -0.4457  1.2560  1.2124
  146DOPC   C2517361   4.946   2.467   5.930 -0.3819  0.1255  0.0308
  146DOPC   H5R17362   4.887   2.558   5.906 -1.2163 -0.0426  1.3385
  146DOPC   H5S17363   4.882   2.377   5.917  0.1131 -0.2143 -0.0651
  146DOPC   C2617364   5.043   2.435   5.820 -0.1550 -0.6378 -0.8008
  146DOPC   H6R17365   5.078   2.335   5.853 -0.7162 -0.4161  0.5579
  146DOPC   H6S17366   5.126   2.509   5.830 -1.7433  1.1764 -0.4385
  146DOPC   C2717367   4.986   2.426   5.678 -0.1383  0.0520  0.4407
  146DOPC   H7R17368   4.943   2.526   5.659 -0.7791 -0.0588  1.2419
  146DOPC   H7S17369   4.902   2.353   5.671 -1.2135  0.4807  5.3244
  146DOPC   C2817370   5.094   2.403   5.573 -0.3802 -0.5449 -0.2642
  146DOPC   H8R17371   5.127   2.297   5.574  0.1700 -0.3776 -0.2443
  146DOPC   H8S17372   5.181   2.471   5.592 -0.5141 -0.8879  1.7780
  146DOPC   C2917373   5.030   2.424   5.438  0.0007  0.3587  0.3845
  146DOPC   H9R17374   4.931   2.471   5.440 -0.3133 -0.2987  2.2050
  146DOPC  C21017375   5.080   2.397   5.318 -0.3469  0.7948  0.8754
  146DOPC  H10R17376   5.013   2.432   5.238  0.4527 -0.1909 -0.2582
  146DOPC  C21117377   5.222   2.346   5.291  1.0202  0.3320  0.0229
  146DOPC  H11R17378   5.211   2.235   5.297  0.9451  0.4079  2.3057
  146DOPC  H11S17379   5.295   2.371   5.371  0.0022  0.9956  0.7564
  146DOPC  C21217380   5.263   2.398   5.151 -0.5025 -0.2695 -0.0262
  146DOPC  H12R17381   5.370   2.367   5.147 -1.0818 -2.6000  0.7294
  146DOPC  H12S17382   5.249   2.508   5.145  1.5412  0.0207 -0.0461
  146DOPC  C21317383   5.194   2.327   5.036  0.1929  0.3116 -0.9372
  146DOPC  H13R17384   5.085   2.338   5.020 -0.2877  0.4099  1.8789
  146DOPC  H13S17385   5.204   2.218   5.056  1.2524  0.4846 -0.4473
  146DOPC  C21417386   5.255   2.360   4.903 -0.4236 -0.4533 -0.1521
  146DOPC  H14R17387   5.361   2.327   4.897 -0.1661  0.3894 -0.5219
  146DOPC  H14S17388   5.247   2.470   4.887 -0.6188 -0.0897  2.1977
  146DOPC  C21517389   5.175   2.283   4.798  0.4194  0.0721  0.0452
  146DOPC  H15R17390   5.072   2.326   4.799 -0.1384 -1.1576  2.3106
  146DOPC  H15S17391   5.168   2.179   4.838  1.4093  0.2935  0.8153
  146DOPC  C21617392   5.251   2.283   4.664 -0.0866  0.6281  0.7298
  146DOPC  H16R17393   5.360   2.262   4.676  0.1831  1.4429 -0.1574
  146DOPC  H16S17394   5.243   2.378   4.607  1.9529  0.4328  0.0045
  146DOPC  C21717395   5.214   2.159   4.575 -0.0445 -0.1977 -0.6367
  146DOPC  H17R17396   5.229   2.064   4.630 -1.1093 -0.7306 -1.2306
  146DOPC  H17S17397   5.288   2.156   4.493  2.5475  3.3390  1.3056
  146DOPC  C21817398   5.072   2.178   4.535 -0.9243 -0.5918 -0.5240
  146DOPC  H18R17399   5.000   2.194   4.618  0.1891 -0.5207  0.4515
  146DOPC  H18S17400   5.038   2.085   4.484  0.0438 -0.4545 -1.4465
  146DOPC  H18T17401   5.053   2.264   4.467  0.3197 -0.6890 -1.0146
  146DOPC   C3317402   4.808   3.175   6.421  0.0923  1.1544 -0.3100
  146DOPC   H3X17403   4.850   3.263   6.367  0.4444  2.6392  2.2228
  146DOPC   H3Y17404   4.730   3.220   6.486  2.2338  4.0325  0.5064
  146DOPC   C3417405   4.766   3.081   6.311 -0.1824 -0.6686 -0.3738
  146DOPC   H4X17406   4.706   3.140   6.239 -0.2498 -0.6595 -0.3110
  146DOPC   H4Y17407   4.705   2.998   6.351  1.8399 -2.9049 -1.7192
  146DOPC   C3517408   4.884   3.009   6.233  0.0533  0.1516 -0.2398
  146DOPC   H5X17409   4.944   2.946   6.302  0.5364  1.2872  0.3965
  146DOPC   H5Y17410   4.947   3.091   6.193  0.3796  0.7973  1.5109
  146DOPC   C3617411   4.835   2.918   6.123  0.7077 -0.2239 -0.1926
  146DOPC   H6X17412   4.924   2.873   6.074  0.3002 -0.8340 -0.4022
  146DOPC   H6Y17413   4.776   2.832   6.162  1.5688 -0.0624  1.5478
  146DOPC   C3717414   4.759   2.997   6.016  0.0468  0.0421  0.1708
  146DOPC   H7X17415   4.664   3.025   6.066  2.3661  3.9046  2.9592
  146DOPC   H7Y17416   4.808   3.091   5.984 -0.0606 -0.5818 -2.0334
  146DOPC   C3817417   4.737   2.924   5.880 -0.1500  0.4554  0.4318
  146DOPC   H8X17418   4.687   2.828   5.905  1.4540 -1.6130 -3.4959
  146DOPC   H8Y17419   4.844   2.915   5.852 -0.5841 -1.4915 -0.8024
  146DOPC   C3917420   4.656   2.988   5.768 -0.6136 -1.4815 -0.7160
  146DOPC   H9X17421   4.564   3.035   5.805  0.9104  1.8503 -0.7269
  146DOPC  C31017422   4.704   3.016   5.643 -0.4707 -0.0048  0.4174
  146DOPC  H10X17423   4.645   3.079   5.576  0.0824 -0.2549 -0.3195
  146DOPC  C31117424   4.834   2.979   5.578  0.2542  0.1898 -0.1378
  146DOPC  H11X17425   4.905   2.931   5.650 -1.4721 -0.3382  1.2778
  146DOPC  H11Y17426   4.885   3.069   5.538  0.7707 -0.6168 -1.3687
  146DOPC  C31217427   4.785   2.876   5.478 -0.4602 -0.0098  0.1293
  146DOPC  H12X17428   4.708   2.929   5.418 -0.4849  1.2203  1.2081
  146DOPC  H12Y17429   4.744   2.787   5.530 -3.6605  0.6879 -0.9814
  146DOPC  C31317430   4.909   2.820   5.405  0.0066 -0.4714 -0.1005
  146DOPC  H13X17431   4.986   2.788   5.479  1.9090 -0.2390 -1.8940
  146DOPC  H13Y17432   4.879   2.734   5.341  2.0433  0.5025 -2.5121
  146DOPC  C31417433   4.980   2.906   5.309  0.2925 -0.5560 -0.1194
  146DOPC  H14X17434   4.906   2.976   5.264  0.7092  1.5527  2.3083
  146DOPC  H14Y17435   5.052   2.976   5.355 -1.8219  1.8996 -0.3530
  146DOPC  C31517436   5.049   2.833   5.189 -0.0689 -0.0583 -0.2712
  146DOPC  H15X17437   4.986   2.746   5.165  1.0920 -1.2216  0.7328
  146DOPC  H15Y17438   5.146   2.799   5.232  0.3358 -0.5579 -1.5362
  146DOPC  C31617439   5.068   2.930   5.074  0.3086 -0.2228  0.2187
  146DOPC  H16X17440   4.969   2.959   5.033  0.9405  1.9607  0.1414
  146DOPC  H16Y17441   5.112   3.024   5.113  0.9055  0.1304 -1.2437
  146DOPC  C31717442   5.158   2.877   4.958  0.3919  0.2772  0.0687
  146DOPC  H17X17443   5.173   2.948   4.874  2.0847 -0.5753 -0.3913
  146DOPC  H17Y17444   5.253   2.867   5.014  0.9854 -1.8920 -1.2294
  146DOPC  C31817445   5.131   2.734   4.913  0.1295  0.2175 -0.0590
  146DOPC  H18X17446   5.199   2.707   4.830  0.8184 -0.6965  0.7790
  146DOPC  H18Y17447   5.168   2.668   4.994  0.1400 -0.0208 -0.2575
  146DOPC  H18Z17448   5.028   2.705   4.884  0.5861 -0.6098 -0.8973
  147DOPC     N17449   2.048   3.637   7.059 -0.1064 -0.3785 -0.1441
  147DOPC   C1217450   2.039   3.628   6.909 -0.1962 -0.1142 -0.3288
  147DOPC  H12A17451   2.142   3.622   6.876  0.0825  1.1727  0.2595
  147DOPC  H12B17452   1.985   3.716   6.880 -1.1782 -0.2872  0.8855
  147DOPC   C1317453   2.150   3.541   7.116 -0.6829 -0.2363  0.3777
  147DOPC  H13A17454   2.244   3.572   7.074 -0.7496 -2.4569 -1.5715
  147DOPC  H13B17455   2.164   3.536   7.223 -0.4331  0.6790  0.3996
  147DOPC  H13C17456   2.132   3.440   7.085  1.1232 -0.4927  0.0425
  147DOPC   C1417457   1.918   3.623   7.131 -0.4785 -0.1993  1.0059
  147DOPC  H14A17458   1.930   3.644   7.236  3.3537 -1.9660  1.0731
  147DOPC  H14B17459   1.839   3.688   7.094  0.1947  1.1207  1.8409
  147DOPC  H14C17460   1.885   3.522   7.115  0.1187 -0.0404 -1.9891
  147DOPC   C1517461   2.099   3.774   7.090 -0.1676  0.1395  0.1108
  147DOPC  H15A17462   2.193   3.796   7.040  1.1398 -3.5322  0.6323
  147DOPC  H15B17463   2.112   3.786   7.196  0.7076  0.1429  0.0104
  147DOPC  H15C17464   2.026   3.850   7.067 -0.3689 -0.3132 -0.7973
  147DOPC   C1117465   1.971   3.503   6.851 -0.1910 -0.6951 -0.0189
  147DOPC  H11A17466   1.870   3.488   6.894  0.2571  0.5749  1.5275
  147DOPC  H11B17467   1.965   3.519   6.741 -0.5211 -2.2115 -0.2504
  147DOPC     P17468   1.983   3.243   6.835 -0.2157 -0.1569 -0.1203
  147DOPC   O1317469   1.871   3.215   6.930  0.2922  0.0059 -0.0153
  147DOPC   O1417470   2.087   3.140   6.843  0.0257 -0.1863  0.1954
  147DOPC   O1217471   2.048   3.384   6.867 -0.5903 -0.2330 -0.1084
  147DOPC   O1117472   1.926   3.257   6.696 -0.3068 -0.4385  0.2344
  147DOPC    C117473   2.013   3.283   6.582  0.3480 -0.5272  0.3386
  147DOPC    HA17474   2.115   3.243   6.598  0.0146 -2.3775 -1.7119
  147DOPC    HB17475   2.022   3.394   6.574  0.0717 -0.3032  2.4841
  147DOPC    C217476   1.966   3.227   6.442 -0.2893  0.7524  0.2178
  147DOPC    HS17477   1.879   3.285   6.404  0.1242  0.0607 -1.9173
  147DOPC   O2117478   1.933   3.088   6.452  0.2193  0.7330  0.3456
  147DOPC   C2117479   1.815   3.052   6.516  0.4004  0.3148  0.4848
  147DOPC   O2217480   1.730   3.126   6.558 -0.2703 -0.7825  0.2031
  147DOPC   C2217481   1.806   2.901   6.532  0.2557 -0.1086 -0.1822
  147DOPC   H2R17482   1.703   2.886   6.571  0.7864 -2.6202  0.3796
  147DOPC   H2S17483   1.878   2.882   6.614 -0.2094  0.7074  0.4295
  147DOPC    C317484   2.068   3.235   6.329 -0.6683 -0.0388 -0.4121
  147DOPC    HX17485   2.015   3.209   6.235 -0.5203 -1.1103 -0.2101
  147DOPC    HY17486   2.143   3.157   6.356  0.7238  0.7851 -1.6657
  147DOPC   O3117487   2.134   3.366   6.316 -0.7767  0.5722  0.0256
  147DOPC   C3117488   2.260   3.391   6.374  0.2848 -0.1921  0.6267
  147DOPC   O3217489   2.322   3.311   6.441  0.2290  0.0538 -0.1163
  147DOPC   C3217490   2.321   3.525   6.325  0.2166 -0.1623 -1.0627
  147DOPC   H2X17491   2.266   3.601   6.384  0.1841  0.4378 -1.8477
  147DOPC   H2Y17492   2.429   3.527   6.348  0.0355 -1.2316 -0.0280
  147DOPC   C2317493   1.826   2.815   6.397  0.3227 -0.2743 -0.5238
  147DOPC   H3R17494   1.934   2.795   6.415 -0.1044 -1.0124  1.4492
  147DOPC   H3S17495   1.797   2.861   6.300 -0.8873  0.3227  0.0976
  147DOPC   C2417496   1.747   2.679   6.388 -0.2512  0.4966 -0.1279
  147DOPC   H4R17497   1.749   2.624   6.484 -0.4892 -1.6681 -1.2850
  147DOPC   H4S17498   1.805   2.609   6.324 -1.8244 -1.6198  0.6357
  147DOPC   C2517499   1.601   2.684   6.339 -0.5078  0.7327 -0.0796
  147DOPC   H5R17500   1.529   2.732   6.409 -2.2595  0.1620 -1.3958
  147DOPC   H5S17501   1.558   2.583   6.323 -1.4204  1.0995 -0.0175
  147DOPC   C2617502   1.586   2.740   6.195  0.2070 -0.3819  0.2840
  147DOPC   H6R17503   1.596   2.850   6.198  1.6165 -0.4646 -0.5258
  147DOPC   H6S17504   1.481   2.719   6.167  1.0450 -1.3066 -2.5405
  147DOPC   C2717505   1.691   2.684   6.094  0.0978 -0.4495  0.0068
  147DOPC   H7R17506   1.792   2.720   6.124  0.5005  1.7685 -3.4291
  147DOPC   H7S17507   1.673   2.732   5.995 -0.0660  0.5572  0.5084
  147DOPC   C2817508   1.691   2.536   6.062  0.4850  0.0900 -0.0856
  147DOPC   H8R17509   1.711   2.479   6.154  1.3131  2.1155  1.0677
  147DOPC   H8S17510   1.779   2.512   5.997 -1.6108 -0.2086 -3.0482
  147DOPC   C2917511   1.570   2.499   5.984  0.9912 -0.3495 -0.2649
  147DOPC   H9R17512   1.528   2.575   5.916 -1.2528 -0.8777  0.4590
  147DOPC  C21017513   1.493   2.382   6.001 -0.1093 -0.2807  0.3555
  147DOPC  H10R17514   1.406   2.363   5.937  0.1383 -0.1493 -0.0255
  147DOPC  C21117515   1.530   2.266   6.085 -0.1427  0.0020  0.7583
  147DOPC  H11R17516   1.636   2.274   6.120  0.3762 -3.2122  0.1847
  147DOPC  H11S17517   1.514   2.189   6.007  0.7754  0.4107  0.1379
  147DOPC  C21217518   1.450   2.266   6.207  0.6085  0.7865  0.0099
  147DOPC  H12R17519   1.346   2.255   6.171 -0.0968 -0.0507  2.1689
  147DOPC  H12S17520   1.446   2.361   6.265 -0.1869  1.1011 -0.5586
  147DOPC  C21317521   1.484   2.146   6.301  0.5556 -0.6814 -0.1956
  147DOPC  H13R17522   1.497   2.055   6.239 -1.2978 -0.9538 -0.2493
  147DOPC  H13S17523   1.412   2.130   6.385  1.2721  2.4227  1.1432
  147DOPC  C21417524   1.631   2.164   6.369  0.5029 -0.0612  0.1774
  147DOPC  H14R17525   1.654   2.272   6.381 -1.9196  0.5418 -0.0535
  147DOPC  H14S17526   1.713   2.113   6.314  0.2913  0.1173 -0.3058
  147DOPC  C21517527   1.624   2.095   6.508  0.5073 -0.2314 -0.3068
  147DOPC  H15R17528   1.726   2.090   6.550  1.0889  1.8807 -1.3100
  147DOPC  H15S17529   1.585   1.996   6.478 -0.3452 -0.3501  1.0919
  147DOPC  C21617530   1.543   2.180   6.608  0.6575  0.2151 -0.0964
  147DOPC  H16R17531   1.433   2.186   6.595  0.8753  0.8520 -2.0184
  147DOPC  H16S17532   1.588   2.281   6.603 -0.1532  0.9788  4.3028
  147DOPC  C21717533   1.583   2.126   6.748 -0.0199  0.0482 -0.1741
  147DOPC  H17R17534   1.529   2.190   6.822  1.1075  1.3039 -0.3907
  147DOPC  H17S17535   1.688   2.150   6.778 -0.2050 -0.0994  0.6325
  147DOPC  C21817536   1.547   1.984   6.770  0.0612 -0.2624  0.3057
  147DOPC  H18R17537   1.442   1.976   6.734  0.4633 -2.3228 -0.5895
  147DOPC  H18S17538   1.563   1.950   6.875  2.6221 -1.7253 -0.4574
  147DOPC  H18T17539   1.600   1.911   6.704 -1.0502 -1.6195  0.8497
  147DOPC   C3317540   2.309   3.547   6.173 -0.1334  0.3830 -0.5228
  147DOPC   H3X17541   2.344   3.651   6.154  0.9695  0.0053 -0.6669
  147DOPC   H3Y17542   2.205   3.539   6.135  1.0775 -1.8246 -3.9157
  147DOPC   C3417543   2.390   3.441   6.091 -0.6573 -0.0336 -0.4274
  147DOPC   H4X17544   2.363   3.335   6.109 -2.4354  0.5398  0.6345
  147DOPC   H4Y17545   2.491   3.451   6.136 -0.6671  0.9293 -0.5869
  147DOPC   C3517546   2.386   3.479   5.941  0.6018 -0.1282  0.2346
  147DOPC   H5X17547   2.437   3.575   5.918  2.1538 -0.3170  2.5147
  147DOPC   H5Y17548   2.281   3.485   5.907  0.7510  1.2642 -0.0446
  147DOPC   C3617549   2.453   3.380   5.850  0.2047  0.6896 -0.3743
  147DOPC   H6X17550   2.563   3.366   5.863  0.2255  2.6399  2.2243
  147DOPC   H6Y17551   2.418   3.275   5.864  0.4234  0.2611 -2.6803
  147DOPC   C3717552   2.419   3.415   5.704  0.4465  0.7348  0.2158
  147DOPC   H7X17553   2.312   3.438   5.691  0.4267  0.3599 -0.3031
  147DOPC   H7Y17554   2.464   3.515   5.689  0.2120  0.9209  0.7422
  147DOPC   C3817555   2.462   3.303   5.603 -0.3134 -0.5196 -0.0161
  147DOPC   H8X17556   2.416   3.207   5.636  0.7069 -1.5173 -1.3494
  147DOPC   H8Y17557   2.572   3.289   5.604  0.1598  2.4595 -1.2868
  147DOPC   C3917558   2.407   3.333   5.468 -0.3165  0.1791 -0.1534
  147DOPC   H9X17559   2.305   3.373   5.476 -0.4434 -0.2273  0.3870
  147DOPC  C31017560   2.466   3.314   5.344  0.4016  0.6546 -0.4344
  147DOPC  H10X17561   2.401   3.337   5.259 -2.2490  3.3065  2.0505
  147DOPC  C31117562   2.600   3.243   5.325  0.5340  0.0839  0.1226
  147DOPC  H11X17563   2.670   3.263   5.409  0.5282  0.2804  0.0811
  147DOPC  H11Y17564   2.652   3.287   5.237 -0.5331 -1.3054 -1.2440
  147DOPC  C31217565   2.595   3.100   5.274  0.5456 -0.0963  0.6489
  147DOPC  H12X17566   2.675   3.082   5.199  1.0113 -0.7199  1.2785
  147DOPC  H12Y17567   2.497   3.081   5.226  0.5550  1.2816  0.0452
  147DOPC  C31317568   2.606   2.996   5.384  0.8465  0.1248  0.0521
  147DOPC  H13X17569   2.710   3.002   5.423  0.5227  0.5392  0.8745
  147DOPC  H13Y17570   2.531   3.020   5.462 -1.0057  0.2805 -1.6937
  147DOPC  C31417571   2.562   2.852   5.341 -0.1786  0.2845  0.1150
  147DOPC  H14X17572   2.455   2.850   5.312 -0.1919  0.2879  0.1646
  147DOPC  H14Y17573   2.628   2.802   5.267 -1.0277 -2.4808  1.0925
  147DOPC  C31517574   2.560   2.742   5.452 -0.1596 -0.0318 -0.0951
  147DOPC  H15X17575   2.507   2.788   5.537  0.2681 -0.8455  0.6282
  147DOPC  H15Y17576   2.665   2.725   5.487 -0.3545  0.4836  0.7644
  147DOPC  C31617577   2.470   2.618   5.419  0.1194  0.5705 -0.7316
  147DOPC  H16X17578   2.444   2.558   5.508 -1.7524 -1.2135 -2.3531
  147DOPC  H16Y17579   2.377   2.662   5.375 -0.5077 -0.5157 -0.5233
  147DOPC  C31717580   2.545   2.525   5.327  0.2893  0.4611  0.3241
  147DOPC  H17X17581   2.555   2.571   5.227  1.2484 -3.6051 -1.6562
  147DOPC  H17Y17582   2.650   2.517   5.363 -0.0521 -1.1552  1.0610
  147DOPC  C31817583   2.497   2.377   5.322 -0.2407 -0.0958  0.6118
  147DOPC  H18X17584   2.564   2.304   5.271  1.0547 -0.5576  2.8670
  147DOPC  H18Y17585   2.483   2.347   5.428 -2.9721  0.8699  0.6201
  147DOPC  H18Z17586   2.391   2.365   5.292 -0.5844 -0.6326  1.9720
  148DOPC     N17587   2.472   6.284   7.250 -0.4975 -0.4786 -0.3861
  148DOPC   C1217588   2.367   6.366   7.171  0.1051 -0.0500  0.4392
  148DOPC  H12A17589   2.381   6.468   7.202 -0.7545 -0.0656  0.9228
  148DOPC  H12B17590   2.266   6.345   7.204 -0.3376  0.7916 -0.3361
  148DOPC   C1317591   2.415   6.146   7.267 -0.1641 -0.6120 -0.4673
  148DOPC  H13A17592   2.472   6.081   7.332 -1.0734 -1.3372 -0.3710
  148DOPC  H13B17593   2.320   6.151   7.318 -0.6483 -2.3085 -1.1186
  148DOPC  H13C17594   2.411   6.095   7.171  1.9391 -2.1943  0.2080
  148DOPC   C1417595   2.495   6.349   7.387  0.4889 -0.6215  0.0137
  148DOPC  H14A17596   2.540   6.446   7.375  1.1039 -0.9567 -0.4444
  148DOPC  H14B17597   2.405   6.376   7.441  0.5917 -1.1378  0.4494
  148DOPC  H14C17598   2.566   6.292   7.445 -1.0621 -2.5826  0.1080
  148DOPC   C1517599   2.603   6.280   7.179 -0.0536  0.2185 -0.2691
  148DOPC  H15A17600   2.672   6.239   7.251 -2.3569  1.2593  2.7575
  148DOPC  H15B17601   2.633   6.381   7.154  1.5544  0.1385  1.1592
  148DOPC  H15C17602   2.606   6.216   7.092  1.4951  0.7758 -0.6586
  148DOPC   C1117603   2.359   6.356   7.025 -0.0199 -0.1357  0.5088
  148DOPC  H11A17604   2.282   6.427   6.986 -0.0946 -1.3002 -1.6180
  148DOPC  H11B17605   2.450   6.395   6.976 -0.4337 -0.8646 -0.8880
  148DOPC     P17606   2.185   6.174   6.970  0.0231 -0.3089 -0.1176
  148DOPC   O1317607   2.117   6.192   7.101 -0.1419  0.0940 -0.3703
  148DOPC   O1417608   2.182   6.035   6.918  0.0789 -0.4666 -0.4785
  148DOPC   O1217609   2.340   6.223   6.978 -0.3150  0.2557  0.2082
  148DOPC   O1117610   2.120   6.271   6.862  0.5337 -0.4856 -0.1948
  148DOPC    C117611   2.161   6.270   6.724  0.0843 -0.2282 -0.0822
  148DOPC    HA17612   2.063   6.279   6.672  0.0351  2.6400  0.3322
  148DOPC    HB17613   2.200   6.173   6.686 -2.3072 -0.8624 -1.1020
  148DOPC    C217614   2.233   6.401   6.686 -0.2103  0.2875 -0.3650
  148DOPC    HS17615   2.304   6.429   6.767 -0.4123 -0.3432  0.0372
  148DOPC   O2117616   2.135   6.505   6.679 -0.0537 -0.4171  0.1135
  148DOPC   C2117617   2.178   6.631   6.669  0.2194 -0.0183 -0.0433
  148DOPC   O2217618   2.291   6.666   6.675 -0.2639 -0.3581 -0.5678
  148DOPC   C2217619   2.051   6.718   6.650 -0.1406 -0.8265 -0.0121
  148DOPC   H2R17620   1.986   6.697   6.737  0.6457 -1.1059  0.5251
  148DOPC   H2S17621   1.992   6.682   6.563  0.3479 -0.8559 -0.3420
  148DOPC    C317622   2.302   6.393   6.549  0.2697  0.3497  0.2050
  148DOPC    HX17623   2.369   6.480   6.529  0.6510 -0.0060 -0.0897
  148DOPC    HY17624   2.216   6.390   6.480  0.7433  1.4418 -0.4642
  148DOPC   O3117625   2.381   6.268   6.532  0.2684  0.2374  0.3852
  148DOPC   C3117626   2.511   6.285   6.571 -0.4567  0.6971  0.3251
  148DOPC   O3217627   2.561   6.383   6.629 -0.0946 -0.0076 -0.1950
  148DOPC   C3217628   2.583   6.155   6.536 -0.7140  0.8189  0.2035
  148DOPC   H2X17629   2.679   6.150   6.592 -0.6332  0.7310  0.0584
  148DOPC   H2Y17630   2.512   6.074   6.566 -2.2761  2.8658  2.3598
  148DOPC   C2317631   2.073   6.867   6.615 -0.2256  0.9252 -0.3449
  148DOPC   H3R17632   2.135   6.925   6.686  0.0146  0.3837 -0.1052
  148DOPC   H3S17633   1.972   6.912   6.618 -0.0593  1.3170 -0.4753
  148DOPC   C2417634   2.123   6.886   6.471  0.1544  0.1461 -0.6796
  148DOPC   H4R17635   2.041   6.861   6.400 -1.5351 -0.6989  1.4504
  148DOPC   H4S17636   2.211   6.818   6.466  0.6133  0.6741  0.0437
  148DOPC   C2517637   2.179   7.025   6.439 -0.2385  0.0480  0.0684
  148DOPC   H5R17638   2.254   7.047   6.518 -1.7734 -0.0337  1.6145
  148DOPC   H5S17639   2.090   7.088   6.461  0.3674  1.3561 -1.0927
  148DOPC   C2617640   2.219   7.039   6.299  0.1815  0.1355 -0.4972
  148DOPC   H6R17641   2.141   6.999   6.231  1.0468 -2.7400  0.0538
  148DOPC   H6S17642   2.305   6.970   6.287 -1.2560 -1.8030 -0.0576
  148DOPC   C2717643   2.254   7.181   6.243 -0.5163  0.0729 -0.1514
  148DOPC   H7R17644   2.160   7.236   6.224 -0.4351 -0.1219 -1.1928
  148DOPC   H7S17645   2.311   7.186   6.148 -0.1492  0.8111  0.0967
  148DOPC   C2817646   2.342   7.256   6.344 -0.1279 -0.2371 -0.1200
  148DOPC   H8R17647   2.290   7.283   6.438  0.8281 -0.6050  0.5277
  148DOPC   H8S17648   2.364   7.356   6.302 -1.6106 -0.2400 -0.9756
  148DOPC   C2917649   2.475   7.188   6.368 -0.1478  0.1105 -0.4153
  148DOPC   H9R17650   2.474   7.123   6.457  2.0588  0.5369 -0.0173
  148DOPC  C21017651   2.592   7.200   6.308  0.0719 -1.2266  0.1426
  148DOPC  H10R17652   2.678   7.154   6.359  2.1371  1.9822 -0.1688
  148DOPC  C21117653   2.615   7.284   6.178 -0.1993  0.1460  0.1707
  148DOPC  H11R17654   2.705   7.348   6.188 -1.4915  2.4047 -1.7149
  148DOPC  H11S17655   2.542   7.363   6.152 -0.5448 -0.2293 -0.0075
  148DOPC  C21217656   2.642   7.189   6.057  0.3936 -0.2538  0.3718
  148DOPC  H12R17657   2.550   7.143   6.014  0.6359  0.4199 -0.9022
  148DOPC  H12S17658   2.722   7.117   6.085  0.6884 -0.1277 -0.1470
  148DOPC  C21317659   2.691   7.271   5.939 -0.3593 -0.5539  0.7259
  148DOPC  H13R17660   2.791   7.312   5.967 -0.7542  0.7566  0.3000
  148DOPC  H13S17661   2.627   7.357   5.911  0.8102 -0.2049 -0.9903
  148DOPC  C21417662   2.704   7.186   5.815  0.5075  0.3293  0.1013
  148DOPC  H14R17663   2.611   7.127   5.807 -0.4543  1.6493  1.0032
  148DOPC  H14S17664   2.791   7.117   5.815 -0.0326 -0.3920 -1.6529
  148DOPC  C21517665   2.706   7.267   5.696  1.0849 -0.0407  0.5481
  148DOPC  H15R17666   2.783   7.348   5.693 -0.1647  1.4441  3.9543
  148DOPC  H15S17667   2.614   7.329   5.696  0.7732 -0.5091  0.6237
  148DOPC  C21617668   2.711   7.178   5.567 -0.0005  0.4472 -0.1745
  148DOPC  H16R17669   2.753   7.079   5.597 -1.0113  0.6791  2.2946
  148DOPC  H16S17670   2.784   7.233   5.504  1.4799 -1.0360  0.1374
  148DOPC  C21717671   2.574   7.162   5.496 -0.0202  0.1235 -0.4768
  148DOPC  H17R17672   2.531   7.264   5.489  1.4328  0.8943  1.0645
  148DOPC  H17S17673   2.511   7.094   5.557  1.7649 -1.6608 -0.5183
  148DOPC  C21817674   2.594   7.099   5.358 -0.0893 -0.2251 -0.7347
  148DOPC  H18R17675   2.664   7.160   5.298 -0.3515  0.9761  0.1352
  148DOPC  H18S17676   2.498   7.083   5.305 -0.7104 -0.2587  0.3598
  148DOPC  H18T17677   2.623   6.995   5.385 -1.3272 -0.5142 -0.4642
  148DOPC   C3317678   2.612   6.144   6.378 -0.0729  0.3254  0.1239
  148DOPC   H3X17679   2.519   6.177   6.327 -1.5308 -1.2755  1.6168
  148DOPC   H3Y17680   2.632   6.038   6.353 -0.6385  0.4110 -0.7174
  148DOPC   C3417681   2.733   6.227   6.337 -0.8519  0.6807 -0.0641
  148DOPC   H4X17682   2.801   6.199   6.420 -1.7303 -1.3778  0.0095
  148DOPC   H4Y17683   2.712   6.336   6.341 -0.8875  0.6339  1.4652
  148DOPC   C3517684   2.793   6.182   6.200 -0.0166  0.2217  0.7908
  148DOPC   H5X17685   2.838   6.080   6.202 -0.4274 -0.1698 -2.7928
  148DOPC   H5Y17686   2.875   6.251   6.170 -0.3875  1.0186  1.5833
  148DOPC   C3617687   2.686   6.183   6.090  0.5981  0.1531  0.0850
  148DOPC   H6X17688   2.640   6.084   6.069  1.5467 -0.1081 -0.8382
  148DOPC   H6Y17689   2.602   6.249   6.120 -0.5776  0.0932 -2.7154
  148DOPC   C3717690   2.732   6.241   5.959 -0.2100  0.4406  0.5231
  148DOPC   H7X17691   2.761   6.346   5.981 -0.0448  0.3532  0.7243
  148DOPC   H7Y17692   2.817   6.181   5.920 -0.9982 -1.4519  1.5954
  148DOPC   C3817693   2.619   6.246   5.860 -0.2396 -0.0143 -0.3358
  148DOPC   H8X17694   2.537   6.311   5.897  0.3827  0.0751  0.9663
  148DOPC   H8Y17695   2.577   6.143   5.861  0.9446 -0.5213  0.9984
  148DOPC   C3917696   2.651   6.278   5.716 -0.5447 -0.9238  0.3384
  148DOPC   H9X17697   2.673   6.384   5.697 -2.2240 -0.4905  0.6888
  148DOPC  C31017698   2.674   6.188   5.618 -0.1985 -0.1830 -0.4240
  148DOPC  H10X17699   2.708   6.228   5.522  3.4899  0.0692  0.8373
  148DOPC  C31117700   2.669   6.035   5.631  0.3053  0.2194 -0.0745
  148DOPC  H11X17701   2.688   6.014   5.739  1.2732  1.5907  0.0490
  148DOPC  H11Y17702   2.756   5.994   5.577 -0.0343  0.1747 -0.5938
  148DOPC  C31217703   2.527   5.980   5.593 -0.4943  0.6786  0.4429
  148DOPC  H12X17704   2.500   5.993   5.486 -1.0089 -1.8736  0.1899
  148DOPC  H12Y17705   2.445   6.029   5.650 -0.8713  0.1467  0.3677
  148DOPC  C31317706   2.526   5.833   5.613 -0.1579  0.7518 -0.2492
  148DOPC  H13X17707   2.595   5.783   5.541 -0.6990  1.1879 -1.0950
  148DOPC  H13Y17708   2.554   5.799   5.715 -1.1749 -1.8602 -0.7346
  148DOPC  C31417709   2.395   5.761   5.581 -0.3462  1.1865  1.0129
  148DOPC  H14X17710   2.317   5.820   5.633  1.0510  4.2745 -0.1517
  148DOPC  H14Y17711   2.376   5.766   5.472 -1.1437  2.0144  1.1782
  148DOPC  C31517712   2.392   5.619   5.638 -0.6784 -0.2411 -0.1759
  148DOPC  H15X17713   2.403   5.625   5.748  0.9434  1.1983 -0.3693
  148DOPC  H15Y17714   2.481   5.558   5.609 -0.5002  0.4488 -1.1277
  148DOPC  C31617715   2.272   5.534   5.598 -0.2449  0.2129 -0.2089
  148DOPC  H16X17716   2.274   5.448   5.668  3.1386  0.1293 -0.2282
  148DOPC  H16Y17717   2.176   5.588   5.606 -1.3218 -1.1323 -2.8482
  148DOPC  C31717718   2.288   5.476   5.454  0.3667  0.5567 -0.3020
  148DOPC  H17X17719   2.392   5.472   5.416 -0.2090  0.8188 -1.9953
  148DOPC  H17Y17720   2.253   5.372   5.473  0.2783  0.9052  1.7366
  148DOPC  C31817721   2.200   5.549   5.353 -0.1801  0.8704 -0.2688
  148DOPC  H18X17722   2.100   5.565   5.399  0.0929  1.1320  0.2374
  148DOPC  H18Y17723   2.253   5.643   5.326  2.6150 -0.2015  1.0773
  148DOPC  H18Z17724   2.198   5.487   5.261  3.4068  2.0552 -1.3018
  149DOPC     N17725   3.011   2.093   7.235  0.1247  0.2384 -0.8225
  149DOPC   C1217726   3.006   1.955   7.170 -0.6420 -0.4639  0.3284
  149DOPC  H12A17727   2.939   1.898   7.233  0.7213 -2.8962 -0.2547
  149DOPC  H12B17728   3.094   1.897   7.194 -1.6205 -2.0481  0.2371
  149DOPC   C1317729   2.871   2.160   7.237 -0.9214 -0.0866 -0.2869
  149DOPC  H13A17730   2.868   2.242   7.308 -0.2169 -1.9129  1.9664
  149DOPC  H13B17731   2.843   2.182   7.135  2.8965  1.1491 -1.2412
  149DOPC  H13C17732   2.807   2.083   7.277  1.4414 -1.4143  1.1391
  149DOPC   C1417733   3.115   2.178   7.165 -0.4510  0.5543  0.0725
  149DOPC  H14A17734   3.211   2.129   7.167 -0.1499  1.1580  1.4819
  149DOPC  H14B17735   3.085   2.197   7.062 -2.2942  1.1519  0.6703
  149DOPC  H14C17736   3.119   2.273   7.217  0.5741  0.8391 -0.4929
  149DOPC   C1517737   3.055   2.081   7.383 -0.1988  0.0766 -0.1593
  149DOPC  H15A17738   3.153   2.036   7.389  0.3211  1.2518  0.5040
  149DOPC  H15B17739   2.988   2.016   7.437  0.5912  0.4451  1.3180
  149DOPC  H15C17740   3.057   2.178   7.430  0.2767  0.0668 -0.1497
  149DOPC   C1117741   2.981   1.947   7.023 -0.3649  0.5673  0.3669
  149DOPC  H11A17742   2.888   2.004   7.004  0.8023  2.0604 -1.2069
  149DOPC  H11B17743   3.059   1.999   6.962 -1.4381  1.7024 -0.0866
  149DOPC     P17744   3.062   1.718   6.927  0.2922  0.1224  0.2926
  149DOPC   O1317745   2.995   1.586   6.923  0.1816 -0.0076 -0.1796
  149DOPC   O1417746   3.180   1.744   7.008  0.2356 -0.6993  0.2920
  149DOPC   O1217747   2.952   1.820   6.965 -0.1488  0.0140  0.2172
  149DOPC   O1117748   3.090   1.764   6.778  0.2548 -0.3445  0.0102
  149DOPC    C117749   2.995   1.769   6.671  0.0288 -0.4228  0.0911
  149DOPC    HA17750   3.016   1.859   6.610  2.1762  0.2057  1.6185
  149DOPC    HB17751   2.890   1.769   6.705  0.9572  1.1615  3.4271
  149DOPC    C217752   3.019   1.647   6.573 -0.0083  0.2963 -0.9337
  149DOPC    HS17753   3.011   1.556   6.637 -4.0216  2.5944  2.3481
  149DOPC   O2117754   3.152   1.648   6.532 -0.4503  0.3434 -0.0632
  149DOPC   C2117755   3.193   1.537   6.472 -1.0742 -0.1456  0.5870
  149DOPC   O2217756   3.159   1.422   6.491  0.1994  0.3367  0.1139
  149DOPC   C2217757   3.301   1.577   6.367  0.2504 -0.1492 -0.4909
  149DOPC   H2R17758   3.401   1.572   6.414  0.0179 -0.3086 -0.0118
  149DOPC   H2S17759   3.302   1.681   6.327 -1.6463  0.6992  1.4721
  149DOPC    C317760   2.918   1.636   6.456  0.1323 -0.4978  0.4839
  149DOPC    HX17761   2.817   1.642   6.501  0.4157  1.2171  0.9825
  149DOPC    HY17762   2.934   1.547   6.392  2.1236  1.5200 -2.0611
  149DOPC   O3117763   2.941   1.757   6.370 -0.0102  0.2511  0.3876
  149DOPC   C3117764   2.841   1.790   6.294 -0.2118  0.1426 -0.4272
  149DOPC   O3217765   2.730   1.738   6.286 -0.0880  0.7704 -0.4479
  149DOPC   C3217766   2.886   1.914   6.223  0.0849 -0.2359 -0.4713
  149DOPC   H2X17767   2.856   2.003   6.283 -0.5964 -0.1152 -0.9802
  149DOPC   H2Y17768   2.996   1.924   6.211 -0.2310  2.0172 -2.1962
  149DOPC   C2317769   3.288   1.479   6.246 -0.0196 -0.2036 -0.0501
  149DOPC   H3R17770   3.312   1.376   6.279  2.0929  0.2149 -0.1683
  149DOPC   H3S17771   3.383   1.502   6.194 -0.4182  0.8743 -0.3334
  149DOPC   C2417772   3.155   1.500   6.163  0.3734  0.3361  0.6241
  149DOPC   H4R17773   3.067   1.464   6.220  1.8102  1.3770  3.7145
  149DOPC   H4S17774   3.160   1.429   6.078  2.7387  0.6313  0.4576
  149DOPC   C2517775   3.129   1.640   6.107  0.2465  0.6822  0.1400
  149DOPC   H5R17776   3.127   1.717   6.188 -3.2086 -0.7493  1.6256
  149DOPC   H5S17777   3.025   1.646   6.068 -0.4660  0.0507  1.8336
  149DOPC   C2617778   3.232   1.679   5.989  0.0226 -0.1533 -0.7691
  149DOPC   H6R17779   3.208   1.595   5.920 -2.2714 -0.0728 -0.1557
  149DOPC   H6S17780   3.336   1.671   6.027 -0.6564 -0.5671  1.0824
  149DOPC   C2717781   3.214   1.819   5.944  0.4903  0.2724  0.1314
  149DOPC   H7R17782   3.162   1.879   6.022 -0.3608  0.3093 -0.4501
  149DOPC   H7S17783   3.158   1.821   5.848 -0.1917  0.9865  0.5386
  149DOPC   C2817784   3.354   1.885   5.918 -0.2508  1.2572  0.1214
  149DOPC   H8R17785   3.415   1.817   5.854 -0.7925 -0.8687  1.7354
  149DOPC   H8S17786   3.409   1.888   6.014 -1.2090  1.5986  0.6648
  149DOPC   C2917787   3.363   2.018   5.850 -0.1075 -0.7275 -1.1233
  149DOPC   H9R17788   3.422   2.087   5.913 -1.8869  0.4903 -0.7087
  149DOPC  C21017789   3.350   2.047   5.723  0.0684 -0.0554 -0.2706
  149DOPC  H10R17790   3.374   2.150   5.693  1.6780 -0.8330 -1.8236
  149DOPC  C21117791   3.293   1.949   5.617  0.9754 -0.4117  0.6909
  149DOPC  H11R17792   3.193   1.983   5.585  0.6720 -0.9125  1.1045
  149DOPC  H11S17793   3.276   1.846   5.654 -0.4486 -0.3930  0.1141
  149DOPC  C21217794   3.399   1.947   5.499  0.3825 -0.4218  0.5683
  149DOPC  H12R17795   3.498   1.921   5.541 -0.4575 -1.5362  1.9570
  149DOPC  H12S17796   3.413   2.046   5.452  0.2120 -1.1819 -1.1662
  149DOPC  C21317797   3.365   1.847   5.380  0.4382 -0.5469 -0.3563
  149DOPC  H13R17798   3.274   1.888   5.332  0.6121  1.9302  1.2705
  149DOPC  H13S17799   3.335   1.753   5.430 -1.4548  0.0402 -0.3133
  149DOPC  C21417800   3.482   1.837   5.279 -0.0193  0.6488 -0.0991
  149DOPC  H14R17801   3.559   1.785   5.340 -1.4837  1.3088  2.4621
  149DOPC  H14S17802   3.524   1.939   5.268  0.8250  0.5904  2.0997
  149DOPC  C21517803   3.444   1.771   5.142  0.6754 -0.1901 -0.5154
  149DOPC  H15R17804   3.437   1.661   5.161  2.3594  0.0470  2.0353
  149DOPC  H15S17805   3.531   1.793   5.077  1.6470  2.4780  1.5004
  149DOPC  C21617806   3.313   1.821   5.081 -0.1794 -0.6997  0.4270
  149DOPC  H16R17807   3.304   1.932   5.083  1.0904 -0.5064 -1.7704
  149DOPC  H16S17808   3.229   1.782   5.142 -1.0990  0.2531 -0.1886
  149DOPC  C21717809   3.282   1.775   4.935  0.1227 -0.0808 -0.1339
  149DOPC  H17R17810   3.175   1.795   4.914  0.2541  1.0000  0.1526
  149DOPC  H17S17811   3.310   1.668   4.923  0.7891  0.1311 -0.5151
  149DOPC  C21817812   3.367   1.849   4.835  0.3670 -0.3745  0.3640
  149DOPC  H18R17813   3.343   1.958   4.832  1.6575 -0.0937 -0.4553
  149DOPC  H18S17814   3.340   1.822   4.731 -3.3638 -2.6859  1.7113
  149DOPC  H18T17815   3.477   1.835   4.842  0.1564 -1.4032  2.6211
  149DOPC   C3317816   2.818   1.929   6.085 -0.4791  0.8879  0.3658
  149DOPC   H3X17817   2.709   1.937   6.104 -0.4161 -2.5711  2.9788
  149DOPC   H3Y17818   2.847   1.842   6.022  0.1857  0.0029  1.8386
  149DOPC   C3417819   2.864   2.048   6.000  0.6221 -0.0221 -0.9067
  149DOPC   H4X17820   2.975   2.044   5.998  0.7108  1.8953 -1.4306
  149DOPC   H4Y17821   2.846   2.145   6.050  1.0034  0.9762 -2.6220
  149DOPC   C3517822   2.798   2.050   5.865 -0.0282 -0.6790  0.4304
  149DOPC   H5X17823   2.702   2.105   5.867  1.8871  2.9568  2.2326
  149DOPC   H5Y17824   2.777   1.947   5.828 -0.2663  0.3593 -2.5504
  149DOPC   C3617825   2.883   2.132   5.762 -0.0279 -0.5028  1.3108
  149DOPC   H6X17826   2.904   2.235   5.797 -1.4098  0.2393  0.0573
  149DOPC   H6Y17827   2.981   2.085   5.739 -0.1433 -0.2603  0.3047
  149DOPC   C3717828   2.796   2.170   5.637  0.6716 -0.2240 -0.8569
  149DOPC   H7X17829   2.778   2.077   5.579 -0.0313  0.5071 -1.8403
  149DOPC   H7Y17830   2.694   2.201   5.668 -0.3680 -2.5781 -1.6752
  149DOPC   C3817831   2.863   2.283   5.559 -0.2696  1.4417  0.0189
  149DOPC   H8X17832   2.803   2.284   5.466 -3.4902 -0.6935  1.8710
  149DOPC   H8Y17833   2.970   2.257   5.544 -0.3193  2.1238 -1.6989
  149DOPC   C3917834   2.854   2.424   5.615  0.0667  0.7778 -0.4429
  149DOPC   H9X17835   2.749   2.449   5.641  0.5484  3.1806 -0.5175
  149DOPC  C31017836   2.957   2.501   5.655 -0.4126 -0.2887 -0.3933
  149DOPC  H10X17837   2.940   2.601   5.697 -2.8825 -1.0961  0.7421
  149DOPC  C31117838   3.107   2.483   5.643  0.6150  0.2953 -0.3952
  149DOPC  H11X17839   3.145   2.554   5.567  0.6547  0.5461 -0.1437
  149DOPC  H11Y17840   3.127   2.379   5.611  0.2287  0.3509 -0.8192
  149DOPC  C31217841   3.179   2.492   5.779 -0.1291  0.2957  0.0795
  149DOPC  H12X17842   3.152   2.593   5.817 -1.4950  0.1153 -0.3311
  149DOPC  H12Y17843   3.286   2.496   5.750 -0.0900  0.8503  0.2899
  149DOPC  C31317844   3.146   2.390   5.887 -0.2082 -0.0661  0.5705
  149DOPC  H13X17845   3.038   2.399   5.912  0.3379  0.1739  3.1162
  149DOPC  H13Y17846   3.170   2.286   5.853 -0.5440 -0.5428  1.7426
  149DOPC  C31417847   3.231   2.419   6.013  0.1793 -0.1138 -0.2124
  149DOPC  H14X17848   3.337   2.391   5.995  0.8668  0.9120  1.8847
  149DOPC  H14Y17849   3.224   2.528   6.033  1.3783  0.1797 -1.2015
  149DOPC  C31517850   3.176   2.345   6.134 -0.0767 -0.8480  0.0781
  149DOPC  H15X17851   3.065   2.354   6.140 -0.0324  0.4659 -0.5658
  149DOPC  H15Y17852   3.210   2.396   6.227 -0.4246 -0.9238  0.2493
  149DOPC  C31617853   3.234   2.204   6.150  0.1969  0.8940  0.5309
  149DOPC  H16X17854   3.193   2.138   6.071 -0.1838 -2.6151  3.4059
  149DOPC  H16Y17855   3.345   2.205   6.138  0.2850 -1.7256  0.6935
  149DOPC  C31717856   3.196   2.141   6.282 -0.5892  0.1600  0.8775
  149DOPC  H17X17857   3.235   2.198   6.369  1.1165 -0.9929  0.9234
  149DOPC  H17Y17858   3.085   2.144   6.277 -0.5660  0.2258  0.3268
  149DOPC  C31817859   3.237   1.995   6.294  0.0337 -0.7586  0.7371
  149DOPC  H18X17860   3.344   1.984   6.324  0.4563  1.1753  0.0434
  149DOPC  H18Y17861   3.189   1.941   6.379 -0.7456  1.9864  2.1479
  149DOPC  H18Z17862   3.223   1.950   6.193  2.6459  0.2451 -0.1535
  150DOPC     N17863   5.189   4.371   6.974  0.0157 -0.0550 -0.3879
  150DOPC   C1217864   5.309   4.440   7.038 -0.6831 -0.5892  0.8339
  150DOPC  H12A17865   5.377   4.360   7.063  1.5558  1.1379  0.5810
  150DOPC  H12B17866   5.297   4.499   7.127  2.0547  0.6604  0.4766
  150DOPC   C1317867   5.238   4.302   6.848  0.3051  0.5472  0.0536
  150DOPC  H13A17868   5.289   4.374   6.787 -0.4500  0.6630 -0.4583
  150DOPC  H13B17869   5.317   4.229   6.861 -0.2216  0.2661  1.8619
  150DOPC  H13C17870   5.151   4.265   6.795  0.9032 -0.6738 -0.1215
  150DOPC   C1417871   5.083   4.466   6.933 -0.0585 -0.3584  0.5176
  150DOPC  H14A17872   5.135   4.536   6.870 -0.8922  0.5986  0.8706
  150DOPC  H14B17873   5.004   4.411   6.882  1.5336 -2.1420 -0.1471
  150DOPC  H14C17874   5.041   4.522   7.015 -1.3791  0.4843 -0.6773
  150DOPC   C1517875   5.135   4.266   7.066 -0.0983  0.2390  0.1787
  150DOPC  H15A17876   5.195   4.177   7.080 -1.5989 -0.9787 -0.8588
  150DOPC  H15B17877   5.039   4.231   7.031 -0.6407  1.6547  0.2075
  150DOPC  H15C17878   5.132   4.310   7.164  1.9884  1.1320 -0.0973
  150DOPC   C1117879   5.384   4.551   6.954  0.5535  0.9552  0.0674
  150DOPC  H11A17880   5.477   4.563   7.014 -0.4645 -0.0425  1.9333
  150DOPC  H11B17881   5.405   4.499   6.858  3.7011 -1.0939  1.7055
  150DOPC     P17882   5.381   4.797   6.876 -0.0930  0.4106  0.1957
  150DOPC   O1317883   5.360   4.907   6.973  0.6211 -0.1679 -0.4384
  150DOPC   O1417884   5.335   4.815   6.737 -0.1096 -0.0489 -0.3177
  150DOPC   O1217885   5.309   4.667   6.941  0.0186 -0.2170  0.6232
  150DOPC   O1117886   5.538   4.761   6.868 -0.3160 -0.0514  0.2472
  150DOPC    C117887   5.635   4.859   6.822 -0.2519 -0.0674 -0.2129
  150DOPC    HA17888   5.721   4.852   6.892  0.4287 -0.9630 -1.1189
  150DOPC    HB17889   5.602   4.965   6.822  2.6503  0.9224  0.1840
  150DOPC    C217890   5.690   4.841   6.679  0.6208  0.4857  0.4999
  150DOPC    HS17891   5.762   4.925   6.666  0.4395  0.4439 -0.8701
  150DOPC   O2117892   5.588   4.842   6.583  0.4987  0.3963 -0.5700
  150DOPC   C2117893   5.567   4.953   6.522  0.0078  0.3868  0.1134
  150DOPC   O2217894   5.616   5.062   6.546 -1.0032 -0.0966 -0.2702
  150DOPC   C2217895   5.479   4.923   6.403  0.2271 -0.6349 -0.3627
  150DOPC   H2R17896   5.428   5.019   6.383 -0.1695  0.1170  3.5058
  150DOPC   H2S17897   5.413   4.839   6.435 -1.3875  0.6080 -0.3159
  150DOPC    C317898   5.763   4.708   6.660 -0.5632  0.1665  0.5841
  150DOPC    HX17899   5.704   4.630   6.712  0.0912 -1.7461 -1.3655
  150DOPC    HY17900   5.861   4.726   6.709  0.5426  0.3130 -1.5249
  150DOPC   O3117901   5.797   4.668   6.524  0.0230  0.2260 -0.0713
  150DOPC   C3117902   5.892   4.568   6.524  0.4570 -0.5360 -0.1023
  150DOPC   O3217903   5.926   4.502   6.621  0.2859 -0.2130 -0.7841
  150DOPC   C3217904   5.934   4.528   6.387  0.8727 -0.3882 -0.6554
  150DOPC   H2X17905   5.935   4.614   6.316  3.3639 -1.3941 -1.9358
  150DOPC   H2Y17906   6.042   4.502   6.386  0.8341 -0.5476 -0.6686
  150DOPC   C2317907   5.550   4.876   6.277 -0.9293  0.7834  0.0761
  150DOPC   H3R17908   5.648   4.927   6.270  0.3186 -1.5452  0.0122
  150DOPC   H3S17909   5.482   4.925   6.203  0.1764  0.8525 -0.9256
  150DOPC   C2417910   5.547   4.724   6.262  0.2452  0.3191 -0.0795
  150DOPC   H4R17911   5.439   4.698   6.257 -0.3726  2.3995  0.9553
  150DOPC   H4S17912   5.583   4.664   6.348  0.3183  0.7399  0.1867
  150DOPC   C2517913   5.627   4.680   6.142  0.0683 -0.7659  0.3121
  150DOPC   H5R17914   5.734   4.671   6.169 -0.2027 -0.6663  1.5012
  150DOPC   H5S17915   5.612   4.764   6.071  1.2484 -0.6406  0.2014
  150DOPC   C2617916   5.579   4.548   6.073 -0.3706  0.0597 -0.2069
  150DOPC   H6R17917   5.471   4.563   6.049 -0.2580  0.9469 -0.1874
  150DOPC   H6S17918   5.603   4.468   6.147 -2.5516  0.9591  1.6072
  150DOPC   C2717919   5.653   4.517   5.937  1.0242  0.2181 -0.2869
  150DOPC   H7R17920   5.744   4.455   5.946  1.4072  0.6363 -1.1348
  150DOPC   H7S17921   5.674   4.615   5.888 -0.2743 -0.2265 -1.8092
  150DOPC   C2817922   5.560   4.430   5.848 -0.6476 -0.4707 -0.3805
  150DOPC   H8R17923   5.496   4.376   5.921 -1.8658 -0.4766 -1.4158
  150DOPC   H8S17924   5.615   4.353   5.790  0.6763  0.6261 -0.6293
  150DOPC   C2917925   5.474   4.517   5.757  0.3395 -0.2153  0.1105
  150DOPC   H9R17926   5.419   4.594   5.812  1.7110 -0.0077  1.2398
  150DOPC  C21017927   5.458   4.503   5.623 -0.1875 -0.6805 -0.1439
  150DOPC  H10R17928   5.388   4.575   5.578 -1.5814  0.2882  3.2795
  150DOPC  C21117929   5.536   4.406   5.536 -0.0346  0.4679  0.0670
  150DOPC  H11R17930   5.471   4.338   5.476  2.2313 -1.5218 -0.2967
  150DOPC  H11S17931   5.593   4.333   5.597 -0.2189 -0.8341 -1.2688
  150DOPC  C21217932   5.654   4.458   5.449 -0.2194  1.0937 -0.4610
  150DOPC  H12R17933   5.627   4.547   5.389  0.3221  0.2898 -1.9571
  150DOPC  H12S17934   5.679   4.392   5.363  2.0712  2.1943 -0.7181
  150DOPC  C21317935   5.784   4.490   5.523  0.0559  0.0905 -0.6994
  150DOPC  H13R17936   5.860   4.424   5.476  0.6413  0.6092 -0.5023
  150DOPC  H13S17937   5.767   4.472   5.631  1.2258 -1.3048 -0.7178
  150DOPC  C21417938   5.831   4.631   5.498  0.9473  0.0224 -0.5445
  150DOPC  H14R17939   5.854   4.651   5.391 -0.3025  0.6605 -0.7123
  150DOPC  H14S17940   5.926   4.637   5.556  0.9505 -2.0181 -0.2396
  150DOPC  C21517941   5.727   4.727   5.568 -0.1136 -0.4205  0.1309
  150DOPC  H15R17942   5.735   4.703   5.676 -1.0071  0.9445  0.5240
  150DOPC  H15S17943   5.623   4.699   5.541 -0.7383  1.7146  0.1216
  150DOPC  C21617944   5.765   4.873   5.548 -0.0344 -0.1087  0.2317
  150DOPC  H16R17945   5.874   4.889   5.567 -0.0613  0.6987 -0.2298
  150DOPC  H16S17946   5.699   4.932   5.615  1.1476  0.7710  0.6534
  150DOPC  C21717947   5.725   4.908   5.401  0.0698 -0.1396 -0.2641
  150DOPC  H17R17948   5.615   4.901   5.397  0.0036 -0.9311  1.7663
  150DOPC  H17S17949   5.766   4.840   5.323  2.8433 -0.9094  1.6875
  150DOPC  C21817950   5.760   5.053   5.366 -0.7577  0.0638 -0.2233
  150DOPC  H18R17951   5.676   5.118   5.399 -0.6058  0.6625 -0.9700
  150DOPC  H18S17952   5.769   5.064   5.255 -0.4141  2.3132 -0.0196
  150DOPC  H18T17953   5.852   5.094   5.413 -0.1891 -1.3706 -0.0537
  150DOPC   C3317954   5.858   4.408   6.322  0.8958  0.1866 -0.1390
  150DOPC   H3X17955   5.876   4.419   6.212  0.0317  0.5919 -0.2446
  150DOPC   H3Y17956   5.749   4.419   6.340  0.6021 -0.7947 -1.2063
  150DOPC   C3417957   5.900   4.268   6.358  0.5410  0.1964  0.3599
  150DOPC   H4X17958   5.889   4.246   6.466 -2.5639 -0.8791 -0.0631
  150DOPC   H4Y17959   6.008   4.257   6.336  1.3068 -0.0037  3.6895
  150DOPC   C3517960   5.807   4.165   6.292 -0.5471  0.2904 -0.9504
  150DOPC   H5X17961   5.741   4.217   6.219  1.5286  0.9135 -2.4971
  150DOPC   H5Y17962   5.745   4.116   6.370 -1.7115  1.0055 -1.3975
  150DOPC   C3617963   5.881   4.063   6.204 -0.4542  0.4650 -0.4578
  150DOPC   H6X17964   5.937   4.110   6.120  0.4652  0.0797 -0.0841
  150DOPC   H6Y17965   5.954   4.012   6.270  1.0323 -0.8121 -2.9248
  150DOPC   C3717966   5.788   3.961   6.138 -0.5879  0.3038 -0.5853
  150DOPC   H7X17967   5.846   3.880   6.089  0.4988  0.6753  0.0542
  150DOPC   H7Y17968   5.730   3.902   6.212 -0.2788  0.3235 -0.3240
  150DOPC   C3817969   5.678   4.006   6.034 -0.2856  0.3355  0.7845
  150DOPC   H8X17970   5.598   4.076   6.067 -1.9042 -1.0996  0.0582
  150DOPC   H8Y17971   5.622   3.914   6.007 -0.4629  0.7424 -0.2853
  150DOPC   C3917972   5.735   4.080   5.912  0.2905  0.4240 -0.4800
  150DOPC   H9X17973   5.773   4.181   5.937 -1.9694  0.7541  2.1226
  150DOPC  C31017974   5.718   4.050   5.785 -0.5672  0.1992 -0.1263
  150DOPC  H10X17975   5.782   4.106   5.715 -0.5534  1.2219  0.6823
  150DOPC  C31117976   5.648   3.927   5.727 -0.3493  0.7649  0.1209
  150DOPC  H11X17977   5.606   3.861   5.805 -1.8320  1.7778  0.2177
  150DOPC  H11Y17978   5.724   3.860   5.681 -0.2612  1.7899 -1.3028
  150DOPC  C31217979   5.557   3.962   5.613 -0.6344  0.4630 -0.8234
  150DOPC  H12X17980   5.486   4.041   5.646  0.1697  0.7891  0.1523
  150DOPC  H12Y17981   5.510   3.863   5.592  3.1070 -1.3012 -1.6478
  150DOPC  C31317982   5.615   4.018   5.473  0.3761  0.5655 -0.1141
  150DOPC  H13X17983   5.635   4.127   5.482  0.4878  0.6884 -1.6563
  150DOPC  H13Y17984   5.704   3.957   5.444  0.2927  0.5366 -0.3055
  150DOPC  C31417985   5.524   4.013   5.354  1.3349 -0.9840 -0.0420
  150DOPC  H14X17986   5.446   4.084   5.389  1.1564 -1.1034 -0.2021
  150DOPC  H14Y17987   5.572   4.057   5.264 -0.2158  2.6676  0.7503
  150DOPC  C31517988   5.464   3.874   5.336  0.4665  0.3429  0.3804
  150DOPC  H15X17989   5.398   3.856   5.423  0.9851 -1.0659  0.5093
  150DOPC  H15Y17990   5.537   3.790   5.333 -1.5964 -1.5954  1.7350
  150DOPC  C31617991   5.383   3.862   5.201 -0.7371 -0.1931 -0.3841
  150DOPC  H16X17992   5.288   3.916   5.221 -1.1905 -1.0353 -0.1920
  150DOPC  H16Y17993   5.439   3.900   5.113 -0.3011 -0.8104 -0.3769
  150DOPC  C31717994   5.355   3.717   5.160 -0.3988 -0.1882 -0.2413
  150DOPC  H17X17995   5.443   3.650   5.176 -1.3556 -1.3043  0.5241
  150DOPC  H17Y17996   5.278   3.675   5.228 -1.4001 -1.2893 -1.9771
  150DOPC  C31817997   5.300   3.704   5.013  1.0554 -0.1079  0.7537
  150DOPC  H18X17998   5.370   3.758   4.945  0.4643 -0.1478  0.1114
  150DOPC  H18Y17999   5.295   3.602   4.970  1.2607  0.8977 -1.7897
  150DOPC  H18Z18000   5.198   3.747   5.012  1.3862  0.7158  1.0671
  151DOPC     N18001   0.802   3.044   6.383  0.2982 -0.3841  0.8112
  151DOPC   C1218002   0.715   3.122   6.472  0.7740  0.1793  0.2786
  151DOPC  H12A18003   0.615   3.081   6.477  0.4236  0.4334 -2.7176
  151DOPC  H12B18004   0.702   3.221   6.429 -0.7674 -0.0718  0.0902
  151DOPC   C1318005   0.747   3.042   6.238  0.4101 -0.3599 -0.7151
  151DOPC  H13A18006   0.745   3.143   6.200  1.3356  0.5019  1.3511
  151DOPC  H13B18007   0.810   2.985   6.171  1.7115  0.0392  0.1249
  151DOPC  H13C18008   0.643   3.014   6.247  0.6924 -0.7792  2.7124
  151DOPC   C1418009   0.806   2.898   6.430 -0.1875 -0.0876  0.3822
  151DOPC  H14A18010   0.716   2.838   6.438  1.3492 -2.5110  0.6193
  151DOPC  H14B18011   0.856   2.847   6.350 -0.8570 -2.0490  1.1408
  151DOPC  H14C18012   0.869   2.882   6.516  0.5074 -0.8525 -0.2553
  151DOPC   C1518013   0.938   3.106   6.379  0.0630  0.1298 -0.1868
  151DOPC  H15A18014   0.946   3.209   6.350  1.8286  0.3946  1.0596
  151DOPC  H15B18015   1.008   3.044   6.324 -0.0937  0.1488 -0.4088
  151DOPC  H15C18016   0.965   3.122   6.483  0.0493  2.8169 -0.5362
  151DOPC   C1118017   0.751   3.138   6.625  0.6025  0.0648  0.4347
  151DOPC  H11A18018   0.764   3.034   6.661 -1.8462 -0.9723 -1.3517
  151DOPC  H11B18019   0.845   3.197   6.627  0.8779 -0.3065 -0.5795
  151DOPC     P18020   0.598   3.341   6.698  0.2349  0.0747  0.2397
  151DOPC   O1318021   0.690   3.426   6.772 -1.2899 -0.0719 -0.2087
  151DOPC   O1418022   0.451   3.349   6.736 -0.5006  0.1113  0.5320
  151DOPC   O1218023   0.646   3.192   6.706 -0.1200 -0.0341  0.7415
  151DOPC   O1118024   0.627   3.373   6.545  0.1795  0.4693 -0.4096
  151DOPC    C118025   0.537   3.444   6.461  0.1935 -0.2017 -0.1735
  151DOPC    HA18026   0.532   3.551   6.492 -2.1836 -0.5259  0.8247
  151DOPC    HB18027   0.437   3.395   6.463  0.2993 -0.4098  1.2812
  151DOPC    C218028   0.587   3.443   6.314  0.3532  0.5176  0.3971
  151DOPC    HS18029   0.597   3.334   6.294  2.2232  0.7969 -0.4095
  151DOPC   O2118030   0.717   3.501   6.296 -0.1768 -0.9699  0.3115
  151DOPC   C2118031   0.791   3.451   6.197 -0.5096  0.3168  0.0106
  151DOPC   O2218032   0.768   3.344   6.139 -0.6340 -0.3148 -0.3497
  151DOPC   C2218033   0.904   3.553   6.172 -0.0804  0.1599 -0.0700
  151DOPC   H2R18034   0.951   3.582   6.269  0.5306  0.1311 -0.3563
  151DOPC   H2S18035   0.845   3.642   6.142  0.7176  0.7695  0.1209
  151DOPC    C318036   0.483   3.501   6.210  0.4516  0.3872 -0.1846
  151DOPC    HX18037   0.491   3.610   6.225 -1.7929  0.3833  1.4734
  151DOPC    HY18038   0.381   3.473   6.243  1.2210 -0.3707  1.7748
  151DOPC   O3118039   0.499   3.454   6.070  0.0805  0.1305 -0.4442
  151DOPC   C3118040   0.466   3.327   6.050  0.0416  0.0861  0.8159
  151DOPC   O3218041   0.428   3.254   6.139 -0.5357 -0.1625 -1.0126
  151DOPC   C3218042   0.483   3.298   5.903  0.0680  0.0163 -0.1115
  151DOPC   H2X18043   0.404   3.356   5.851 -1.0103 -1.2664  0.0551
  151DOPC   H2Y18044   0.573   3.342   5.856  0.5094  0.3642  1.0040
  151DOPC   C2318045   1.019   3.525   6.069  0.3669  0.3449 -0.6656
  151DOPC   H3R18046   0.995   3.451   5.991 -1.2132  0.8013 -0.6426
  151DOPC   H3S18047   1.104   3.475   6.121  1.2127  1.1269 -1.2533
  151DOPC   C2418048   1.076   3.654   6.005  0.6871 -0.0462 -0.8019
  151DOPC   H4R18049   1.080   3.732   6.083  0.0787 -0.3835 -0.4247
  151DOPC   H4S18050   1.004   3.698   5.932  0.0575 -0.0266 -0.1861
  151DOPC   C2518051   1.208   3.632   5.933 -0.0654  0.1974  0.2545
  151DOPC   H5R18052   1.189   3.598   5.829  0.2458 -1.4287  0.7011
  151DOPC   H5S18053   1.269   3.552   5.981 -1.0105 -0.6056  0.1426
  151DOPC   C2618054   1.304   3.750   5.929 -0.3697 -1.4378  0.4171
  151DOPC   H6R18055   1.338   3.760   6.034  1.9121 -2.6624 -0.1453
  151DOPC   H6S18056   1.241   3.838   5.903 -1.1404 -1.9227  0.5977
  151DOPC   C2718057   1.441   3.727   5.856  0.0212  0.7596 -0.5924
  151DOPC   H7R18058   1.437   3.705   5.748 -0.1535  1.1269 -0.6646
  151DOPC   H7S18059   1.494   3.645   5.909  1.9952  1.1708 -1.8482
  151DOPC   C2818060   1.542   3.844   5.858  0.3633  0.0786  0.1243
  151DOPC   H8R18061   1.578   3.845   5.964  1.3366  0.1236 -0.1982
  151DOPC   H8S18062   1.489   3.940   5.841  1.5462  1.2654  2.5236
  151DOPC   C2918063   1.662   3.822   5.773  0.1710  0.1663  1.0253
  151DOPC   H9R18064   1.730   3.756   5.829 -0.9453 -2.3359 -0.3646
  151DOPC  C21018065   1.698   3.882   5.665 -0.2061  0.0931 -0.0016
  151DOPC  H10R18066   1.767   3.828   5.599 -1.3615 -0.3679 -0.8612
  151DOPC  C21118067   1.606   3.977   5.595 -0.3947 -0.6128 -0.5918
  151DOPC  H11R18068   1.523   4.010   5.660  1.1719 -1.5783  2.0353
  151DOPC  H11S18069   1.565   3.924   5.506  0.8802  0.3004 -1.7551
  151DOPC  C21218070   1.679   4.104   5.543 -0.2259 -0.1019 -0.5678
  151DOPC  H12R18071   1.764   4.120   5.612  0.6919 -0.4392 -1.5972
  151DOPC  H12S18072   1.609   4.189   5.559 -3.6490 -2.8427  0.3116
  151DOPC  C21318073   1.726   4.100   5.397  0.0577 -0.2717  0.4768
  151DOPC  H13R18074   1.630   4.125   5.346  1.3294 -0.4996 -2.1822
  151DOPC  H13S18075   1.757   3.997   5.372  0.0393 -0.2972  0.5604
  151DOPC  C21418076   1.832   4.197   5.348 -0.4368  0.1703  0.1211
  151DOPC  H14R18077   1.918   4.169   5.413  0.0184  0.7913 -0.2029
  151DOPC  H14S18078   1.816   4.306   5.365  1.2037  0.7777 -1.8349
  151DOPC  C21518079   1.877   4.177   5.204 -0.0967  0.2713  0.6272
  151DOPC  H15R18080   1.798   4.224   5.142 -0.3254  0.2181  0.8776
  151DOPC  H15S18081   1.884   4.073   5.166 -1.8131  0.8528 -1.4812
  151DOPC  C21618082   2.009   4.255   5.180 -0.2255 -0.3440  0.4561
  151DOPC  H16R18083   2.083   4.208   5.249  1.2144  1.4073  0.1763
  151DOPC  H16S18084   2.006   4.363   5.204 -0.4184 -0.0957 -0.6542
  151DOPC  C21718085   2.060   4.233   5.037  0.4320  0.0779  0.4334
  151DOPC  H17R18086   2.037   4.127   5.009 -0.6939 -0.0745  1.8236
  151DOPC  H17S18087   2.169   4.257   5.034 -0.0277  2.4647  1.3036
  151DOPC  C21818088   1.984   4.316   4.930 -0.0808  0.4991 -0.6866
  151DOPC  H18R18089   1.876   4.289   4.936  0.4391 -2.1842 -1.8184
  151DOPC  H18S18090   2.009   4.281   4.828 -0.6261 -0.9401 -0.3578
  151DOPC  H18T18091   2.001   4.425   4.940  0.1213  0.3978  0.2511
  151DOPC   C3318092   0.456   3.153   5.867 -0.5398 -0.1417 -0.1274
  151DOPC   H3X18093   0.367   3.122   5.926 -1.0052  1.6854  0.1628
  151DOPC   H3Y18094   0.546   3.095   5.900 -1.1633 -0.2048  1.5569
  151DOPC   C3418095   0.432   3.126   5.722  0.3638 -0.5336 -0.0669
  151DOPC   H4X18096   0.424   3.015   5.710 -0.2382 -0.5123  0.0907
  151DOPC   H4Y18097   0.518   3.157   5.659  0.0086 -2.7178 -1.7596
  151DOPC   C3518098   0.309   3.182   5.658  0.2504 -0.1099  0.5070
  151DOPC   H5X18099   0.318   3.292   5.652 -0.4613 -0.0561 -4.8957
  151DOPC   H5Y18100   0.226   3.158   5.727 -0.6633 -1.1107 -0.8749
  151DOPC   C3618101   0.268   3.137   5.522 -0.4187  0.6092 -0.1086
  151DOPC   H6X18102   0.352   3.161   5.454 -0.4155 -2.6112 -1.4214
  151DOPC   H6Y18103   0.240   3.029   5.524 -0.0280  0.4157 -2.4645
  151DOPC   C3718104   0.138   3.198   5.473  0.1692 -0.7520 -0.3608
  151DOPC   H7X18105   0.074   3.214   5.563  0.7613 -1.5358  0.2194
  151DOPC   H7Y18106   0.153   3.305   5.448  0.6260 -0.5264  0.8096
  151DOPC   C3818107   0.071   3.125   5.362 -0.8586 -0.0874  0.8418
  151DOPC   H8X18108   0.062   3.016   5.383  0.2139 -0.1933  0.7677
  151DOPC   H8Y18109   0.128   3.142   5.268 -0.8274 -1.1315  0.6583
  151DOPC   C3918110  -0.070   3.184   5.343  0.1299  0.6755 -0.7966
  151DOPC   H9X18111  -0.099   3.256   5.421  0.2241 -0.8450  0.7176
  151DOPC  C31018112  -0.153   3.143   5.244  0.4343 -0.3792  0.1205
  151DOPC  H10X18113  -0.245   3.200   5.225  0.9593 -0.0234 -1.4957
  151DOPC  C31118114  -0.127   3.043   5.138 -0.1489 -0.0630 -0.2055
  151DOPC  H11X18115  -0.017   3.033   5.127  0.0204 -0.5235  1.6072
  151DOPC  H11Y18116  -0.163   3.086   5.042 -0.0543  0.0855 -0.1744
  151DOPC  C31218117  -0.168   2.900   5.157 -0.1350 -0.5887 -0.2053
  151DOPC  H12X18118  -0.172   2.877   5.266  1.0743  0.0310 -0.0109
  151DOPC  H12Y18119  -0.090   2.841   5.106  0.7181  0.3328 -0.0036
  151DOPC  C31318120  -0.304   2.878   5.085 -0.5551 -0.5995  0.2006
  151DOPC  H13X18121  -0.381   2.935   5.140  0.0136 -0.3959  0.7954
  151DOPC  H13Y18122  -0.302   2.926   4.984 -2.1102 -2.8388 -0.9901
  151DOPC  C31418123  -0.341   2.735   5.094 -0.4353 -0.6329  0.1942
  151DOPC  H14X18124  -0.270   2.661   5.051 -1.0888 -1.9362  1.2561
  151DOPC  H14Y18125  -0.348   2.723   5.205 -2.6413  0.5003  0.2381
  151DOPC  C31518126  -0.485   2.707   5.046 -0.5478  0.6170 -1.0030
  151DOPC  H15X18127  -0.558   2.757   5.114  1.0214 -1.3456  2.3581
  151DOPC  H15Y18128  -0.501   2.599   5.067  0.9018  0.6281  0.3020
  151DOPC  C31618129  -0.507   2.747   4.902  0.7429 -0.4717 -0.1118
  151DOPC  H16X18130  -0.609   2.722   4.864 -0.0188  2.5344 -0.3371
  151DOPC  H16Y18131  -0.499   2.858   4.906  0.1782 -0.4594  0.9317
  151DOPC  C31718132  -0.402   2.692   4.810  0.2622 -0.0789 -0.0233
  151DOPC  H17X18133  -0.302   2.734   4.830  0.3195  0.7035 -1.7532
  151DOPC  H17Y18134  -0.402   2.582   4.822 -1.3551 -0.2208 -0.9472
  151DOPC  C31818135  -0.435   2.723   4.661 -0.1587 -0.0937  1.0224
  151DOPC  H18X18136  -0.455   2.830   4.642 -0.3736 -0.5797 -1.9207
  151DOPC  H18Y18137  -0.357   2.690   4.589 -0.2268  2.1731 -0.1618
  151DOPC  H18Z18138  -0.529   2.666   4.645  0.6649 -1.1013 -0.4558
  152DOPC     N18139   2.969   0.292   7.404  0.8436 -0.7627  0.4989
  152DOPC   C1218140   3.063   0.206   7.321 -0.5647  0.2354 -0.0570
  152DOPC  H12A18141   3.003   0.143   7.257 -2.1737 -0.0195  1.5893
  152DOPC  H12B18142   3.109   0.137   7.390 -1.3577  0.1277  0.3737
  152DOPC   C1318143   3.044   0.352   7.518  0.2800 -0.0177 -0.1075
  152DOPC  H13A18144   2.979   0.422   7.567  0.4781  0.1478 -0.0811
  152DOPC  H13B18145   3.059   0.274   7.592  1.3683 -1.3132 -1.6101
  152DOPC  H13C18146   3.138   0.392   7.483 -1.2289  0.9817 -3.4146
  152DOPC   C1418147   2.866   0.200   7.458  0.7095 -0.5020 -0.5241
  152DOPC  H14A18148   2.834   0.135   7.378 -0.3008  0.0231 -0.5600
  152DOPC  H14B18149   2.911   0.146   7.540  2.3520 -0.2983 -1.2589
  152DOPC  H14C18150   2.783   0.255   7.500  0.9208  0.4961 -1.3932
  152DOPC   C1518151   2.905   0.400   7.313  0.1336  0.1359 -0.4320
  152DOPC  H15A18152   2.859   0.369   7.220  0.3956  1.5470 -1.0577
  152DOPC  H15B18153   2.978   0.476   7.290 -2.4627  2.5860 -1.2079
  152DOPC  H15C18154   2.833   0.453   7.374  0.0996 -0.5000  0.0801
  152DOPC   C1118155   3.172   0.277   7.229  0.4913 -0.1569 -0.5050
  152DOPC  H11A18156   3.231   0.197   7.181  0.2781 -0.7219  0.1659
  152DOPC  H11B18157   3.116   0.330   7.149  1.1692 -0.1699 -1.0007
  152DOPC     P18158   3.397   0.347   7.328 -0.3589 -0.1191 -0.0002
  152DOPC   O1318159   3.412   0.216   7.385  0.1846 -0.6215  0.1031
  152DOPC   O1418160   3.467   0.456   7.406  0.5202  0.6651  0.3648
  152DOPC   O1218161   3.246   0.376   7.304 -0.0514 -0.7680 -0.1975
  152DOPC   O1118162   3.464   0.351   7.183  0.1584 -0.0565  0.1550
  152DOPC    C118163   3.575   0.268   7.152 -0.1969 -0.2017 -0.3269
  152DOPC    HA18164   3.553   0.169   7.197 -2.0533  1.8020  3.7469
  152DOPC    HB18165   3.660   0.324   7.197 -2.0322  2.2883  0.2977
  152DOPC    C218166   3.597   0.244   7.006 -0.4200  0.2471  0.5321
  152DOPC    HS18167   3.680   0.172   6.987  0.1832  0.8064  0.9821
  152DOPC   O2118168   3.622   0.371   6.940  0.1046 -0.1242  0.0609
  152DOPC   C2118169   3.752   0.396   6.916 -0.2868 -0.0575  0.2345
  152DOPC   O2218170   3.843   0.324   6.965  0.0252  0.0601  0.2886
  152DOPC   C2218171   3.761   0.528   6.833  0.0999  0.1024  0.1850
  152DOPC   H2R18172   3.777   0.618   6.896  0.2096  1.4876 -1.7069
  152DOPC   H2S18173   3.660   0.532   6.786 -0.1344 -0.9925  0.5760
  152DOPC    C318174   3.467   0.182   6.951 -0.3052  0.0024 -0.1160
  152DOPC    HX18175   3.373   0.234   6.980 -0.8553  0.7069 -2.8690
  152DOPC    HY18176   3.460   0.080   6.996  1.4525 -0.5561 -1.0201
  152DOPC   O3118177   3.472   0.159   6.810  0.6283 -0.0334 -0.1618
  152DOPC   C3118178   3.404   0.249   6.739 -0.1999  0.0774 -0.0508
  152DOPC   O3218179   3.338   0.341   6.787 -0.3085  0.1938 -0.2731
  152DOPC   C3218180   3.430   0.224   6.591  0.1048 -0.3602  0.3576
  152DOPC   H2X18181   3.540   0.236   6.583  0.1006 -0.7389 -0.2520
  152DOPC   H2Y18182   3.413   0.115   6.576  3.6521 -1.3492  2.3329
  152DOPC   C2318183   3.874   0.540   6.731 -0.1137  0.3466 -0.3350
  152DOPC   H3R18184   3.969   0.496   6.769 -0.4811  0.5403  0.8663
  152DOPC   H3S18185   3.896   0.648   6.716  0.7054  0.2840  0.3244
  152DOPC   C2418186   3.844   0.475   6.598  0.8594 -0.1433 -0.2339
  152DOPC   H4R18187   3.757   0.524   6.549  1.6119  0.5227 -0.9435
  152DOPC   H4S18188   3.820   0.367   6.605  0.3820 -0.1186 -1.2315
  152DOPC   C2518189   3.964   0.483   6.501 -0.8044 -0.7776  0.0847
  152DOPC   H5R18190   4.050   0.420   6.531  0.0084 -0.1780 -0.9108
  152DOPC   H5S18191   4.000   0.585   6.476  1.0520 -1.4218 -0.0094
  152DOPC   C2618192   3.923   0.419   6.364  0.5341 -0.6318  0.6820
  152DOPC   H6R18193   3.843   0.477   6.312 -3.0802 -3.1214  3.0007
  152DOPC   H6S18194   3.866   0.326   6.384 -0.4025  0.1724  1.9458
  152DOPC   C2718195   4.040   0.393   6.266  0.0559 -0.0195  0.1262
  152DOPC   H7R18196   4.126   0.348   6.320  1.1458  2.8324  0.8908
  152DOPC   H7S18197   4.079   0.488   6.223  1.5714  0.3776  2.2287
  152DOPC   C2818198   4.008   0.276   6.164  0.1625 -0.0144  0.2719
  152DOPC   H8R18199   3.939   0.199   6.207  0.9852 -1.4311 -0.8374
  152DOPC   H8S18200   4.097   0.219   6.129 -1.3215 -2.4096  0.1529
  152DOPC   C2918201   3.937   0.340   6.051 -0.0147 -0.0723 -0.1562
  152DOPC   H9R18202   3.863   0.417   6.077  0.3211  1.9678 -4.4119
  152DOPC  C21018203   3.954   0.308   5.921  0.0774  0.1158  0.3661
  152DOPC  H10R18204   3.894   0.357   5.843 -0.0332  0.6028  0.7503
  152DOPC  C21118205   4.041   0.192   5.869  0.3777 -0.5441  1.1312
  152DOPC  H11R18206   4.021   0.095   5.919 -2.2377 -2.5986 -3.2849
  152DOPC  H11S18207   4.149   0.217   5.873  0.3945  0.5650 -2.6009
  152DOPC  C21218208   4.003   0.153   5.722  0.0517  0.1514  0.1020
  152DOPC  H12R18209   4.080   0.083   5.683 -1.0472 -1.2441  0.3445
  152DOPC  H12S18210   3.996   0.251   5.672  0.0443  0.1504  0.1008
  152DOPC  C21318211   3.869   0.079   5.730 -0.0182  0.3434 -0.2877
  152DOPC  H13R18212   3.788   0.152   5.750 -0.9627 -1.0202  1.1188
  152DOPC  H13S18213   3.879  -0.001   5.807  4.4813 -0.5702 -1.5589
  152DOPC  C21418214   3.848   0.002   5.597  0.7761 -0.0464  1.0211
  152DOPC  H14R18215   3.789  -0.090   5.616  1.6594 -0.9298 -0.2832
  152DOPC  H14S18216   3.945  -0.029   5.552  0.2911  2.4521 -2.1125
  152DOPC  C21518217   3.786   0.104   5.494  0.2599 -0.3421 -0.4581
  152DOPC  H15R18218   3.845   0.198   5.489  0.5047 -0.4584  0.1345
  152DOPC  H15S18219   3.687   0.133   5.535  0.3369  0.2071 -0.6526
  152DOPC  C21618220   3.768   0.040   5.357  0.9312 -0.0857 -0.1256
  152DOPC  H16R18221   3.709  -0.053   5.370 -1.7549  1.3770 -1.0081
  152DOPC  H16S18222   3.858   0.017   5.296  1.8420  0.1456  1.1019
  152DOPC  C21718223   3.671   0.121   5.262 -0.5121  0.2476 -0.4817
  152DOPC  H17R18224   3.710   0.225   5.256  1.6905 -0.4156  1.0889
  152DOPC  H17S18225   3.569   0.124   5.307 -0.3800 -3.5114  0.4343
  152DOPC  C21818226   3.665   0.061   5.122 -0.1566  0.1025 -0.4383
  152DOPC  H18R18227   3.591   0.116   5.059 -0.7858 -0.2279 -0.0054
  152DOPC  H18S18228   3.635  -0.045   5.139 -2.6349  1.0906  2.3424
  152DOPC  H18T18229   3.768   0.061   5.082  1.3231  3.3694  2.8456
  152DOPC   C3318230   3.340   0.311   6.499 -0.1018 -0.7224 -0.1918
  152DOPC   H3X18231   3.240   0.307   6.548  0.1206  0.7240  0.4221
  152DOPC   H3Y18232   3.335   0.253   6.405 -0.1465 -0.7704 -0.1597
  152DOPC   C3418233   3.393   0.450   6.496 -0.5205 -0.5778 -0.4739
  152DOPC   H4X18234   3.469   0.462   6.577  0.2882 -3.9009 -0.5669
  152DOPC   H4Y18235   3.309   0.522   6.503 -1.1606 -1.4341  1.8216
  152DOPC   C3518236   3.465   0.472   6.362 -0.3552 -0.8301 -0.1220
  152DOPC   H5X18237   3.543   0.393   6.351  0.1180 -0.4823  0.6877
  152DOPC   H5Y18238   3.527   0.563   6.377 -0.2134 -0.5495 -2.0972
  152DOPC   C3618239   3.381   0.491   6.242  0.5423  0.1547  0.7438
  152DOPC   H6X18240   3.311   0.406   6.227 -1.1251  1.5625  0.2876
  152DOPC   H6Y18241   3.312   0.575   6.266 -0.6048  0.3235 -2.5836
  152DOPC   C3718242   3.458   0.513   6.108 -0.2603 -0.2642  0.0305
  152DOPC   H7X18243   3.519   0.605   6.116 -0.9880  0.3522 -1.1189
  152DOPC   H7Y18244   3.531   0.433   6.082  2.6272  1.9083  0.9626
  152DOPC   C3818245   3.368   0.533   5.985 -0.6581 -0.4306  0.0955
  152DOPC   H8X18246   3.423   0.580   5.901 -0.7414 -0.7353 -0.1317
  152DOPC   H8Y18247   3.298   0.614   6.015  1.7848  0.7124  3.2950
  152DOPC   C3918248   3.292   0.408   5.944  0.2187 -0.2919 -0.2697
  152DOPC   H9X18249   3.288   0.330   6.021  2.7336  1.0473  1.3725
  152DOPC  C31018250   3.205   0.413   5.841  0.2654  0.2528 -0.7713
  152DOPC  H10X18251   3.150   0.320   5.820  2.2461 -0.7081 -2.0324
  152DOPC  C31118252   3.182   0.538   5.754  0.2632 -0.0776 -0.3031
  152DOPC  H11X18253   3.206   0.629   5.813  1.4662 -0.3059 -0.4080
  152DOPC  H11Y18254   3.079   0.551   5.715  0.6658 -0.4942 -1.5684
  152DOPC  C31218255   3.268   0.555   5.625 -0.2166  0.2913  0.4205
  152DOPC  H12X18256   3.375   0.555   5.656 -0.4243 -0.2832  1.1539
  152DOPC  H12Y18257   3.243   0.651   5.575  0.7129  0.7704  0.8450
  152DOPC  C31318258   3.248   0.444   5.530  0.4337 -0.5096 -0.1878
  152DOPC  H13X18259   3.258   0.341   5.570 -2.4505 -1.0991 -0.7843
  152DOPC  H13Y18260   3.142   0.445   5.498  0.0262  0.3247  1.1111
  152DOPC  C31418261   3.350   0.451   5.408  0.4147  0.9071  0.9764
  152DOPC  H14X18262   3.333   0.546   5.351  0.1859  1.0105  1.2177
  152DOPC  H14Y18263   3.450   0.445   5.456  0.5501  0.2258  0.6218
  152DOPC  C31518264   3.347   0.323   5.321 -0.1680  0.3845  0.4781
  152DOPC  H15X18265   3.356   0.243   5.397 -2.7619  0.9473  1.4988
  152DOPC  H15Y18266   3.440   0.324   5.260 -0.2223 -1.5884  0.2839
  152DOPC  C31618267   3.219   0.306   5.241  0.4025  0.0100  0.5874
  152DOPC  H16X18268   3.133   0.276   5.304  0.8171 -0.1326  1.0894
  152DOPC  H16Y18269   3.196   0.402   5.191 -1.0746 -0.6652 -0.0963
  152DOPC  C31718270   3.242   0.195   5.129  0.9192 -0.2703  0.3631
  152DOPC  H17X18271   3.321   0.224   5.057 -0.6063  0.5692 -1.0408
  152DOPC  H17Y18272   3.286   0.112   5.188  0.6840  0.7490  2.0426
  152DOPC  C31818273   3.117   0.166   5.054 -0.7059  0.1661 -0.1388
  152DOPC  H18X18274   3.041   0.120   5.121 -0.2309  0.8816  0.9288
  152DOPC  H18Y18275   3.076   0.261   5.014 -2.4549  1.1372  3.4690
  152DOPC  H18Z18276   3.151   0.087   4.984  2.2760  0.2037  1.1163
  153DOPC     N18277   5.415   6.088   6.776  0.3858 -0.0001  0.2761
  153DOPC   C1218278   5.282   6.121   6.701 -0.0251  0.1296 -0.1673
  153DOPC  H12A18279   5.238   6.031   6.661 -2.2207 -0.4074  3.0098
  153DOPC  H12B18280   5.302   6.179   6.613  3.0128 -1.6926 -0.8295
  153DOPC   C1318281   5.390   6.013   6.907  0.0363 -0.3837 -0.2200
  153DOPC  H13A18282   5.337   5.924   6.876 -0.2466 -0.2147 -0.2221
  153DOPC  H13B18283   5.482   5.992   6.959 -0.0682 -1.8154 -0.5748
  153DOPC  H13C18284   5.331   6.072   6.975 -0.4868 -0.3571 -0.6904
  153DOPC   C1418285   5.487   6.215   6.824  0.0848  0.3623 -0.0886
  153DOPC  H14A18286   5.441   6.275   6.901  0.1718  0.6595 -0.2657
  153DOPC  H14B18287   5.579   6.188   6.875 -0.1957 -1.6920 -0.5556
  153DOPC  H14C18288   5.501   6.279   6.739  1.9787 -1.7437 -1.4875
  153DOPC   C1518289   5.506   6.015   6.696 -0.1722 -0.4521  0.2396
  153DOPC  H15A18290   5.522   6.061   6.600 -2.9506  2.3536  0.9454
  153DOPC  H15B18291   5.459   5.921   6.673 -2.2798  0.7599 -0.6968
  153DOPC  H15C18292   5.605   6.001   6.739  0.1169  0.3196 -0.1606
  153DOPC   C1118293   5.172   6.185   6.792 -0.1864  0.0054 -0.2439
  153DOPC  H11A18294   5.081   6.195   6.730 -1.1204 -1.4124  0.8203
  153DOPC  H11B18295   5.144   6.128   6.883 -1.9252  1.5444  0.2520
  153DOPC     P18296   5.207   6.446   6.759  0.7351  0.2756 -0.1399
  153DOPC   O1318297   5.258   6.559   6.842 -0.7086  0.5918  0.1580
  153DOPC   O1418298   5.065   6.456   6.713 -0.3351  0.2383  0.0294
  153DOPC   O1218299   5.212   6.313   6.841 -0.0819 -0.5766 -0.7324
  153DOPC   O1118300   5.314   6.414   6.644  0.5869  0.3239  0.1674
  153DOPC    C118301   5.429   6.498   6.626 -0.0323 -0.2625 -0.3246
  153DOPC    HA18302   5.502   6.480   6.707 -0.8342  2.0403  1.0140
  153DOPC    HB18303   5.406   6.604   6.649  0.1116 -0.6706  1.8349
  153DOPC    C218304   5.494   6.467   6.490  0.3219 -0.2396 -0.5599
  153DOPC    HS18305   5.599   6.500   6.506  0.2502 -0.5232  0.5433
  153DOPC   O2118306   5.440   6.545   6.384  0.4355  0.1228  0.1618
  153DOPC   C2118307   5.476   6.673   6.384 -0.5668  0.5369  0.5809
  153DOPC   O2218308   5.552   6.726   6.465 -0.0188  0.4750 -0.5205
  153DOPC   C2218309   5.391   6.752   6.278 -0.3661 -0.3497 -0.1597
  153DOPC   H2R18310   5.290   6.780   6.313 -1.6358 -2.2939 -2.0292
  153DOPC   H2S18311   5.365   6.679   6.198 -0.3893 -0.4228 -0.0847
  153DOPC    C318312   5.493   6.317   6.456 -0.0508  0.1098  0.2404
  153DOPC    HX18313   5.386   6.287   6.450  0.0163  0.2509 -2.4951
  153DOPC    HY18314   5.546   6.266   6.540  0.3779  1.8310  1.0630
  153DOPC   O3118315   5.570   6.289   6.338 -0.2534  0.0785 -0.4362
  153DOPC   C3118316   5.513   6.216   6.240  0.2841 -0.3489 -0.1613
  153DOPC   O3218317   5.406   6.161   6.250  0.0516 -0.2168 -0.4910
  153DOPC   C3218318   5.612   6.218   6.121 -0.4756 -0.5389  0.4082
  153DOPC   H2X18319   5.679   6.306   6.129 -1.9004  0.5970  0.4347
  153DOPC   H2Y18320   5.678   6.129   6.126  2.6134  1.6705  3.2390
  153DOPC   C2318321   5.470   6.878   6.226  1.1173  0.4119  0.1418
  153DOPC   H3R18322   5.569   6.862   6.178  1.3430  2.0337  0.0014
  153DOPC   H3S18323   5.495   6.947   6.310 -1.5367  0.6609  0.8105
  153DOPC   C2418324   5.382   6.955   6.124 -0.2900 -0.2154  0.0202
  153DOPC   H4R18325   5.450   7.036   6.092 -0.6629 -0.3775 -1.2394
  153DOPC   H4S18326   5.295   6.986   6.185  0.5109  1.3865  0.3951
  153DOPC   C2518327   5.334   6.868   5.998 -0.5340 -0.0283 -0.2472
  153DOPC   H5R18328   5.257   6.795   6.031  0.0225 -0.9210 -0.8728
  153DOPC   H5S18329   5.423   6.808   5.968  1.2417  2.3098  0.0580
  153DOPC   C2618330   5.293   6.944   5.882  0.1969 -0.3472  0.4780
  153DOPC   H6R18331   5.386   6.982   5.834  0.9828 -0.6274  1.7405
  153DOPC   H6S18332   5.224   7.027   5.908 -3.0478 -2.4454 -0.8201
  153DOPC   C2718333   5.229   6.847   5.778  0.0468  0.8903 -0.3457
  153DOPC   H7R18334   5.121   6.849   5.804 -0.0979  0.0288 -0.8294
  153DOPC   H7S18335   5.266   6.742   5.782 -2.0975  0.1233  1.4375
  153DOPC   C2818336   5.263   6.890   5.633 -0.8749 -0.2086  0.0445
  153DOPC   H8R18337   5.367   6.859   5.608 -0.8484 -2.0826  2.1572
  153DOPC   H8S18338   5.271   7.000   5.649  0.2040 -0.4045  1.0182
  153DOPC   C2918339   5.176   6.839   5.530 -0.3585  0.4713  0.8265
  153DOPC   H9R18340   5.176   6.730   5.545 -1.3738  0.7349  3.2953
  153DOPC  C21018341   5.105   6.899   5.432 -0.2189 -0.3990 -0.5508
  153DOPC  H10R18342   5.041   6.830   5.375  0.4657  0.0694 -1.9347
  153DOPC  C21118343   5.084   7.049   5.403 -0.2079 -0.6436 -0.2814
  153DOPC  H11R18344   5.082   7.115   5.492  0.2317  0.4280 -1.0464
  153DOPC  H11S18345   4.988   7.072   5.354  1.1860  2.1031 -1.9704
  153DOPC  C21218346   5.199   7.118   5.326  1.0666  1.0013  0.6402
  153DOPC  H12R18347   5.220   7.055   5.237 -1.8167 -1.0802  1.3063
  153DOPC  H12S18348   5.295   7.111   5.382  0.6345  0.9533  1.3884
  153DOPC  C21318349   5.162   7.251   5.267  0.4004 -0.6087 -0.0396
  153DOPC  H13R18350   5.111   7.312   5.345  1.9966 -0.8306  1.2245
  153DOPC  H13S18351   5.090   7.242   5.182  2.5173 -2.0983 -1.7668
  153DOPC  C21418352   5.285   7.328   5.228  0.4837  0.0259  0.7339
  153DOPC  H14R18353   5.347   7.255   5.171 -2.9057 -0.3828 -2.8321
  153DOPC  H14S18354   5.324   7.360   5.327  0.0310 -1.1339  1.3006
  153DOPC  C21518355   5.253   7.432   5.118  0.2097  0.6588  0.5352
  153DOPC  H15R18356   5.192   7.511   5.166  0.2980 -0.2050  2.1380
  153DOPC  H15S18357   5.213   7.381   5.028  2.8607 -1.0043  0.1862
  153DOPC  C21618358   5.383   7.504   5.073  0.3103  0.3474  0.3509
  153DOPC  H16R18359   5.442   7.524   5.166  0.8603  1.0656 -0.1471
  153DOPC  H16S18360   5.359   7.603   5.030  3.2086  2.0696  2.3636
  153DOPC  C21718361   5.462   7.422   4.980 -0.1932  0.2637  0.0362
  153DOPC  H17R18362   5.411   7.381   4.890 -0.2700  0.1678  0.1237
  153DOPC  H17S18363   5.489   7.333   5.040 -3.1767 -2.6118 -2.5287
  153DOPC  C21818364   5.594   7.490   4.939 -0.0184 -0.6521  0.2677
  153DOPC  H18R18365   5.651   7.406   4.896  2.0175  0.1298  1.3085
  153DOPC  H18S18366   5.659   7.513   5.027  2.3442 -0.0816 -1.5310
  153DOPC  H18T18367   5.595   7.582   4.876 -1.1404  0.5998  1.9562
  153DOPC   C3318368   5.541   6.229   5.980 -0.4696  0.1692 -0.2805
  153DOPC   H3X18369   5.534   6.334   5.946  1.3336 -0.2089 -2.0385
  153DOPC   H3Y18370   5.438   6.189   5.984  0.4401 -2.6906 -1.9402
  153DOPC   C3418371   5.622   6.145   5.875  0.4887 -0.4448 -0.5904
  153DOPC   H4X18372   5.573   6.151   5.776 -0.6525 -0.0804 -0.0246
  153DOPC   H4Y18373   5.629   6.038   5.905 -1.2526 -0.0569  1.4696
  153DOPC   C3518374   5.764   6.209   5.866 -0.0351  0.3597 -1.2701
  153DOPC   H5X18375   5.823   6.165   5.950 -0.4448 -2.2994 -2.2804
  153DOPC   H5Y18376   5.758   6.318   5.886  1.3996  0.1951  0.3062
  153DOPC   C3618377   5.833   6.174   5.734 -0.4971 -0.3725 -0.3013
  153DOPC   H6X18378   5.793   6.071   5.719  0.3959 -0.7472 -0.1692
  153DOPC   H6Y18379   5.775   6.236   5.662 -2.1435 -1.3859  0.0807
  153DOPC   C3718380   5.985   6.191   5.715 -0.2997 -0.2826  0.2082
  153DOPC   H7X18381   5.999   6.301   5.724  1.2268 -0.4307 -0.0161
  153DOPC   H7Y18382   6.032   6.132   5.796 -1.4675 -2.3184 -0.5245
  153DOPC   C3818383   6.043   6.154   5.579 -0.6247  0.6433 -0.0283
  153DOPC   H8X18384   5.976   6.196   5.501 -0.4025 -1.6493 -1.5745
  153DOPC   H8Y18385   6.018   6.047   5.561 -0.3787  0.3806  1.1597
  153DOPC   C3918386   6.190   6.188   5.566  0.1713  0.0290  0.4219
  153DOPC   H9X18387   6.260   6.151   5.643  0.0716  2.6963  1.9179
  153DOPC  C31018388   6.251   6.254   5.466 -0.4749  0.0101  0.0275
  153DOPC  H10X18389   6.356   6.286   5.479  0.0403 -1.2229 -0.8655
  153DOPC  C31118390   6.182   6.308   5.348  0.1639 -0.0738 -0.2620
  153DOPC  H11X18391   6.074   6.330   5.352  0.1222  0.0677 -1.7372
  153DOPC  H11Y18392   6.199   6.235   5.266  0.9883  1.1554 -1.2171
  153DOPC  C31218393   6.232   6.450   5.306  0.7293  0.2400 -0.4464
  153DOPC  H12X18394   6.325   6.437   5.246 -0.2075 -1.5934 -1.5804
  153DOPC  H12Y18395   6.255   6.520   5.389 -1.8209  0.6989 -0.0259
  153DOPC  C31318396   6.130   6.524   5.215  1.0457 -0.4287  0.3489
  153DOPC  H13X18397   6.091   6.463   5.132 -1.0938  1.3568 -0.0507
  153DOPC  H13Y18398   6.042   6.533   5.281  0.5572 -0.9887 -0.2170
  153DOPC  C31418399   6.178   6.657   5.175 -0.5641  0.5882  0.0875
  153DOPC  H14X18400   6.190   6.723   5.264 -1.0802  0.9654 -0.1131
  153DOPC  H14Y18401   6.277   6.646   5.125 -0.4004 -1.2984  0.7616
  153DOPC  C31518402   6.088   6.729   5.077  0.3869 -0.1184 -0.1832
  153DOPC  H15X18403   5.986   6.690   5.099  0.9436 -2.6888 -1.6601
  153DOPC  H15Y18404   6.118   6.692   4.976 -2.5029 -0.8129 -0.8864
  153DOPC  C31618405   6.086   6.883   5.099 -0.5673 -0.1048 -0.2684
  153DOPC  H16X18406   6.002   6.932   5.044 -1.6271 -1.7012 -0.1366
  153DOPC  H16Y18407   6.076   6.914   5.205 -1.5536  0.3448 -0.4834
  153DOPC  C31718408   6.219   6.944   5.051  0.3994  0.0343  0.0385
  153DOPC  H17X18409   6.217   7.049   5.086  0.4479  0.1349 -0.2612
  153DOPC  H17Y18410   6.305   6.905   5.110  0.2203  0.0870  0.3410
  153DOPC  C31818411   6.248   6.934   4.896 -0.1047 -0.2434 -1.2934
  153DOPC  H18X18412   6.325   7.007   4.865  0.9620 -0.6686  0.2316
  153DOPC  H18Y18413   6.279   6.829   4.876 -0.7140 -0.7269  0.1114
  153DOPC  H18Z18414   6.156   6.950   4.836 -1.0328  0.8604  0.3406
  154DOPC     N18415   6.335   3.302   7.139 -0.2030 -0.1312  0.7184
  154DOPC   C1218416   6.307   3.225   7.012  0.8951  0.6442 -0.3884
  154DOPC  H12A18417   6.363   3.267   6.929  2.7048 -0.3444  0.2748
  154DOPC  H12B18418   6.203   3.233   6.983  1.1671 -0.3581 -1.7323
  154DOPC   C1318419   6.483   3.308   7.163  0.1698  0.2407 -0.2223
  154DOPC  H13A18420   6.507   3.358   7.256  0.9500 -1.5790  0.6108
  154DOPC  H13B18421   6.529   3.211   7.169  1.6978  0.7093 -2.8844
  154DOPC  H13C18422   6.531   3.348   7.075 -0.8518 -0.7036 -1.2354
  154DOPC   C1418423   6.266   3.242   7.253 -0.3679 -0.1969 -0.8408
  154DOPC  H14A18424   6.258   3.314   7.333 -0.5263  0.0704 -1.0953
  154DOPC  H14B18425   6.163   3.220   7.226 -1.5097  4.6897 -1.3346
  154DOPC  H14C18426   6.309   3.147   7.281 -1.3732 -0.4985 -0.2713
  154DOPC   C1518427   6.279   3.442   7.128  0.9323 -0.0282  0.2251
  154DOPC  H15A18428   6.299   3.482   7.029 -1.4775  1.1717  0.1466
  154DOPC  H15B18429   6.331   3.503   7.200  1.3365 -1.5583  1.2536
  154DOPC  H15C18430   6.172   3.445   7.146  0.8414 -0.7050 -0.1551
  154DOPC   C1118431   6.345   3.072   7.008  0.2970  0.4632  0.1303
  154DOPC  H11A18432   6.342   3.042   6.901 -0.4246  1.1612 -0.0611
  154DOPC  H11B18433   6.453   3.068   7.034  0.8159  2.2637 -1.5002
  154DOPC     P18434   6.114   2.978   7.070  0.1380 -0.0290  0.4807
  154DOPC   O1318435   6.050   3.113   7.095  0.2093 -0.4410  0.9455
  154DOPC   O1418436   6.065   2.876   7.160  0.2094  0.1340 -0.6063
  154DOPC   O1218437   6.267   2.988   7.088 -0.2976  0.4480 -0.0587
  154DOPC   O1118438   6.086   2.924   6.921 -0.2861  0.0726 -0.0261
  154DOPC    C118439   6.176   2.826   6.870 -0.5334  0.0981  0.5391
  154DOPC    HA18440   6.210   2.767   6.957 -2.2426  0.3723  1.4233
  154DOPC    HB18441   6.268   2.864   6.820  0.9772 -2.4931  1.1888
  154DOPC    C218442   6.113   2.739   6.759 -0.7028  0.5321  0.5302
  154DOPC    HS18443   6.193   2.668   6.729  0.1953  1.5570  0.4323
  154DOPC   O2118444   6.068   2.816   6.644 -0.2878 -0.5056 -0.1977
  154DOPC   C2118445   6.153   2.886   6.580 -0.4119  0.6093  0.0288
  154DOPC   O2218446   6.273   2.888   6.596  0.3597 -0.3568 -0.5876
  154DOPC   C2218447   6.080   2.972   6.471  0.0102  0.3821 -0.2930
  154DOPC   H2R18448   6.062   3.072   6.514  0.3890  0.7067 -0.8761
  154DOPC   H2S18449   5.987   2.917   6.443  0.3403  0.7165 -2.2434
  154DOPC    C318450   5.993   2.657   6.818  0.8300  0.1282 -0.1469
  154DOPC    HX18451   5.914   2.726   6.855 -0.8444 -2.2123  0.8408
  154DOPC    HY18452   6.041   2.603   6.902 -0.3184  2.4458  2.1291
  154DOPC   O3118453   5.955   2.553   6.722  0.1870 -0.3847 -0.2605
  154DOPC   C3118454   5.843   2.586   6.650  0.4840  0.2856  0.1461
  154DOPC   O3218455   5.771   2.677   6.672  0.3851 -0.2727  0.0772
  154DOPC   C3218456   5.841   2.500   6.518 -0.4750 -0.1307 -0.1572
  154DOPC   H2X18457   5.840   2.392   6.542 -1.8363 -0.2750 -0.7211
  154DOPC   H2Y18458   5.749   2.526   6.460 -0.1422  2.0829  0.2301
  154DOPC   C2318459   6.168   2.983   6.348  0.3369  0.4281 -0.3715
  154DOPC   H3R18460   6.270   3.006   6.384  1.2111 -2.2107 -0.9439
  154DOPC   H3S18461   6.127   3.065   6.286 -1.4551 -0.2751 -0.1813
  154DOPC   C2418462   6.176   2.854   6.264 -0.1846 -0.4727  0.0438
  154DOPC   H4R18463   6.075   2.812   6.245 -1.0399  0.8936  1.3253
  154DOPC   H4S18464   6.232   2.777   6.320  2.6479  0.4798 -1.2767
  154DOPC   C2518465   6.247   2.879   6.130 -0.4654 -0.0070 -0.4993
  154DOPC   H5R18466   6.357   2.870   6.141 -0.5859  0.4663  1.3211
  154DOPC   H5S18467   6.223   2.985   6.106 -0.8624 -0.1860 -0.9333
  154DOPC   C2618468   6.198   2.789   6.017 -0.1066  1.1203  0.3122
  154DOPC   H6R18469   6.242   2.834   5.925  1.4560  1.3589  1.1273
  154DOPC   H6S18470   6.090   2.793   5.994 -0.0982 -1.6131 -0.5487
  154DOPC   C2718471   6.241   2.643   6.030  0.0486 -0.0583  0.7927
  154DOPC   H7R18472   6.204   2.611   6.130  1.3335  0.0182  1.3142
  154DOPC   H7S18473   6.352   2.632   6.028  0.1378 -0.4568 -4.4059
  154DOPC   C2818474   6.170   2.542   5.932 -0.6082  0.4089  0.2546
  154DOPC   H8R18475   6.228   2.447   5.936  1.5900  1.6435 -0.1292
  154DOPC   H8S18476   6.190   2.577   5.828 -0.1278 -0.0966  0.1707
  154DOPC   C2918477   6.027   2.517   5.967  0.1313  0.2238 -0.4824
  154DOPC   H9R18478   6.009   2.472   6.066  0.5644  0.5983 -0.2327
  154DOPC  C21018479   5.922   2.524   5.882  1.4054 -0.1294  0.2847
  154DOPC  H10R18480   5.831   2.506   5.940  2.2822 -3.5136  0.8710
  154DOPC  C21118481   5.929   2.560   5.735  0.0421 -0.5826 -0.6021
  154DOPC  H11R18482   5.839   2.506   5.699 -0.2938 -1.2017  1.0317
  154DOPC  H11S18483   6.023   2.521   5.690 -0.2658 -2.8743  0.6041
  154DOPC  C21218484   5.901   2.707   5.703 -0.2138  0.0120  0.1113
  154DOPC  H12R18485   5.973   2.771   5.759 -0.7013  1.5649 -0.9780
  154DOPC  H12S18486   5.798   2.737   5.733 -0.0119 -0.7411  1.6904
  154DOPC  C21318487   5.903   2.731   5.552  0.3127 -0.0228 -0.6280
  154DOPC  H13R18488   5.808   2.695   5.508  0.1760  0.7062 -0.9310
  154DOPC  H13S18489   5.992   2.667   5.529  0.6038 -0.4311  1.4166
  154DOPC  C21418490   5.925   2.880   5.516  0.2989  0.1717  0.7240
  154DOPC  H14R18491   6.014   2.918   5.570  1.3714  1.0505 -1.5532
  154DOPC  H14S18492   5.829   2.929   5.545 -0.4587  0.0626 -1.4102
  154DOPC  C21518493   5.956   2.885   5.365 -0.1640 -0.1377  0.0822
  154DOPC  H15R18494   5.883   2.831   5.301 -2.0588  1.6617  0.5859
  154DOPC  H15S18495   6.052   2.833   5.346  1.6106  2.0138  2.5095
  154DOPC  C21618496   5.951   3.037   5.316  0.3312  0.1407  0.0319
  154DOPC  H16R18497   6.047   3.092   5.328  0.4408 -0.0610  0.0752
  154DOPC  H16S18498   5.878   3.098   5.373 -0.8633  0.4389 -1.7146
  154DOPC  C21718499   5.896   3.058   5.170 -0.1663 -0.1186 -0.4629
  154DOPC  H17R18500   5.859   3.163   5.170 -0.5572 -0.2545 -0.8188
  154DOPC  H17S18501   5.810   2.989   5.157 -0.1447 -0.7818  2.3273
  154DOPC  C21818502   6.011   3.038   5.076 -0.5681  0.6244 -0.2346
  154DOPC  H18R18503   6.104   3.087   5.112  0.3009 -1.6084  0.7597
  154DOPC  H18S18504   5.986   3.063   4.970 -1.8013 -0.6824 -0.2913
  154DOPC  H18T18505   6.039   2.930   5.073 -1.3683  0.2738  2.5227
  154DOPC   C3318506   5.967   2.531   6.434 -0.0729 -0.5634  0.2683
  154DOPC   H3X18507   6.056   2.514   6.499 -0.6716 -1.7520  0.8134
  154DOPC   H3Y18508   5.959   2.637   6.402 -2.3412 -0.2228  1.7008
  154DOPC   C3418509   5.986   2.438   6.313 -0.8413 -0.0900  0.4316
  154DOPC   H4X18510   6.067   2.477   6.246 -2.2278  2.0099 -0.1159
  154DOPC   H4Y18511   5.891   2.431   6.257  0.3378 -0.0232 -1.7111
  154DOPC   C3518512   6.014   2.291   6.343 -0.0980 -0.7161 -0.8734
  154DOPC   H5X18513   5.918   2.241   6.367 -0.9643  0.2453 -2.1634
  154DOPC   H5Y18514   6.085   2.286   6.428  0.8649  3.1211 -1.2408
  154DOPC   C3618515   6.068   2.208   6.232 -0.7726 -0.9524  0.0844
  154DOPC   H6X18516   6.146   2.265   6.177  0.7495 -1.2785  1.8214
  154DOPC   H6Y18517   6.108   2.113   6.275 -2.2917 -0.8344  1.9025
  154DOPC   C3718518   5.962   2.158   6.127  0.3110  0.0825 -0.4094
  154DOPC   H7X18519   5.871   2.131   6.184  1.5035 -0.4464  1.3343
  154DOPC   H7Y18520   5.929   2.251   6.077 -2.1717 -0.4326  0.1580
  154DOPC   C3818521   6.004   2.037   6.025 -0.3010 -0.0259 -0.7948
  154DOPC   H8X18522   5.912   1.999   5.976 -1.6637 -0.4312  1.8852
  154DOPC   H8Y18523   6.054   1.960   6.087 -0.6376  0.7357  0.4571
  154DOPC   C3918524   6.102   2.099   5.923 -0.0996 -0.4006 -0.2426
  154DOPC   H9X18525   6.198   2.135   5.964 -1.0172  1.8268  0.1051
  154DOPC  C31018526   6.091   2.094   5.792 -1.0540  0.3046 -0.6030
  154DOPC  H10X18527   6.170   2.141   5.732 -0.8919  0.6163 -0.1523
  154DOPC  C31118528   5.971   2.050   5.712 -0.3320 -0.6094 -0.2908
  154DOPC  H11X18529   5.881   2.015   5.768 -1.2938  0.1135 -1.3384
  154DOPC  H11Y18530   5.989   1.968   5.638 -0.6048 -0.1147 -0.9180
  154DOPC  C31218531   5.925   2.160   5.613 -0.1882 -0.3279  0.8357
  154DOPC  H12X18532   5.893   2.250   5.671  0.3514  1.1569 -1.0452
  154DOPC  H12Y18533   5.837   2.121   5.558 -0.6534  0.8708  0.6894
  154DOPC  C31318534   6.025   2.199   5.508 -0.6901 -0.2128 -0.8337
  154DOPC  H13X18535   6.109   2.246   5.564 -0.9452 -3.3370  2.5563
  154DOPC  H13Y18536   6.059   2.105   5.458  0.9193 -0.7613  1.1680
  154DOPC  C31418537   5.964   2.304   5.414 -0.3417 -0.0389 -0.3291
  154DOPC  H14X18538   5.874   2.266   5.361 -0.8309  2.2076 -1.2310
  154DOPC  H14Y18539   5.936   2.390   5.479 -1.3640  0.2137 -1.0807
  154DOPC  C31518540   6.063   2.342   5.302 -0.9345  0.6166 -0.4375
  154DOPC  H15X18541   6.078   2.249   5.243 -1.6059  0.8191 -0.9364
  154DOPC  H15Y18542   6.157   2.379   5.347 -1.5656  0.0284  1.4961
  154DOPC  C31618543   5.993   2.454   5.213 -0.1907  0.0107  0.3829
  154DOPC  H16X18544   5.929   2.393   5.146 -0.7559  0.2827  0.6701
  154DOPC  H16Y18545   5.931   2.526   5.270  0.7912  0.3517  1.0470
  154DOPC  C31718546   6.096   2.523   5.126 -0.4766 -0.1364 -0.3689
  154DOPC  H17X18547   6.154   2.578   5.204 -0.2671 -0.8555 -0.0079
  154DOPC  H17Y18548   6.163   2.442   5.092  1.9518 -0.0053  3.4041
  154DOPC  C31818549   6.049   2.619   5.023 -0.5004  0.6557 -0.3347
  154DOPC  H18X18550   6.135   2.679   4.987  1.1054 -0.3452  1.6066
  154DOPC  H18Y18551   6.017   2.561   4.934  0.5779 -0.9702  0.2800
  154DOPC  H18Z18552   5.966   2.689   5.046  2.0734  4.0606 -0.6569
  155DOPC     N18553   1.973   1.189   7.547  0.1943  0.0571 -0.0164
  155DOPC   C1218554   1.822   1.179   7.549  0.1507  0.1713 -0.4474
  155DOPC  H12A18555   1.792   1.156   7.650 -0.4567 -0.1680 -0.7002
  155DOPC  H12B18556   1.780   1.100   7.489 -0.6901  0.2232  0.0514
  155DOPC   C1318557   2.015   1.302   7.634 -0.7014  0.3152  0.3896
  155DOPC  H13A18558   1.977   1.303   7.735  0.3230  1.0851  0.7843
  155DOPC  H13B18559   2.123   1.300   7.640 -0.5739  0.0067 -1.5075
  155DOPC  H13C18560   1.985   1.390   7.579  1.3645  0.3749 -0.7387
  155DOPC   C1418561   2.027   1.208   7.413  0.7348  0.1264  0.1568
  155DOPC  H14A18562   1.967   1.283   7.364  1.9378  0.2825 -1.1376
  155DOPC  H14B18563   2.131   1.239   7.418  0.8250 -0.2283  0.5815
  155DOPC  H14C18564   2.018   1.118   7.354  1.2311 -0.1462  0.4883
  155DOPC   C1518565   2.040   1.068   7.607 -0.5370  0.5320  0.0464
  155DOPC  H15A18566   2.141   1.091   7.638 -0.6038  1.5975 -0.5080
  155DOPC  H15B18567   2.044   0.988   7.534  1.0569  0.0118  0.6509
  155DOPC  H15C18568   1.991   1.045   7.701 -0.7109  0.8289  0.0295
  155DOPC   C1118569   1.749   1.305   7.505  0.5719  0.1153 -0.2490
  155DOPC  H11A18570   1.641   1.282   7.501  0.8053 -1.0002 -0.6689
  155DOPC  H11B18571   1.763   1.391   7.574 -0.0381  0.4691 -0.5579
  155DOPC     P18572   1.794   1.493   7.330 -0.0002 -0.2525 -0.1938
  155DOPC   O1318573   1.879   1.572   7.424 -0.0044 -0.0938  0.4552
  155DOPC   O1418574   1.657   1.549   7.324 -0.4651  0.1749  0.2961
  155DOPC   O1218575   1.793   1.346   7.374  0.1965 -0.4068 -0.3367
  155DOPC   O1118576   1.862   1.474   7.186  0.3989 -0.1999  0.3400
  155DOPC    C118577   1.810   1.386   7.085  0.3438  0.1049 -0.0327
  155DOPC    HA18578   1.699   1.393   7.074  0.1898 -2.2918 -0.6756
  155DOPC    HB18579   1.844   1.280   7.091 -0.8724 -0.2470  1.2594
  155DOPC    C218580   1.870   1.427   6.946  0.5076  0.3379 -0.7715
  155DOPC    HS18581   1.980   1.434   6.959  0.3022  0.7699  0.8980
  155DOPC   O2118582   1.808   1.546   6.890  0.0996  0.0315 -0.0385
  155DOPC   C2118583   1.897   1.637   6.847 -1.3442 -0.3568  0.4047
  155DOPC   O2218584   2.020   1.629   6.858 -0.0901  0.6755 -0.3806
  155DOPC   C2218585   1.830   1.760   6.792  0.5467  0.0018 -0.2595
  155DOPC   H2R18586   1.800   1.822   6.879 -2.7382  1.3265 -2.1905
  155DOPC   H2S18587   1.734   1.722   6.753  2.0518 -4.0480 -0.5141
  155DOPC    C318588   1.838   1.313   6.845  0.6340 -0.4962 -0.4676
  155DOPC    HX18589   1.731   1.283   6.851  0.7038 -0.5069  1.3720
  155DOPC    HY18590   1.887   1.217   6.869 -0.3561 -0.6862  0.9168
  155DOPC   O3118591   1.856   1.353   6.705 -0.1394  0.2113  0.4953
  155DOPC   C3118592   1.985   1.358   6.672  0.0062 -0.3127 -0.4764
  155DOPC   O3218593   2.077   1.319   6.744 -0.2153  0.1207  0.0220
  155DOPC   C3218594   1.993   1.420   6.533 -0.2026 -0.6956  0.0057
  155DOPC   H2X18595   1.904   1.418   6.468  0.8810  1.1710 -1.6438
  155DOPC   H2Y18596   2.035   1.521   6.552  0.3242 -0.9766  0.4027
  155DOPC   C2318597   1.913   1.836   6.700  0.2725  0.1160 -0.2953
  155DOPC   H3R18598   2.021   1.856   6.722  0.1396  0.6899 -0.1290
  155DOPC   H3S18599   1.877   1.941   6.711 -0.1610 -0.0396 -0.2241
  155DOPC   C2418600   1.884   1.795   6.555  0.4735 -0.4095  0.9631
  155DOPC   H4R18601   1.781   1.823   6.525  1.6438 -0.4700 -3.8656
  155DOPC   H4S18602   1.895   1.685   6.540  0.0121 -0.2228 -0.9323
  155DOPC   C2518603   1.979   1.860   6.454 -0.0318  0.0777 -1.0784
  155DOPC   H5R18604   2.070   1.796   6.447  0.3044  0.4544 -0.2918
  155DOPC   H5S18605   1.999   1.965   6.486 -1.4002  0.9874 -3.0029
  155DOPC   C2618606   1.903   1.859   6.314 -0.1508 -0.5281 -0.1271
  155DOPC   H6R18607   1.820   1.934   6.321  0.6851  0.3248  1.2738
  155DOPC   H6S18608   1.861   1.758   6.293  0.1052 -0.4487 -1.0441
  155DOPC   C2718609   1.980   1.894   6.189  0.0136 -0.0524 -0.5823
  155DOPC   H7R18610   2.054   1.812   6.185 -0.3814 -0.4710  0.3135
  155DOPC   H7S18611   2.018   1.998   6.191  0.6072 -0.2190 -2.0089
  155DOPC   C2818612   1.891   1.882   6.064  0.3982 -0.6214  0.3558
  155DOPC   H8R18613   1.840   1.783   6.068 -0.6988 -0.1996 -1.7663
  155DOPC   H8S18614   1.955   1.885   5.973 -2.0229 -2.2868 -1.5445
  155DOPC   C2918615   1.791   1.990   6.038  0.7822 -0.4729  0.3275
  155DOPC   H9R18616   1.747   2.032   6.130  1.8861 -1.0312  1.1287
  155DOPC  C21018617   1.743   2.017   5.919 -0.1181 -0.0171  0.7278
  155DOPC  H10R18618   1.660   2.089   5.910 -0.7502 -0.6946  1.0289
  155DOPC  C21118619   1.787   1.958   5.786  0.3833  0.1071  0.3684
  155DOPC  H11R18620   1.699   1.928   5.726  0.3046  1.6061 -0.3045
  155DOPC  H11S18621   1.852   1.869   5.799 -0.5057 -0.6431 -0.2083
  155DOPC  C21218622   1.865   2.061   5.697  0.4703  0.3200  0.3550
  155DOPC  H12R18623   1.879   2.019   5.595  0.0155  0.3752  0.2703
  155DOPC  H12S18624   1.965   2.083   5.742  0.7655  1.4707 -0.8151
  155DOPC  C21318625   1.779   2.186   5.663 -0.0180 -0.3545 -0.0412
  155DOPC  H13R18626   1.742   2.231   5.757 -1.5119  1.5790 -1.4501
  155DOPC  H13S18627   1.694   2.155   5.598  1.6660 -1.7506 -1.6937
  155DOPC  C21418628   1.865   2.279   5.571 -0.0148 -0.4806 -0.4596
  155DOPC  H14R18629   1.867   2.231   5.471 -0.3959 -1.9924  0.2335
  155DOPC  H14S18630   1.967   2.281   5.615  0.4604  0.6846 -1.5624
  155DOPC  C21518631   1.814   2.426   5.558 -0.6913  0.5080 -0.9032
  155DOPC  H15R18632   1.704   2.425   5.538 -1.5622  0.5522  3.1709
  155DOPC  H15S18633   1.865   2.482   5.477 -0.7468  0.7255 -0.7893
  155DOPC  C21618634   1.841   2.507   5.688 -0.6075  0.9182  0.7031
  155DOPC  H16R18635   1.795   2.458   5.776  1.0872  0.2867  1.2753
  155DOPC  H16S18636   1.799   2.610   5.682  1.5557  1.9864  2.3965
  155DOPC  C21718637   1.992   2.531   5.695 -0.5144 -0.1416  0.1712
  155DOPC  H17R18638   2.032   2.564   5.597  1.0201  1.4877  1.2853
  155DOPC  H17S18639   2.044   2.437   5.723  0.0232 -0.2100 -0.9963
  155DOPC  C21818640   2.029   2.648   5.792  0.3056 -0.0857  0.2979
  155DOPC  H18R18641   1.971   2.742   5.779  0.0804 -0.1490  0.8316
  155DOPC  H18S18642   2.131   2.689   5.778  0.7724 -0.7209  1.7083
  155DOPC  H18T18643   2.033   2.623   5.900 -1.6061 -1.0220  0.1969
  155DOPC   C3318644   2.091   1.322   6.465  0.2533 -0.1934  0.5732
  155DOPC   H3X18645   2.041   1.223   6.455 -0.2391  0.2008 -1.4371
  155DOPC   H3Y18646   2.186   1.322   6.521  1.7470  4.9676 -1.3579
  155DOPC   C3418647   2.140   1.369   6.322  0.2709  0.0546  0.2908
  155DOPC   H4X18648   2.049   1.386   6.261  0.7787 -1.1888 -0.8810
  155DOPC   H4Y18649   2.195   1.288   6.269 -0.1113  0.0569 -0.1163
  155DOPC   C3518650   2.222   1.498   6.326  0.8192  0.2174  0.2226
  155DOPC   H5X18651   2.301   1.484   6.403  1.4161  1.5834 -0.1046
  155DOPC   H5Y18652   2.153   1.579   6.358 -0.6909 -1.7294  2.1914
  155DOPC   C3618653   2.290   1.531   6.197 -0.5299 -0.5064  0.3477
  155DOPC   H6X18654   2.363   1.451   6.171  1.3164  0.6145  1.8226
  155DOPC   H6Y18655   2.225   1.539   6.107 -0.4227  2.2018  0.4503
  155DOPC   C3718656   2.348   1.672   6.206  0.0741 -0.1347  0.1415
  155DOPC   H7X18657   2.266   1.746   6.217 -0.3726 -0.9393  2.8412
  155DOPC   H7Y18658   2.423   1.684   6.288  0.7405  1.0195 -0.6122
  155DOPC   C3818659   2.429   1.724   6.085  0.0490  0.6997 -0.2899
  155DOPC   H8X18660   2.522   1.665   6.089 -0.5701 -0.2888 -0.2559
  155DOPC   H8Y18661   2.459   1.828   6.111 -0.7815  1.4798 -2.2147
  155DOPC   C3918662   2.356   1.731   5.961  0.2112  0.4286  0.5939
  155DOPC   H9X18663   2.250   1.761   5.963  0.2155  0.6159 -0.8822
  155DOPC  C31018664   2.390   1.677   5.844 -0.2772  0.8252 -0.0825
  155DOPC  H10X18665   2.319   1.698   5.763 -0.0894  0.8663 -0.2367
  155DOPC  C31118666   2.525   1.619   5.797  1.0330 -0.3856 -0.4005
  155DOPC  H11X18667   2.514   1.514   5.761  0.6267 -0.1330 -1.0364
  155DOPC  H11Y18668   2.597   1.615   5.881 -1.4017 -3.2189  1.7918
  155DOPC  C31218669   2.577   1.707   5.675 -0.3840  0.3945 -0.1534
  155DOPC  H12X18670   2.595   1.813   5.704 -0.7412  0.5058 -0.3381
  155DOPC  H12Y18671   2.498   1.696   5.598  0.7468 -1.1351 -1.1629
  155DOPC  C31318672   2.711   1.649   5.623 -0.3506 -0.2863  0.1288
  155DOPC  H13X18673   2.688   1.566   5.553  2.5890 -1.6913  0.6510
  155DOPC  H13Y18674   2.740   1.731   5.555  0.0561  1.1060  1.8932
  155DOPC  C31418675   2.813   1.626   5.725 -0.0441  0.5125 -0.2903
  155DOPC  H14X18676   2.829   1.719   5.783  1.5644 -0.1510  0.3798
  155DOPC  H14Y18677   2.781   1.546   5.795  1.1182  1.1648  1.0401
  155DOPC  C31518678   2.944   1.589   5.666  0.2828 -0.6634 -0.5230
  155DOPC  H15X18679   3.018   1.596   5.748  0.1516  0.2670 -0.4793
  155DOPC  H15Y18680   2.958   1.667   5.588 -0.9241 -0.4406 -0.5342
  155DOPC  C31618681   2.947   1.442   5.620  0.5904 -0.0435 -0.2643
  155DOPC  H16X18682   2.919   1.372   5.701 -0.7198 -1.0987 -1.5506
  155DOPC  H16Y18683   2.862   1.433   5.548  1.2427  1.6548 -1.3183
  155DOPC  C31718684   3.072   1.412   5.541 -0.5987 -0.0435  0.0815
  155DOPC  H17X18685   3.088   1.483   5.456  1.5097  0.5892  0.9324
  155DOPC  H17Y18686   3.161   1.428   5.605 -0.0836  0.8598 -0.8217
  155DOPC  C31818687   3.073   1.269   5.486 -0.7545 -0.7395  0.1021
  155DOPC  H18X18688   2.985   1.268   5.418 -0.0002  0.3951 -0.9215
  155DOPC  H18Y18689   3.165   1.261   5.424  1.3090  0.5809  2.8034
  155DOPC  H18Z18690   3.073   1.188   5.562 -0.8414  0.2174  1.1466
  156DOPC     N18691   5.985   5.538   7.078 -0.4608 -0.5552 -0.3007
  156DOPC   C1218692   5.950   5.578   6.937 -0.0575  0.3611  0.2091
  156DOPC  H12A18693   5.843   5.591   6.923  0.0773  3.5283  1.2890
  156DOPC  H12B18694   5.980   5.502   6.867  0.4851  0.8466 -0.0906
  156DOPC   C1318695   6.132   5.552   7.101  0.4503  0.3644 -0.0307
  156DOPC  H13A18696   6.191   5.502   7.026  4.3004  2.4097  1.3321
  156DOPC  H13B18697   6.165   5.651   7.074  0.1356 -0.1267 -2.3697
  156DOPC  H13C18698   6.165   5.524   7.200 -0.0796  1.5646  0.5089
  156DOPC   C1418699   5.947   5.398   7.102  0.1455  0.4384  0.5218
  156DOPC  H14A18700   5.850   5.377   7.058  0.5318 -0.7546  0.2178
  156DOPC  H14B18701   6.014   5.329   7.054  1.4523  3.0577 -1.6682
  156DOPC  H14C18702   5.935   5.383   7.208 -1.6517 -0.5889  0.2105
  156DOPC   C1518703   5.915   5.630   7.172  0.3032 -0.7029  0.1962
  156DOPC  H15A18704   5.812   5.596   7.172  0.3461 -1.0018 -2.1264
  156DOPC  H15B18705   5.930   5.732   7.141 -2.0985 -0.0679  0.9356
  156DOPC  H15C18706   5.951   5.622   7.274 -0.9001 -0.6046  0.6444
  156DOPC   C1118707   5.992   5.725   6.879 -0.2731  0.2327 -0.6134
  156DOPC  H11A18708   6.095   5.748   6.912 -1.4866  1.1220  3.0753
  156DOPC  H11B18709   5.988   5.719   6.768  1.2207 -0.3595 -0.6557
  156DOPC     P18710   5.762   5.850   6.870  0.3203 -0.0552  0.1941
  156DOPC   O1318711   5.685   5.955   6.950 -0.3261  0.2525 -0.3405
  156DOPC   O1418712   5.685   5.727   6.847 -0.3961  0.0957  0.6274
  156DOPC   O1218713   5.901   5.823   6.938 -0.0009 -0.7395  0.5424
  156DOPC   O1118714   5.786   5.913   6.727 -0.3817 -0.3333  0.0515
  156DOPC    C118715   5.898   6.004   6.707  0.6241 -0.1120 -0.5539
  156DOPC    HA18716   5.989   5.945   6.682  2.0539  0.6362  2.5127
  156DOPC    HB18717   5.918   6.054   6.804 -4.1961  0.8116  0.2267
  156DOPC    C218718   5.870   6.107   6.597  0.4368  0.8755  0.0744
  156DOPC    HS18719   5.768   6.151   6.598 -0.5637 -1.2489 -1.3795
  156DOPC   O2118720   5.880   6.030   6.476  0.0699  0.4221 -0.1939
  156DOPC   C2118721   5.775   5.972   6.422  0.6423  0.5979  0.0728
  156DOPC   O2218722   5.660   6.002   6.434  0.5240  0.2789  0.0054
  156DOPC   C2218723   5.814   5.850   6.344 -0.3949 -0.7103  0.5128
  156DOPC   H2R18724   5.877   5.782   6.406  0.5408 -1.0403 -0.7406
  156DOPC   H2S18725   5.868   5.892   6.256  1.3845  1.4650  2.5273
  156DOPC    C318726   5.981   6.217   6.591 -0.1752  0.4627  0.4724
  156DOPC    HX18727   6.079   6.165   6.603 -1.2751 -1.5396  1.2285
  156DOPC    HY18728   5.965   6.282   6.681 -4.6906  2.0282 -1.1990
  156DOPC   O3118729   5.989   6.287   6.470  0.2519 -0.3675  0.5789
  156DOPC   C3118730   5.911   6.390   6.457 -0.5795  0.1393 -0.1814
  156DOPC   O3218731   5.826   6.433   6.530 -0.3567 -0.2744 -0.1436
  156DOPC   C3218732   5.943   6.461   6.325  0.6744 -0.5506  0.2803
  156DOPC   H2X18733   6.025   6.535   6.337 -0.0795  0.1129  1.6190
  156DOPC   H2Y18734   5.974   6.390   6.246 -1.1684 -1.0427 -0.0584
  156DOPC   C2318735   5.702   5.763   6.291  0.3650  0.6949 -0.4977
  156DOPC   H3R18736   5.733   5.697   6.208 -3.7251 -0.5480 -1.2260
  156DOPC   H3S18737   5.628   5.819   6.230 -1.4986 -2.5231 -1.4424
  156DOPC   C2418738   5.634   5.682   6.397 -0.5296 -0.0272 -0.1240
  156DOPC   H4R18739   5.597   5.749   6.478 -0.8292 -2.1824  1.6136
  156DOPC   H4S18740   5.702   5.606   6.440  0.6144  1.8566  1.5704
  156DOPC   C2518741   5.517   5.609   6.345 -0.0791 -0.7016  0.2901
  156DOPC   H5R18742   5.421   5.662   6.326 -0.7348 -2.2523 -0.8765
  156DOPC   H5S18743   5.487   5.531   6.418  1.1446  0.1608  1.7829
  156DOPC   C2618744   5.543   5.535   6.214  0.6367  0.5414  0.2855
  156DOPC   H6R18745   5.642   5.485   6.216  0.2353 -0.2482  2.1151
  156DOPC   H6S18746   5.563   5.613   6.137  0.8351  1.2800  1.0821
  156DOPC   C2718747   5.440   5.434   6.161  1.2698 -0.7529  0.4335
  156DOPC   H7R18748   5.448   5.429   6.051 -0.6925 -0.5122  0.2345
  156DOPC   H7S18749   5.338   5.475   6.177  2.6260  2.9138  0.5800
  156DOPC   C2818750   5.456   5.297   6.229  0.3890  0.8486  0.1104
  156DOPC   H8R18751   5.370   5.232   6.205  0.5318  0.3791  0.8310
  156DOPC   H8S18752   5.440   5.319   6.337  2.8007  0.8106  0.5446
  156DOPC   C2918753   5.587   5.227   6.217  0.0866 -0.3195  0.6588
  156DOPC   H9R18754   5.657   5.237   6.301  0.9809 -0.2761 -0.0784
  156DOPC  C21018755   5.622   5.147   6.112 -0.4406 -0.1012 -0.3413
  156DOPC  H10R18756   5.724   5.105   6.106 -1.3719 -2.3135 -2.1670
  156DOPC  C21118757   5.554   5.106   5.986  0.0170 -0.5423  0.0519
  156DOPC  H11R18758   5.444   5.114   5.995  0.1064  0.2622  0.4958
  156DOPC  H11S18759   5.587   5.005   5.952  0.8667  0.1565 -1.3066
  156DOPC  C21218760   5.583   5.215   5.880  0.1220  0.2050  0.2082
  156DOPC  H12R18761   5.692   5.210   5.859 -0.0006 -0.4420 -0.3191
  156DOPC  H12S18762   5.553   5.311   5.926 -0.8540  0.2020 -0.4026
  156DOPC  C21318763   5.500   5.199   5.747 -0.7002 -0.2601 -0.6511
  156DOPC  H13R18764   5.390   5.207   5.767 -0.8468  0.8475 -1.7859
  156DOPC  H13S18765   5.525   5.096   5.715  3.7908  0.7224 -0.8903
  156DOPC  C21418766   5.551   5.285   5.639  0.0712  0.4578 -0.1635
  156DOPC  H14R18767   5.659   5.276   5.615 -0.0434 -2.6218  0.0077
  156DOPC  H14S18768   5.522   5.391   5.653 -2.4069  0.1053 -1.8735
  156DOPC  C21518769   5.473   5.265   5.506 -0.1063  0.1599  0.3712
  156DOPC  H15R18770   5.363   5.279   5.519 -0.0613  0.3770  0.5157
  156DOPC  H15S18771   5.487   5.159   5.473  0.9025  0.4331 -0.1176
  156DOPC  C21618772   5.520   5.361   5.393  0.2781  0.6222 -0.5795
  156DOPC  H16R18773   5.622   5.331   5.362 -0.1148  0.6417 -1.9283
  156DOPC  H16S18774   5.510   5.467   5.426 -4.2825  0.0327  0.5340
  156DOPC  C21718775   5.433   5.355   5.271  0.2066  0.2315 -0.3845
  156DOPC  H17R18776   5.354   5.429   5.298 -1.0952 -1.0926 -0.4421
  156DOPC  H17S18777   5.390   5.253   5.263 -1.1935  0.9312 -3.0444
  156DOPC  C21818778   5.479   5.403   5.130  0.7090  0.5069 -0.2345
  156DOPC  H18R18779   5.520   5.506   5.131  1.3751  0.2642 -1.1123
  156DOPC  H18S18780   5.397   5.386   5.057 -0.4163 -3.4741  1.6650
  156DOPC  H18T18781   5.555   5.331   5.093  0.4139  0.0190  0.1012
  156DOPC   C3318782   5.818   6.551   6.282 -0.1236  0.7055  0.2527
  156DOPC   H3X18783   5.805   6.625   6.364  2.3078  1.0389  0.4134
  156DOPC   H3Y18784   5.721   6.499   6.271 -0.5383  1.5201 -0.0397
  156DOPC   C3418785   5.843   6.634   6.152 -0.3056  0.4634  0.8287
  156DOPC   H4X18786   5.943   6.607   6.111 -1.2830 -2.6846  0.1829
  156DOPC   H4Y18787   5.852   6.744   6.159 -0.0422  0.8166 -2.8557
  156DOPC   C3518788   5.741   6.595   6.041  0.1906  0.1266  0.2332
  156DOPC   H5X18789   5.639   6.599   6.085  0.2375  1.1017  0.2684
  156DOPC   H5Y18790   5.751   6.488   6.014  1.5339  0.2690  0.1121
  156DOPC   C3618791   5.739   6.686   5.920 -0.7864 -0.5270  0.4901
  156DOPC   H6X18792   5.694   6.785   5.942 -1.1552 -0.3713 -0.9138
  156DOPC   H6Y18793   5.835   6.701   5.866 -0.6351 -1.3088  0.5369
  156DOPC   C3718794   5.650   6.615   5.821 -0.7308 -0.1235  0.8663
  156DOPC   H7X18795   5.706   6.531   5.776  2.6755  2.0787  0.6967
  156DOPC   H7Y18796   5.561   6.572   5.873 -0.6486 -1.6265 -0.1444
  156DOPC   C3818797   5.599   6.701   5.705  0.1112 -1.2043  0.4421
  156DOPC   H8X18798   5.540   6.788   5.742 -3.0505 -3.0501  0.1436
  156DOPC   H8Y18799   5.529   6.648   5.636  0.9815 -1.0241 -0.6073
  156DOPC   C3918800   5.718   6.748   5.625  0.4592  0.4329 -0.6873
  156DOPC   H9X18801   5.782   6.807   5.692 -0.2353  0.0271  0.3696
  156DOPC  C31018802   5.750   6.725   5.496  0.5402  1.1174  0.5958
  156DOPC  H10X18803   5.854   6.749   5.470  0.9759  0.6163  1.7651
  156DOPC  C31118804   5.672   6.645   5.389  0.4188  0.1030  0.5382
  156DOPC  H11X18805   5.698   6.690   5.291 -0.0994 -0.0355  0.3324
  156DOPC  H11Y18806   5.562   6.654   5.404 -0.0729 -2.2922 -1.1116
  156DOPC  C31218807   5.713   6.496   5.384  0.3585 -0.5252 -0.3256
  156DOPC  H12X18808   5.688   6.448   5.481  1.3967  1.6398  1.0964
  156DOPC  H12Y18809   5.820   6.469   5.372  0.4557 -0.6257  0.6601
  156DOPC  C31318810   5.645   6.423   5.258 -0.2556 -0.0873 -0.6851
  156DOPC  H13X18811   5.665   6.315   5.275 -0.1665 -0.4694 -2.9023
  156DOPC  H13Y18812   5.539   6.455   5.265  0.5556  2.7307  0.3086
  156DOPC  C31418813   5.708   6.478   5.126  0.2776 -0.6549 -0.9401
  156DOPC  H14X18814   5.649   6.569   5.103  0.5625 -0.2019  0.0733
  156DOPC  H14Y18815   5.810   6.519   5.142 -1.0317  2.3087  0.6199
  156DOPC  C31518816   5.692   6.389   5.006  0.9466  0.4300  1.2803
  156DOPC  H15X18817   5.584   6.371   4.989  1.3890 -1.0286 -0.1144
  156DOPC  H15Y18818   5.723   6.283   5.018 -1.1525 -0.5283 -1.1377
  156DOPC  C31618819   5.753   6.446   4.874  0.0035  0.6256 -0.2713
  156DOPC  H16X18820   5.712   6.545   4.843  2.8088  0.7490 -4.4373
  156DOPC  H16Y18821   5.860   6.466   4.892  0.3242  0.3271 -1.7425
  156DOPC  C31718822   5.728   6.345   4.760 -0.8394 -0.1956  0.0218
  156DOPC  H17X18823   5.806   6.265   4.765  0.4559  0.9148 -1.3032
  156DOPC  H17Y18824   5.619   6.324   4.761 -0.7931 -0.4203  0.5729
  156DOPC  C31818825   5.751   6.407   4.618 -0.5712 -0.4927  0.3836
  156DOPC  H18X18826   5.854   6.391   4.582 -1.1563 -1.3187 -0.9871
  156DOPC  H18Y18827   5.684   6.346   4.555 -1.1472  2.0030 -1.5951
  156DOPC  H18Z18828   5.719   6.514   4.612 -0.0074 -0.3621 -0.3668
  157DOPC     N18829   4.928   1.638   7.272 -0.0217 -0.3082  0.9129
  157DOPC   C1218830   5.014   1.631   7.150  0.6272 -0.7201 -0.2655
  157DOPC  H12A18831   5.117   1.657   7.167  0.2449  1.3206 -0.7016
  157DOPC  H12B18832   4.985   1.710   7.081 -0.1010 -2.2885 -1.8558
  157DOPC   C1318833   4.985   1.551   7.383 -0.0934 -0.0791  0.2132
  157DOPC  H13A18834   4.982   1.443   7.378 -0.5452 -0.2017  2.3109
  157DOPC  H13B18835   5.082   1.584   7.416  0.8975 -1.4144 -1.2065
  157DOPC  H13C18836   4.912   1.559   7.462 -2.9773 -1.6390 -2.1022
  157DOPC   C1418837   4.782   1.601   7.246  0.0145 -0.3128 -0.0374
  157DOPC  H14A18838   4.776   1.497   7.218  1.4180 -0.3310 -0.3495
  157DOPC  H14B18839   4.724   1.634   7.332 -1.1219  0.8083 -1.1887
  157DOPC  H14C18840   4.735   1.657   7.167 -0.8293 -0.5801  0.2542
  157DOPC   C1518841   4.921   1.780   7.317 -0.3396  0.6778 -0.0716
  157DOPC  H15A18842   5.020   1.817   7.340 -0.7156  1.2943  0.6007
  157DOPC  H15B18843   4.854   1.782   7.402 -1.3922 -0.3882 -0.8381
  157DOPC  H15C18844   4.888   1.843   7.236  2.3838  0.0039 -1.8131
  157DOPC   C1118845   5.011   1.504   7.066  0.2609 -0.0484 -0.5440
  157DOPC  H11A18846   4.906   1.471   7.051  0.5566 -1.2653 -0.1010
  157DOPC  H11B18847   5.052   1.530   6.966  0.1206  4.3302  0.3348
  157DOPC     P18848   5.241   1.391   7.135 -0.5722 -0.0857 -0.1503
  157DOPC   O1318849   5.287   1.293   7.238  0.0973  0.8864  0.4775
  157DOPC   O1418850   5.287   1.532   7.159  0.6599 -0.0125  0.0435
  157DOPC   O1218851   5.081   1.397   7.133  0.0714 -0.6647  0.0463
  157DOPC   O1118852   5.299   1.333   7.003 -0.1778  0.2369  0.5382
  157DOPC    C118853   5.227   1.227   6.939 -0.4166  0.4981  0.1186
  157DOPC    HA18854   5.118   1.223   6.965 -0.7066 -2.7022 -1.1852
  157DOPC    HB18855   5.265   1.129   6.974 -1.3096 -0.4835 -1.5267
  157DOPC    C218856   5.232   1.235   6.787 -0.2837  0.1334  0.3382
  157DOPC    HS18857   5.163   1.319   6.761 -2.0307 -0.7859  1.7339
  157DOPC   O2118858   5.185   1.114   6.735 -0.2033 -0.4490 -0.5105
  157DOPC   C2118859   5.086   1.121   6.643 -0.5757 -0.3796 -0.2106
  157DOPC   O2218860   5.019   1.212   6.610  0.1102  0.1410  0.7463
  157DOPC   C2218861   5.068   0.981   6.585 -0.1221 -0.1356  0.2614
  157DOPC   H2R18862   4.979   0.992   6.519  1.4810  0.8903 -1.8467
  157DOPC   H2S18863   5.033   0.928   6.676  0.2241  1.4243  1.3442
  157DOPC    C318864   5.375   1.259   6.748 -0.7546  0.3797  0.3910
  157DOPC    HX18865   5.439   1.177   6.786 -1.5040 -0.3317  0.1256
  157DOPC    HY18866   5.410   1.347   6.806  1.1157 -1.6101  2.4353
  157DOPC   O3118867   5.384   1.268   6.599 -0.1478  0.3772 -0.5003
  157DOPC   C3118868   5.434   1.383   6.552 -0.2622 -0.6721  0.0275
  157DOPC   O3218869   5.467   1.485   6.612 -0.3998 -0.1097  0.1775
  157DOPC   C3218870   5.463   1.366   6.401  0.3475 -0.4179 -0.2945
  157DOPC   H2X18871   5.377   1.313   6.355  0.0132 -0.7715  0.7159
  157DOPC   H2Y18872   5.461   1.471   6.366  2.5387 -0.2173  0.0385
  157DOPC   C2318873   5.184   0.916   6.516 -0.2097 -0.2202  0.6048
  157DOPC   H3R18874   5.148   0.817   6.479 -1.2730  0.3736  0.0175
  157DOPC   H3S18875   5.259   0.910   6.598 -1.2561  0.1799  1.6108
  157DOPC   C2418876   5.239   1.004   6.405 -0.1236 -0.6065 -0.3903
  157DOPC   H4R18877   5.293   1.083   6.463 -3.5805  0.9772  0.9188
  157DOPC   H4S18878   5.152   1.051   6.355  0.5936  0.7277 -0.4383
  157DOPC   C2518879   5.340   0.951   6.300 -0.1958  0.1236 -0.2562
  157DOPC   H5R18880   5.420   0.891   6.348 -1.0565 -1.3232 -0.5778
  157DOPC   H5S18881   5.396   1.037   6.258  0.7432  0.3809  1.4437
  157DOPC   C2618882   5.270   0.872   6.187 -1.1071  0.5656 -0.0641
  157DOPC   H6R18883   5.220   0.940   6.114 -2.9390  1.7259  2.1504
  157DOPC   H6S18884   5.183   0.815   6.225 -1.5148  0.2091 -1.4608
  157DOPC   C2718885   5.373   0.788   6.114  0.0319 -0.3441 -0.0127
  157DOPC   H7R18886   5.463   0.854   6.115 -0.0487 -0.1907  2.3737
  157DOPC   H7S18887   5.332   0.771   6.012 -2.2329  0.7664  0.6520
  157DOPC   C2818888   5.397   0.659   6.185  0.9787  0.0275  0.2974
  157DOPC   H8R18889   5.306   0.596   6.179  0.6361  0.6301 -1.4116
  157DOPC   H8S18890   5.419   0.683   6.291 -1.5162 -1.3140  1.1880
  157DOPC   C2918891   5.515   0.604   6.110  0.5481  0.3490 -0.3758
  157DOPC   H9R18892   5.614   0.641   6.142  0.2101  1.9159 -1.0792
  157DOPC  C21018893   5.522   0.489   6.043  0.0687 -0.0051  0.4377
  157DOPC  H10R18894   5.618   0.455   6.002  0.8347  3.0350 -0.5692
  157DOPC  C21118895   5.401   0.405   6.005 -0.9773 -0.5147  0.1888
  157DOPC  H11R18896   5.304   0.457   6.001 -0.4386  0.5117  0.2460
  157DOPC  H11S18897   5.378   0.323   6.077 -2.8722  0.3359  0.6041
  157DOPC  C21218898   5.438   0.341   5.872  0.3198  0.4061  0.1621
  157DOPC  H12R18899   5.546   0.315   5.866  0.3149  0.3612  0.2599
  157DOPC  H12S18900   5.419   0.425   5.802  0.9125  0.6111  0.2426
  157DOPC  C21318901   5.345   0.222   5.828  0.1257  0.2638  0.2360
  157DOPC  H13R18902   5.239   0.252   5.825  0.8564  2.9667 -1.5810
  157DOPC  H13S18903   5.361   0.137   5.898  3.8536  0.4025 -0.2173
  157DOPC  C21418904   5.374   0.176   5.682 -0.2343  0.0111  0.0508
  157DOPC  H14R18905   5.476   0.133   5.676  0.4519  1.6225 -0.4772
  157DOPC  H14S18906   5.371   0.275   5.632 -0.2533 -1.4207 -3.0055
  157DOPC  C21518907   5.280   0.073   5.619 -0.3941 -0.4800 -0.1642
  157DOPC  H15R18908   5.175   0.110   5.619 -0.0309  0.5948  0.8670
  157DOPC  H15S18909   5.280  -0.011   5.691 -0.8942 -0.0761  0.3159
  157DOPC  C21618910   5.321   0.047   5.474  0.0395 -0.3925 -0.8621
  157DOPC  H16R18911   5.245  -0.026   5.438 -1.7838  0.5585  0.8866
  157DOPC  H16S18912   5.425   0.008   5.469 -0.4612 -1.7876 -1.0503
  157DOPC  C21718913   5.303   0.174   5.389  0.1010 -0.3249 -0.2324
  157DOPC  H17R18914   5.389   0.243   5.400 -0.1281 -0.0101 -0.3998
  157DOPC  H17S18915   5.207   0.227   5.408  0.7609  0.8638 -0.0870
  157DOPC  C21818916   5.303   0.133   5.238  0.4567 -0.6977 -0.2004
  157DOPC  H18R18917   5.396   0.089   5.196  1.6545  2.0687 -0.6595
  157DOPC  H18S18918   5.301   0.228   5.180  1.5030 -0.5172  0.0398
  157DOPC  H18T18919   5.212   0.070   5.228 -1.6236  1.3917  3.2487
  157DOPC   C3318920   5.595   1.307   6.364  0.2325  0.4193 -0.2442
  157DOPC   H3X18921   5.608   1.210   6.415 -2.8632  0.8423  1.5613
  157DOPC   H3Y18922   5.684   1.369   6.387  1.3826 -0.7865 -1.2672
  157DOPC   C3418923   5.591   1.290   6.212 -0.3626  0.3051 -0.0081
  157DOPC   H4X18924   5.616   1.382   6.155 -1.8983  0.8760  0.1864
  157DOPC   H4Y18925   5.491   1.251   6.183  0.8820 -2.0518 -1.4980
  157DOPC   C3518926   5.686   1.183   6.167  0.3248 -0.5938 -0.1033
  157DOPC   H5X18927   5.659   1.089   6.219 -1.1397  0.1170  0.4767
  157DOPC   H5Y18928   5.783   1.222   6.205 -0.9820  0.0505  2.8281
  157DOPC   C3618929   5.683   1.142   6.019  0.4282  0.1902  0.3118
  157DOPC   H6X18930   5.756   1.060   6.003 -0.5481 -0.7204  0.3724
  157DOPC   H6Y18931   5.583   1.095   6.009  1.0051 -0.8839 -0.5816
  157DOPC   C3718932   5.681   1.257   5.918  0.7375  0.0612 -0.0124
  157DOPC   H7X18933   5.584   1.310   5.928  1.7941  1.9011  1.2198
  157DOPC   H7Y18934   5.759   1.334   5.941 -0.9623  1.7928  0.1762
  157DOPC   C3818935   5.693   1.205   5.778  0.5899  0.4188  0.7282
  157DOPC   H8X18936   5.771   1.126   5.769 -1.6255 -1.7260 -1.1735
  157DOPC   H8Y18937   5.730   1.282   5.706 -0.4929 -0.4315 -0.7980
  157DOPC   C3918938   5.568   1.134   5.719 -0.3020  1.0057  0.6671
  157DOPC   H9X18939   5.494   1.109   5.798 -2.1387 -3.0380 -1.9745
  157DOPC  C31018940   5.527   1.113   5.590 -0.3280  0.4051  0.4816
  157DOPC  H10X18941   5.440   1.047   5.578  1.3452 -2.0387  1.1278
  157DOPC  C31118942   5.611   1.147   5.466  0.3014 -0.4047  0.2108
  157DOPC  H11X18943   5.656   1.056   5.423  0.1831 -0.2382 -0.2658
  157DOPC  H11Y18944   5.696   1.211   5.499 -0.4370  0.8610 -0.2625
  157DOPC  C31218945   5.546   1.221   5.351  0.6665 -0.0695  0.9212
  157DOPC  H12X18946   5.515   1.321   5.388 -0.9990  0.4341 -1.5572
  157DOPC  H12Y18947   5.447   1.179   5.321  0.5164  1.8454 -1.5665
  157DOPC  C31318948   5.642   1.236   5.234 -0.1993  0.7521 -0.8883
  157DOPC  H13X18949   5.599   1.304   5.158  4.2768  4.4548 -0.5747
  157DOPC  H13Y18950   5.730   1.296   5.267 -0.0107 -0.0154  0.0481
  157DOPC  C31418951   5.687   1.105   5.167  0.0096  0.0387  0.5872
  157DOPC  H14X18952   5.721   1.141   5.067  0.3108 -0.8650  0.3545
  157DOPC  H14Y18953   5.776   1.060   5.215  2.1658 -0.1162 -3.1861
  157DOPC  C31518954   5.583   1.003   5.126 -0.0908  0.4534  0.6390
  157DOPC  H15X18955   5.515   1.049   5.052  0.8697  0.2847 -0.3820
  157DOPC  H15Y18956   5.527   0.968   5.216  1.5300 -1.2520  1.0572
  157DOPC  C31618957   5.654   0.871   5.076 -0.3269  0.1540  0.0428
  157DOPC  H16X18958   5.730   0.906   5.004 -0.7163  0.8629 -0.0367
  157DOPC  H16Y18959   5.711   0.817   5.154 -1.4322  0.8914  1.4122
  157DOPC  C31718960   5.545   0.779   5.017  0.2368 -1.0415 -0.1356
  157DOPC  H17X18961   5.482   0.754   5.105 -1.2917  2.1854 -0.1475
  157DOPC  H17Y18962   5.469   0.840   4.964 -2.8826 -2.6681  2.1266
  157DOPC  C31818963   5.580   0.667   4.922 -0.7146  0.0504 -0.7301
  157DOPC  H18X18964   5.601   0.716   4.824 -1.3143  1.9122  0.0297
  157DOPC  H18Y18965   5.666   0.604   4.952 -2.1521  0.2504  4.9450
  157DOPC  H18Z18966   5.487   0.606   4.918 -0.7917  0.1264 -0.1228
  158DOPC     N18967   4.366   0.631   7.393 -0.9487 -0.8273  0.3772
  158DOPC   C1218968   4.379   0.647   7.238 -0.1501  0.1674 -0.1742
  158DOPC  H12A18969   4.357   0.750   7.213 -1.6449  0.6873  2.8840
  158DOPC  H12B18970   4.302   0.590   7.188  0.4450  0.1819 -1.1587
  158DOPC   C1318971   4.477   0.694   7.470 -0.3170  0.0747  0.2729
  158DOPC  H13A18972   4.567   0.651   7.429 -1.2429 -1.9372  0.2288
  158DOPC  H13B18973   4.482   0.801   7.460 -1.5645  0.0342 -1.1603
  158DOPC  H13C18974   4.467   0.680   7.577 -0.1646  0.4314  0.3347
  158DOPC   C1418975   4.361   0.482   7.422 -0.0839 -0.2398 -0.2992
  158DOPC  H14A18976   4.328   0.485   7.524  0.3280 -0.2745 -0.1627
  158DOPC  H14B18977   4.276   0.434   7.375 -0.7773  1.7631 -1.2283
  158DOPC  H14C18978   4.457   0.432   7.415  0.2018  0.2061  0.3553
  158DOPC   C1518979   4.232   0.690   7.434 -0.2474 -0.0022  0.4405
  158DOPC  H15A18980   4.219   0.686   7.542 -1.2551 -0.0715  0.3231
  158DOPC  H15B18981   4.160   0.633   7.378  1.7892 -2.7912  0.4401
  158DOPC  H15C18982   4.225   0.795   7.409 -1.7671 -0.7267 -2.5754
  158DOPC   C1118983   4.510   0.601   7.175  0.6954  0.6574 -0.6437
  158DOPC  H11A18984   4.540   0.498   7.203  1.0678  0.7511 -0.6919
  158DOPC  H11B18985   4.482   0.602   7.067 -3.2611  0.1330  0.2039
  158DOPC     P18986   4.750   0.695   7.168 -0.1072  0.2537 -0.0513
  158DOPC   O1318987   4.802   0.587   7.260  0.3481  0.2452  0.5192
  158DOPC   O1418988   4.817   0.821   7.201  0.4806  0.3814  0.2796
  158DOPC   O1218989   4.598   0.702   7.182 -0.4347  0.8113  0.4382
  158DOPC   O1118990   4.770   0.644   7.018 -0.1910 -0.1120  0.3352
  158DOPC    C118991   4.794   0.744   6.916 -0.1803 -0.4068  0.1310
  158DOPC    HA18992   4.810   0.702   6.815 -1.2554  0.9226 -0.6282
  158DOPC    HB18993   4.877   0.814   6.942 -1.2689  1.3283 -0.8847
  158DOPC    C218994   4.663   0.828   6.900  0.3651 -1.3043 -0.4782
  158DOPC    HS18995   4.632   0.876   6.995  1.6316 -2.4805  0.5569
  158DOPC   O2118996   4.549   0.744   6.862  0.8444  0.0319 -0.4149
  158DOPC   C2118997   4.438   0.805   6.873 -0.1210 -0.0074  0.4435
  158DOPC   O2218998   4.422   0.920   6.916 -0.1999 -0.0722 -0.1581
  158DOPC   C2218999   4.323   0.717   6.827  0.2982  0.0244 -0.6459
  158DOPC   H2R19000   4.239   0.788   6.809 -1.1504 -0.8130  2.1144
  158DOPC   H2S19001   4.296   0.659   6.918 -0.4438 -1.5184 -1.7978
  158DOPC    C319002   4.681   0.950   6.809 -0.3669 -0.2073  0.9902
  158DOPC    HX19003   4.778   1.001   6.827  0.1251  0.0604 -1.8096
  158DOPC    HY19004   4.596   1.021   6.817  0.6518  1.1430  0.2514
  158DOPC   O3119005   4.694   0.902   6.671  0.0497  0.9981 -0.1713
  158DOPC   C3119006   4.683   0.995   6.575 -0.5834  0.6830  0.1177
  158DOPC   O3219007   4.701   1.112   6.593  0.4064  0.3804  0.0508
  158DOPC   C3219008   4.626   0.926   6.448 -0.0703  0.4409  0.1114
  158DOPC   H2X19009   4.665   0.822   6.447 -1.7574 -0.2345  0.9502
  158DOPC   H2Y19010   4.519   0.910   6.474  0.0373 -3.3285 -1.1516
  158DOPC   C2319011   4.348   0.620   6.713  0.2372 -0.3819 -0.4967
  158DOPC   H3R19012   4.293   0.524   6.718 -1.4872  0.6076  0.1920
  158DOPC   H3S19013   4.456   0.599   6.698  0.2370  0.3224 -1.5937
  158DOPC   C2419014   4.307   0.694   6.581 -0.7623  0.1961 -0.5729
  158DOPC   H4R19015   4.339   0.800   6.591 -1.6478  0.3330  1.1675
  158DOPC   H4S19016   4.199   0.711   6.564 -0.7445  1.4005  0.4231
  158DOPC   C2519017   4.350   0.623   6.457 -0.0761 -1.1077  0.2274
  158DOPC   H5R19018   4.291   0.530   6.443 -2.6917  0.7016 -1.6290
  158DOPC   H5S19019   4.459   0.599   6.461 -0.2035 -1.5274  1.4839
  158DOPC   C2619020   4.312   0.703   6.334 -0.0264 -0.4080  0.3464
  158DOPC   H6R19021   4.353   0.806   6.348  0.2726 -0.1736 -1.9004
  158DOPC   H6S19022   4.201   0.713   6.332 -0.3728 -3.0633  1.8844
  158DOPC   C2719023   4.375   0.643   6.211  0.0579 -0.1899  0.3268
  158DOPC   H7R19024   4.327   0.545   6.194 -2.2152  1.0482 -0.9017
  158DOPC   H7S19025   4.484   0.640   6.231  0.6868  2.1412 -2.2016
  158DOPC   C2819026   4.364   0.728   6.082 -0.3369 -0.3958  0.1203
  158DOPC   H8R19027   4.423   0.677   6.003  0.7096  0.8231  0.0823
  158DOPC   H8S19028   4.409   0.826   6.109  1.4179 -1.5500  1.6377
  158DOPC   C2919029   4.220   0.731   6.039  0.4084 -0.9052  0.2174
  158DOPC   H9R19030   4.146   0.775   6.108 -0.7877 -0.1413 -1.4591
  158DOPC  C21019031   4.166   0.709   5.915  0.6680 -0.4830 -0.6223
  158DOPC  H10R19032   4.057   0.704   5.899  0.5359  2.1274 -0.9908
  158DOPC  C21119033   4.229   0.676   5.785 -0.5486  0.5696  0.1867
  158DOPC  H11R19034   4.339   0.687   5.795 -0.5730  0.3278  0.8166
  158DOPC  H11S19035   4.184   0.725   5.697 -1.5186 -1.3737 -0.4466
  158DOPC  C21219036   4.201   0.528   5.742 -0.2036  0.3594  0.0255
  158DOPC  H12R19037   4.093   0.518   5.720  0.2332  1.2800 -2.9858
  158DOPC  H12S19038   4.253   0.469   5.821 -0.6827 -0.4106 -0.2321
  158DOPC  C21319039   4.263   0.508   5.602 -0.4889 -0.4877 -0.2174
  158DOPC  H13R19040   4.374   0.514   5.610 -0.5262 -0.2725  0.1579
  158DOPC  H13S19041   4.224   0.583   5.530 -1.7766 -0.4775  0.4580
  158DOPC  C21419042   4.249   0.364   5.550  0.3316  0.8123  0.2972
  158DOPC  H14R19043   4.140   0.344   5.553  0.7201 -1.9718 -1.2323
  158DOPC  H14S19044   4.289   0.288   5.621  1.3697  0.7900 -0.2929
  158DOPC  C21519045   4.305   0.341   5.406 -0.0393 -0.1744  0.4598
  158DOPC  H15R19046   4.415   0.347   5.420  0.6841 -0.9978 -3.5185
  158DOPC  H15S19047   4.276   0.414   5.327 -2.7643 -2.2975 -0.6766
  158DOPC  C21619048   4.268   0.199   5.342 -0.0631  0.1729 -0.2204
  158DOPC  H16R19049   4.318   0.131   5.413  1.2908  0.5141 -0.8193
  158DOPC  H16S19050   4.315   0.187   5.242  1.8747 -0.5800  0.7446
  158DOPC  C21719051   4.120   0.149   5.345 -0.0798  0.1135  0.4034
  158DOPC  H17R19052   4.083   0.133   5.448  0.8686 -2.0573  0.4596
  158DOPC  H17S19053   4.113   0.048   5.298 -1.0986  0.9499 -1.3413
  158DOPC  C21819054   4.026   0.249   5.271 -0.5703  0.4355 -0.8048
  158DOPC  H18R19055   3.920   0.218   5.276 -0.2117 -0.7409 -0.2147
  158DOPC  H18S19056   4.051   0.252   5.163 -1.2340 -4.5550 -1.3297
  158DOPC  H18T19057   4.033   0.349   5.320 -1.0790 -0.7125  1.7288
  158DOPC   C3319058   4.639   1.008   6.325  0.2742  0.3170  0.6396
  158DOPC   H3X19059   4.614   1.113   6.352 -0.5783  0.2109  0.2886
  158DOPC   H3Y19060   4.579   0.971   6.240  1.9855 -0.6751 -0.2016
  158DOPC   C3419061   4.787   1.006   6.264 -0.1386 -0.3653  0.4942
  158DOPC   H4X19062   4.829   0.905   6.281 -3.6963 -2.0003  0.3892
  158DOPC   H4Y19063   4.853   1.077   6.318  0.7805 -0.1963 -0.8178
  158DOPC   C3519064   4.789   1.051   6.115  0.3906  0.0497 -0.1486
  158DOPC   H5X19065   4.743   1.150   6.094  2.2845  1.8212  3.1215
  158DOPC   H5Y19066   4.725   0.981   6.058  0.9254 -2.1345  1.7526
  158DOPC   C3619067   4.926   1.037   6.059  0.7672  0.0422 -0.0794
  158DOPC   H6X19068   4.984   1.122   6.100 -2.2635  2.7040 -0.9053
  158DOPC   H6Y19069   4.960   0.936   6.091 -0.7953 -0.7491 -0.7825
  158DOPC   C3719070   4.926   1.053   5.904 -0.1965  0.3564  0.5969
  158DOPC   H7X19071   4.857   0.974   5.869 -0.2506  0.2025  1.0383
  158DOPC   H7Y19072   4.873   1.147   5.878 -1.8946 -0.3641  1.3087
  158DOPC   C3819073   5.064   1.025   5.844 -0.2799 -0.2391  0.1613
  158DOPC   H8X19074   5.105   0.930   5.883 -1.9164 -1.6830 -1.4300
  158DOPC   H8Y19075   5.131   1.112   5.860  0.0459 -0.1588 -1.4537
  158DOPC   C3919076   5.041   1.009   5.696 -0.2297 -0.2191 -1.3469
  158DOPC   H9X19077   5.014   1.104   5.647  0.8934  0.6587 -0.3481
  158DOPC  C31019078   5.062   0.901   5.616 -0.1793  0.1018 -0.4518
  158DOPC  H10X19079   5.062   0.909   5.506  2.3661  0.6142 -0.4786
  158DOPC  C31119080   5.106   0.760   5.666  0.4758 -0.7689  0.5560
  158DOPC  H11X19081   5.038   0.678   5.634 -1.0042 -0.4994  2.7826
  158DOPC  H11Y19082   5.106   0.751   5.777  0.0915 -0.0050  0.6239
  158DOPC  C31219083   5.251   0.711   5.618 -0.2527 -0.7509 -0.3754
  158DOPC  H12X19084   5.283   0.614   5.662 -1.0866 -0.5747  0.6558
  158DOPC  H12Y19085   5.319   0.787   5.662 -0.7534  0.1466 -1.1148
  158DOPC  C31319086   5.260   0.719   5.472  0.1250  0.7728  0.2500
  158DOPC  H13X19087   5.247   0.817   5.421  1.3765  1.8744  1.9501
  158DOPC  H13Y19088   5.360   0.697   5.428 -0.0745  1.5435 -0.6178
  158DOPC  C31419089   5.181   0.613   5.391 -0.1845  0.0459  0.0150
  158DOPC  H14X19090   5.194   0.511   5.433  1.3571  0.0620 -0.3357
  158DOPC  H14Y19091   5.075   0.642   5.400  0.0038  1.0454 -0.8193
  158DOPC  C31519092   5.216   0.627   5.245  0.4015 -0.2601  0.2699
  158DOPC  H15X19093   5.322   0.598   5.230  0.1913 -1.9883  1.8473
  158DOPC  H15Y19094   5.188   0.731   5.218  0.3587 -0.5373 -0.7875
  158DOPC  C31619095   5.130   0.527   5.170  0.8368 -0.2025  0.0781
  158DOPC  H16X19096   5.170   0.428   5.199 -0.1542 -0.3295  1.0869
  158DOPC  H16Y19097   5.022   0.521   5.193  1.1306  0.0563  1.5901
  158DOPC  C31719098   5.155   0.536   5.015  0.8481  0.0231 -0.6458
  158DOPC  H17X19099   5.264   0.549   5.003  0.6283  2.7821 -0.3267
  158DOPC  H17Y19100   5.120   0.440   4.970 -0.5588  0.7158 -1.0900
  158DOPC  C31819101   5.080   0.653   4.960 -0.1029 -0.4764  0.2240
  158DOPC  H18X19102   5.078   0.734   5.037  2.2004  0.1038 -0.2486
  158DOPC  H18Y19103   5.120   0.692   4.864  1.7751 -0.2633  1.0407
  158DOPC  H18Z19104   4.973   0.634   4.937  0.0086 -0.2817 -0.4802
  159DOPC     N19105   5.648   1.340   7.233  0.8360  0.1444 -0.3184
  159DOPC   C1219106   5.572   1.285   7.104 -0.6972  0.0508  0.0666
  159DOPC  H12A19107   5.503   1.358   7.066  1.6057  2.7406  0.7288
  159DOPC  H12B19108   5.511   1.199   7.127 -2.8215  1.2956 -0.6243
  159DOPC   C1319109   5.725   1.464   7.185  0.6634  0.7634 -0.4206
  159DOPC  H13A19110   5.654   1.514   7.121  0.7001 -0.7831 -1.7374
  159DOPC  H13B19111   5.763   1.528   7.263 -0.6001  1.3721 -0.2832
  159DOPC  H13C19112   5.807   1.438   7.121 -1.7588 -0.5236 -3.2484
  159DOPC   C1419113   5.749   1.243   7.285  0.0335  0.0202 -0.0015
  159DOPC  H14A19114   5.706   1.152   7.325 -0.3738 -0.3742 -1.2758
  159DOPC  H14B19115   5.816   1.207   7.208  2.0108 -0.0786  1.6746
  159DOPC  H14C19116   5.808   1.292   7.361 -1.6551  1.1596  0.6300
  159DOPC   C1519117   5.548   1.373   7.337 -0.3456 -0.6133  0.2000
  159DOPC  H15A19118   5.502   1.288   7.384 -1.9818  0.8406  1.3825
  159DOPC  H15B19119   5.460   1.417   7.292  0.6913  2.6857  1.0791
  159DOPC  H15C19120   5.567   1.445   7.416 -3.1215 -0.1138  0.5233
  159DOPC   C1119121   5.656   1.236   6.985 -0.0168  0.2002 -0.2645
  159DOPC  H11A19122   5.603   1.245   6.888  1.8887 -1.3942 -1.5382
  159DOPC  H11B19123   5.735   1.313   6.970 -0.8433  1.1140 -0.0185
  159DOPC     P19124   5.632   0.976   6.972  0.1135 -0.6316 -0.2731
  159DOPC   O1319125   5.492   0.992   7.009 -0.6233  0.1523  0.2028
  159DOPC   O1419126   5.718   0.866   7.023 -0.4561 -0.5322  0.3747
  159DOPC   O1219127   5.712   1.110   7.004 -0.0196 -0.8476  0.7100
  159DOPC   O1119128   5.634   0.974   6.814 -0.4086  1.3730  0.2032
  159DOPC    C119129   5.751   1.019   6.745  0.0080 -0.4117  0.1825
  159DOPC    HA19130   5.848   0.984   6.787  1.2220  1.2665 -1.0694
  159DOPC    HB19131   5.755   1.130   6.741 -3.2649 -0.2083 -0.3468
  159DOPC    C219132   5.751   0.964   6.601 -0.2436  0.0490  0.6856
  159DOPC    HS19133   5.661   1.004   6.549  0.2131  2.6093  1.7088
  159DOPC   O2119134   5.734   0.823   6.616  0.5725  0.2564  0.3879
  159DOPC   C2119135   5.717   0.775   6.498  0.8016  0.8423 -0.6716
  159DOPC   O2219136   5.701   0.837   6.397 -0.5558 -0.0820 -0.4094
  159DOPC   C2219137   5.716   0.620   6.506  0.3808 -0.1403 -0.1643
  159DOPC   H2R19138   5.612   0.589   6.480 -0.2542  0.4775  1.4985
  159DOPC   H2S19139   5.727   0.591   6.613  0.4723  1.3090  0.2368
  159DOPC    C319140   5.884   1.007   6.528  0.4355  0.1440  0.3982
  159DOPC    HX19141   5.895   0.949   6.434  2.1974 -1.3055  1.4354
  159DOPC    HY19142   5.963   0.961   6.590  0.9287 -1.5779 -1.4120
  159DOPC   O3119143   5.889   1.151   6.511  0.1119 -0.1713  0.3233
  159DOPC   C3119144   6.001   1.182   6.443  0.4002 -0.0343 -0.5079
  159DOPC   O3219145   6.083   1.097   6.407 -0.0394 -0.3800 -0.3511
  159DOPC   C3219146   6.013   1.327   6.411  0.8635  0.3192 -0.1434
  159DOPC   H2X19147   5.938   1.371   6.343  2.0287  4.0919  0.7510
  159DOPC   H2Y19148   5.999   1.381   6.507  1.0204 -0.4520  0.3286
  159DOPC   C2319149   5.819   0.561   6.410  0.4553  0.0464  0.0895
  159DOPC   H3R19150   5.927   0.576   6.431  0.3441  0.5526  0.3303
  159DOPC   H3S19151   5.796   0.597   6.307  2.8468 -2.7644 -1.5901
  159DOPC   C2419152   5.794   0.408   6.385  0.2033 -0.3360  0.2737
  159DOPC   H4R19153   5.686   0.392   6.366  0.7009 -1.1031 -2.1761
  159DOPC   H4S19154   5.814   0.365   6.485 -0.2313 -0.5015  0.2909
  159DOPC   C2519155   5.880   0.352   6.274  0.1441  0.0288 -0.6411
  159DOPC   H5R19156   5.881   0.419   6.185  0.4371  1.8015  0.6554
  159DOPC   H5S19157   5.832   0.253   6.254  0.1968 -0.7743  2.7082
  159DOPC   C2619158   6.027   0.330   6.322  0.1541 -0.3206 -0.1496
  159DOPC   H6R19159   6.014   0.248   6.395 -0.8876 -1.0414 -1.1204
  159DOPC   H6S19160   6.075   0.423   6.360  2.0897 -0.3781 -2.2509
  159DOPC   C2719161   6.132   0.274   6.218 -0.2814 -0.5547 -0.1038
  159DOPC   H7R19162   6.233   0.262   6.263 -0.3551 -0.6405  0.0403
  159DOPC   H7S19163   6.138   0.351   6.138  0.2673 -0.0883  0.3764
  159DOPC   C2819164   6.090   0.151   6.139  0.2182  0.5102 -0.0017
  159DOPC   H8R19165   6.181   0.114   6.087 -0.3717 -2.1803  0.7657
  159DOPC   H8S19166   6.015   0.199   6.072 -2.1777 -2.6539  0.2176
  159DOPC   C2919167   6.030   0.035   6.218 -0.8388 -0.6794 -0.5280
  159DOPC   H9R19168   6.001   0.073   6.316 -1.0106 -0.7362 -0.5570
  159DOPC  C21019169   6.036  -0.091   6.188 -0.5486  0.2703  0.2644
  159DOPC  H10R19170   6.002  -0.162   6.265 -2.7290 -1.5383 -2.1692
  159DOPC  C21119171   6.098  -0.161   6.076 -0.6181 -0.0916 -0.4752
  159DOPC  H11R19172   6.134  -0.090   5.998 -0.1618 -0.9021 -1.0116
  159DOPC  H11S19173   6.031  -0.227   6.018  1.4075 -1.4520 -1.3906
  159DOPC  C21219174   6.221  -0.247   6.112 -0.0450 -1.1017 -0.1459
  159DOPC  H12R19175   6.192  -0.341   6.162 -0.8880 -1.2293 -0.8485
  159DOPC  H12S19176   6.299  -0.185   6.162 -1.5082  2.1779 -1.6170
  159DOPC  C21319177   6.291  -0.284   5.983  0.3339 -0.0640  0.8252
  159DOPC  H13R19178   6.315  -0.187   5.933  1.8210 -0.3734  0.8933
  159DOPC  H13S19179   6.225  -0.333   5.909  0.3707  1.7636 -0.5108
  159DOPC  C21419180   6.415  -0.369   6.019 -0.5022 -0.0467 -0.1567
  159DOPC  H14R19181   6.368  -0.457   6.067  1.4200 -0.3558  1.2490
  159DOPC  H14S19182   6.477  -0.310   6.090 -1.5097 -1.3705  1.8872
  159DOPC  C21519183   6.483  -0.407   5.886 -0.5860 -0.4726 -0.2940
  159DOPC  H15R19184   6.534  -0.319   5.841 -1.0512 -0.3207 -0.5288
  159DOPC  H15S19185   6.411  -0.440   5.809  2.4897 -4.1900 -1.9265
  159DOPC  C21619186   6.582  -0.523   5.909 -0.1002 -0.4631  0.3402
  159DOPC  H16R19187   6.525  -0.612   5.942  0.3189 -1.2744 -1.0302
  159DOPC  H16S19188   6.647  -0.488   5.992 -2.3943  3.3160  0.7673
  159DOPC  C21719189   6.663  -0.559   5.782  0.1657 -0.6384 -0.4223
  159DOPC  H17R19190   6.744  -0.629   5.814  1.9792  1.1312 -0.8989
  159DOPC  H17S19191   6.706  -0.464   5.744  0.5334  0.5677  2.7329
  159DOPC  C21819192   6.582  -0.635   5.678  0.3223 -0.8137  0.0309
  159DOPC  H18R19193   6.651  -0.661   5.595 -0.6468  0.8522 -1.3827
  159DOPC  H18S19194   6.497  -0.568   5.651 -0.1472 -1.3886  0.0628
  159DOPC  H18T19195   6.544  -0.730   5.721  2.5931 -1.8703 -0.1378
  159DOPC   C3319196   6.158   1.373   6.364 -0.4582 -0.0139  0.3309
  159DOPC   H3X19197   6.232   1.290   6.372 -1.2962 -0.7976  0.0700
  159DOPC   H3Y19198   6.202   1.460   6.417  0.0182 -0.1715  0.2013
  159DOPC   C3419199   6.167   1.423   6.219  0.2215 -0.4471 -0.1780
  159DOPC   H4X19200   6.266   1.465   6.193  0.2947 -0.6338 -0.2037
  159DOPC   H4Y19201   6.098   1.509   6.204  0.1908 -0.6123 -1.0240
  159DOPC   C3519202   6.123   1.316   6.111 -0.0304  0.2322  0.1935
  159DOPC   H5X19203   6.018   1.284   6.129  0.1813 -1.2390 -0.9666
  159DOPC   H5Y19204   6.186   1.224   6.119 -0.4498  0.0356  1.5849
  159DOPC   C3619205   6.135   1.361   5.963  0.2373  0.4487  0.5826
  159DOPC   H6X19206   6.071   1.453   5.961 -1.3115 -0.5917  0.1776
  159DOPC   H6Y19207   6.242   1.384   5.946  1.1913 -2.2024  2.3732
  159DOPC   C3719208   6.088   1.245   5.871  0.1110 -0.5612 -0.2732
  159DOPC   H7X19209   6.129   1.146   5.901 -0.7125 -0.3238  1.8437
  159DOPC   H7Y19210   5.980   1.249   5.895  0.3915 -0.3659  1.0673
  159DOPC   C3819211   6.111   1.280   5.721  0.2121  0.5211 -0.8322
  159DOPC   H8X19212   6.217   1.285   5.687  0.0420  2.3374 -1.2346
  159DOPC   H8Y19213   6.062   1.375   5.691 -0.5853  0.1856 -0.6051
  159DOPC   C3919214   6.045   1.168   5.651 -0.1254  0.3957  0.6487
  159DOPC   H9X19215   6.020   1.075   5.703 -1.2096 -0.1293 -0.7517
  159DOPC  C31019216   6.000   1.170   5.525 -0.4598 -0.2321 -0.0117
  159DOPC  H10X19217   5.940   1.084   5.491 -0.7733  0.0952 -0.3035
  159DOPC  C31119218   6.004   1.285   5.424  0.1535  0.3132  0.4009
  159DOPC  H11X19219   6.057   1.377   5.458 -0.4901  1.6004 -1.8438
  159DOPC  H11Y19220   5.907   1.319   5.382 -0.0814 -0.7595  0.0608
  159DOPC  C31219221   6.094   1.233   5.306 -0.0039  0.9130 -0.1286
  159DOPC  H12X19222   6.042   1.143   5.266 -1.2782  0.9369  1.3689
  159DOPC  H12Y19223   6.190   1.199   5.349 -0.6869  0.9788  1.5056
  159DOPC  C31319224   6.103   1.333   5.187  0.3824 -0.2963  0.0020
  159DOPC  H13X19225   6.004   1.316   5.141  0.1246  1.7633 -0.2941
  159DOPC  H13Y19226   6.106   1.437   5.226 -1.1798  0.2243 -1.1860
  159DOPC  C31419227   6.219   1.299   5.097  0.3384  0.2720 -0.6591
  159DOPC  H14X19228   6.308   1.266   5.156  0.0823 -0.3779 -0.6240
  159DOPC  H14Y19229   6.197   1.206   5.040  1.8534 -1.8579  1.9695
  159DOPC  C31519230   6.258   1.416   5.017  0.0130  0.8106  0.1131
  159DOPC  H15X19231   6.291   1.494   5.089  1.4722 -0.3378  0.7309
  159DOPC  H15Y19232   6.171   1.454   4.960  0.8285  3.2086  0.3796
  159DOPC  C31619233   6.367   1.397   4.914  0.3719  0.3017 -0.1288
  159DOPC  H16X19234   6.459   1.447   4.950  0.9054  1.0569 -2.4151
  159DOPC  H16Y19235   6.389   1.288   4.913  1.0611  0.4369  0.1107
  159DOPC  C31719236   6.335   1.442   4.768 -0.6491  0.5921 -0.6828
  159DOPC  H17X19237   6.421   1.405   4.709  0.0369 -1.3709  1.3966
  159DOPC  H17Y19238   6.247   1.381   4.739 -1.1673  0.6968  0.6124
  159DOPC  C31819239   6.306   1.588   4.745 -0.4274  0.0803 -0.5578
  159DOPC  H18X19240   6.300   1.604   4.635  2.3235  0.5699 -0.6993
  159DOPC  H18Y19241   6.214   1.629   4.792 -0.4915  0.4916 -1.0375
  159DOPC  H18Z19242   6.386   1.654   4.783 -0.8674 -0.2451  1.0178
  160DOPC     N19243   0.448   6.916   7.210 -0.2825 -0.2091  0.0288
  160DOPC   C1219244   0.542   6.990   7.114  0.1676  0.0693 -0.2682
  160DOPC  H12A19245   0.622   6.927   7.078 -0.8029 -0.7451 -1.0510
  160DOPC  H12B19246   0.595   7.066   7.171  1.1592  0.8014 -2.0891
  160DOPC   C1319247   0.536   6.856   7.312 -0.6333 -0.3978 -0.7451
  160DOPC  H13A19248   0.489   6.820   7.401 -1.9883  1.0854 -0.8127
  160DOPC  H13B19249   0.593   6.769   7.284 -1.1634 -1.5720  1.6294
  160DOPC  H13C19250   0.601   6.933   7.352 -0.8483 -0.0715 -1.0107
  160DOPC   C1419251   0.382   6.806   7.128 -0.3559 -0.1194  0.4588
  160DOPC  H14A19252   0.456   6.759   7.065  0.1275  0.3228  0.6921
  160DOPC  H14B19253   0.342   6.726   7.189  1.2550 -1.5829 -0.3313
  160DOPC  H14C19254   0.308   6.835   7.055 -0.6053  0.0125  0.7638
  160DOPC   C1519255   0.343   7.005   7.270  0.2320 -0.2280  0.2355
  160DOPC  H15A19256   0.389   7.080   7.333  0.0866 -0.4059  0.5564
  160DOPC  H15B19257   0.275   6.943   7.327 -0.0687 -1.2260 -1.1372
  160DOPC  H15C19258   0.291   7.049   7.186  0.5913 -2.5458 -1.3103
  160DOPC   C1119259   0.475   7.070   7.000  0.1226 -0.0130  1.1051
  160DOPC  H11A19260   0.535   7.076   6.907  1.0333  1.0622  1.7368
  160DOPC  H11B19261   0.388   7.009   6.968  1.1185 -0.9734  0.1396
  160DOPC     P19262   0.526   7.322   7.055  0.5704  0.0556 -0.0413
  160DOPC   O1319263   0.647   7.272   7.126 -0.6618 -0.5466 -0.4288
  160DOPC   O1419264   0.452   7.433   7.123 -0.3338 -0.0764  0.0138
  160DOPC   O1219265   0.428   7.196   7.042 -0.2652  0.0054  0.5600
  160DOPC   O1119266   0.557   7.359   6.908 -0.0089 -0.3966 -0.0071
  160DOPC    C119267   0.446   7.369   6.812  0.0510 -0.1813  0.7668
  160DOPC    HA19268   0.363   7.432   6.851  0.2086  1.2358 -1.0772
  160DOPC    HB19269   0.407   7.267   6.794  0.0392 -0.2920  1.4044
  160DOPC    C219270   0.491   7.436   6.681 -0.0047  0.3986  0.8947
  160DOPC    HS19271   0.404   7.439   6.612  0.5043  2.5918  0.2442
  160DOPC   O2119272   0.601   7.364   6.613  0.3274  0.2548 -0.0987
  160DOPC   C2119273   0.560   7.244   6.570  0.1580 -0.1073 -0.2710
  160DOPC   O2219274   0.447   7.195   6.584 -0.2707 -0.0323 -0.1811
  160DOPC   C2219275   0.680   7.167   6.532 -0.3868  0.1040  0.2928
  160DOPC   H2R19276   0.661   7.059   6.553 -1.0074 -0.0230 -0.8355
  160DOPC   H2S19277   0.767   7.191   6.597 -0.7980  2.9207 -0.0620
  160DOPC    C319278   0.526   7.593   6.700  0.1813 -0.3139  0.1440
  160DOPC    HX19279   0.610   7.588   6.773  1.1548  1.4106 -0.8042
  160DOPC    HY19280   0.439   7.649   6.740  0.8947  0.2633  0.9468
  160DOPC   O3119281   0.564   7.670   6.584 -0.4209 -0.4143 -0.7713
  160DOPC   C3119282   0.691   7.731   6.597  0.2792  0.1393 -0.4804
  160DOPC   O3219283   0.756   7.741   6.698  0.0050 -0.2839 -0.5196
  160DOPC   C3219284   0.742   7.784   6.456  0.4399  0.2170 -0.0583
  160DOPC   H2X19285   0.677   7.870   6.430  0.2310  0.2416  0.5241
  160DOPC   H2Y19286   0.852   7.803   6.455  0.6601 -0.6751  1.9501
  160DOPC   C2319287   0.726   7.191   6.377 -0.6130  0.1689 -0.8617
  160DOPC   H3R19288   0.824   7.139   6.370 -0.4020  0.3819  0.2655
  160DOPC   H3S19289   0.732   7.300   6.355 -0.3647  0.5868  1.1292
  160DOPC   C2419290   0.632   7.130   6.266  0.5927 -1.0682 -0.4133
  160DOPC   H4R19291   0.541   7.193   6.271 -0.0572 -1.8857 -1.4720
  160DOPC   H4S19292   0.611   7.027   6.302  0.5109 -1.8308 -2.5078
  160DOPC   C2519293   0.685   7.125   6.126  0.7185  0.2992 -0.4916
  160DOPC   H5R19294   0.614   7.056   6.074 -1.1855 -0.4912  2.8421
  160DOPC   H5S19295   0.782   7.072   6.127  0.6026  0.0826 -0.5025
  160DOPC   C2619296   0.705   7.259   6.065 -0.1630  0.1524  0.0798
  160DOPC   H6R19297   0.754   7.332   6.134 -0.0313  1.4116 -1.3008
  160DOPC   H6S19298   0.627   7.325   6.022  1.0156  0.4209 -1.7083
  160DOPC   C2719299   0.805   7.254   5.941  0.4217  0.3071  0.1285
  160DOPC   H7R19300   0.877   7.169   5.944 -0.6952 -0.7494 -1.0034
  160DOPC   H7S19301   0.873   7.341   5.938  0.1324  0.5603  0.8595
  160DOPC   C2819302   0.735   7.250   5.806  0.2316 -0.0009 -0.2142
  160DOPC   H8R19303   0.801   7.282   5.722 -2.4752  1.1737 -2.0472
  160DOPC   H8S19304   0.654   7.326   5.802  0.9171  0.7212 -0.8352
  160DOPC   C2919305   0.674   7.115   5.762  0.4523 -0.2880 -0.2762
  160DOPC   H9R19306   0.620   7.053   5.836  0.4071  0.6052  0.4473
  160DOPC  C21019307   0.688   7.055   5.638  0.1117  0.1467  0.4706
  160DOPC  H10R19308   0.633   6.960   5.625  0.7249 -0.0484 -0.8008
  160DOPC  C21119309   0.769   7.113   5.521 -0.1262 -0.3127 -0.3091
  160DOPC  H11R19310   0.871   7.070   5.529  0.5925  1.5990  2.7883
  160DOPC  H11S19311   0.774   7.224   5.521  0.5513 -0.2952  1.8839
  160DOPC  C21219312   0.714   7.060   5.387  1.7448  0.0958 -0.5847
  160DOPC  H12R19313   0.603   7.065   5.391  1.7787  1.6040 -0.6888
  160DOPC  H12S19314   0.747   6.954   5.386 -0.0147 -0.5051  0.7053
  160DOPC  C21319315   0.771   7.127   5.262 -0.2059  0.1418 -0.8506
  160DOPC  H13R19316   0.875   7.090   5.257 -0.4509 -0.4692 -1.9710
  160DOPC  H13S19317   0.788   7.234   5.287  1.2157 -0.6052  1.7346
  160DOPC  C21419318   0.691   7.089   5.136  0.2013  0.2854 -0.5499
  160DOPC  H14R19319   0.583   7.117   5.139 -0.5269 -2.2625 -0.5782
  160DOPC  H14S19320   0.698   6.978   5.140  1.1217  0.3689  2.4957
  160DOPC  C21519321   0.750   7.142   5.017  0.2112 -0.5041 -0.6666
  160DOPC  H15R19322   0.737   7.072   4.932 -0.5813 -0.9042 -0.2211
  160DOPC  H15S19323   0.860   7.130   5.027  0.1506  0.7682  3.1514
  160DOPC  C21619324   0.711   7.278   4.973  0.8394  0.0462 -0.4078
  160DOPC  H16R19325   0.614   7.314   5.015  0.8784 -0.0929 -0.2018
  160DOPC  H16S19326   0.700   7.287   4.863  2.2817  0.0476 -0.5618
  160DOPC  C21719327   0.818   7.389   5.017  0.3974  0.1747  0.5466
  160DOPC  H17R19328   0.917   7.357   4.981 -0.5404 -1.1550 -0.9545
  160DOPC  H17S19329   0.835   7.374   5.126 -0.7721 -0.8132  0.6254
  160DOPC  C21819330   0.764   7.527   4.968  0.0638  0.4871  0.1373
  160DOPC  H18R19331   0.833   7.615   4.966 -1.1943  1.4999  0.0989
  160DOPC  H18S19332   0.676   7.553   5.031  1.1778 -1.7862  2.8681
  160DOPC  H18T19333   0.714   7.523   4.869 -1.3359  1.4733  0.7687
  160DOPC   C3319334   0.715   7.670   6.348 -0.6814 -0.2352  0.6949
  160DOPC   H3X19335   0.612   7.630   6.347 -0.7250 -0.1983  1.8899
  160DOPC   H3Y19336   0.777   7.583   6.381 -0.7638  0.0240  1.5755
  160DOPC   C3419337   0.756   7.734   6.213  0.9959 -0.1088  0.3277
  160DOPC   H4X19338   0.859   7.774   6.201  0.5628  0.7714 -0.5670
  160DOPC   H4Y19339   0.700   7.829   6.206 -0.1144 -0.7384  0.4985
  160DOPC   C3519340   0.734   7.636   6.088  0.7723 -0.8071  0.5689
  160DOPC   H5X19341   0.635   7.589   6.106 -0.3081  0.8831 -0.5368
  160DOPC   H5Y19342   0.810   7.555   6.087  1.7333  0.0751  0.0385
  160DOPC   C3619343   0.732   7.713   5.954  0.3991 -0.3967  0.1379
  160DOPC   H6X19344   0.639   7.775   5.952  0.0846 -0.8702 -0.4784
  160DOPC   H6Y19345   0.822   7.777   5.945 -0.1041  0.3403  0.2634
  160DOPC   C3719346   0.727   7.626   5.825 -0.3674 -0.0627 -0.0298
  160DOPC   H7X19347   0.808   7.552   5.842  0.2388  0.8019  0.9601
  160DOPC   H7Y19348   0.625   7.583   5.816  1.0333 -3.6810 -0.3560
  160DOPC   C3819349   0.755   7.708   5.695 -0.8376 -0.7366  0.0053
  160DOPC   H8X19350   0.842   7.775   5.708 -2.4596  1.8737 -1.7233
  160DOPC   H8Y19351   0.666   7.772   5.673  0.3106  0.3573 -1.7418
  160DOPC   C3919352   0.794   7.605   5.584  0.0045 -0.4449  0.2574
  160DOPC   H9X19353   0.869   7.528   5.607 -0.8083 -1.3562 -0.0939
  160DOPC  C31019354   0.751   7.604   5.457  0.6324 -0.4360 -0.1851
  160DOPC  H10X19355   0.786   7.531   5.383  1.3248 -1.9737  1.5996
  160DOPC  C31119356   0.651   7.697   5.388  0.5171  0.4811  0.2965
  160DOPC  H11X19357   0.701   7.758   5.309 -0.0142 -1.8297 -1.9809
  160DOPC  H11Y19358   0.625   7.776   5.461  1.7920 -0.8125  2.2486
  160DOPC  C31219359   0.519   7.639   5.338 -0.3744 -0.3250  0.3273
  160DOPC  H12X19360   0.461   7.606   5.426  0.7968 -0.4813  1.0641
  160DOPC  H12Y19361   0.546   7.561   5.264  2.1655  0.4315  0.3516
  160DOPC  C31319362   0.442   7.746   5.255 -0.4777 -0.2206  0.3349
  160DOPC  H13X19363   0.346   7.778   5.302  0.5860 -0.0477  2.4940
  160DOPC  H13Y19364   0.503   7.838   5.241 -1.1394  0.3447  1.0640
  160DOPC  C31419365   0.425   7.686   5.114  0.3414 -0.2296 -0.5749
  160DOPC  H14X19366   0.527   7.686   5.070  0.9918  0.4232  0.8565
  160DOPC  H14Y19367   0.392   7.580   5.112 -0.1302 -0.1022  0.1172
  160DOPC  C31519368   0.334   7.765   5.016 -0.1028 -0.2847  0.0302
  160DOPC  H15X19369   0.366   7.737   4.913  1.3885 -1.6433  0.8231
  160DOPC  H15Y19370   0.341   7.875   5.030 -4.8839  0.0516  1.5390
  160DOPC  C31619371   0.191   7.716   5.037  0.3171  0.5446 -0.2438
  160DOPC  H16X19372   0.171   7.623   4.980 -2.2022  0.9654 -0.1568
  160DOPC  H16Y19373   0.183   7.706   5.147  2.5599  2.3736  0.1460
  160DOPC  C31719374   0.076   7.803   4.987 -0.5043  0.1492 -0.7859
  160DOPC  H17X19375   0.095   7.906   5.025  0.5586 -0.1674 -0.4424
  160DOPC  H17Y19376   0.069   7.802   4.876 -0.0119 -0.8089 -0.8193
  160DOPC  C31819377  -0.061   7.769   5.052 -0.0623 -0.2011  0.5702
  160DOPC  H18X19378  -0.134   7.837   5.002  1.0959 -0.4326 -1.5260
  160DOPC  H18Y19379  -0.099   7.668   5.027 -1.8801  0.2608  1.3016
  160DOPC  H18Z19380  -0.051   7.780   5.162  2.8432  0.2717  0.3423
  161DOPC     N19381   3.752   7.000   7.510  0.4475  0.1148  0.7152
  161DOPC   C1219382   3.698   7.111   7.428 -0.4516 -0.6704  0.0121
  161DOPC  H12A19383   3.722   7.207   7.473  0.5070 -0.9330  0.0792
  161DOPC  H12B19384   3.590   7.104   7.432 -0.5284 -0.0805 -0.7600
  161DOPC   C1319385   3.712   6.862   7.438 -0.3551 -0.3552 -0.2373
  161DOPC  H13A19386   3.607   6.865   7.412 -0.1711  0.8950 -0.9217
  161DOPC  H13B19387   3.759   6.861   7.341 -1.0009 -3.0240 -0.5966
  161DOPC  H13C19388   3.740   6.781   7.503  0.2241  0.3230  0.3838
  161DOPC   C1419389   3.688   6.999   7.642  0.2347  0.3727  0.2556
  161DOPC  H14A19390   3.580   6.992   7.646  0.2629  0.4996  2.1774
  161DOPC  H14B19391   3.730   6.919   7.701  0.8985  2.0147  2.1446
  161DOPC  H14C19392   3.727   7.091   7.685 -1.3441 -0.0626  2.8670
  161DOPC   C1519393   3.902   7.006   7.503  0.7164  0.1038  0.2215
  161DOPC  H15A19394   3.938   7.018   7.401  2.8280  1.2452  1.0283
  161DOPC  H15B19395   3.945   6.919   7.549 -0.4604 -1.6863 -1.8614
  161DOPC  H15C19396   3.933   7.091   7.561 -0.4562 -0.2984  1.4955
  161DOPC   C1119397   3.741   7.118   7.277 -0.0758 -0.5887 -0.0904
  161DOPC  H11A19398   3.722   7.025   7.219 -0.3778  0.3975 -1.6029
  161DOPC  H11B19399   3.677   7.192   7.225  0.2583 -0.2250  0.0080
  161DOPC     P19400   3.914   7.307   7.260  0.2771  0.0814  0.0916
  161DOPC   O1319401   4.061   7.332   7.251 -0.3671  0.6877 -0.2354
  161DOPC   O1419402   3.841   7.364   7.376  0.2707  0.6311 -0.0813
  161DOPC   O1219403   3.878   7.150   7.249 -0.5992  0.0035  0.1368
  161DOPC   O1119404   3.852   7.360   7.133  0.6200 -0.3024  0.2514
  161DOPC    C119405   3.826   7.283   7.012 -0.3511 -0.4219  0.1008
  161DOPC    HA19406   3.718   7.295   6.986 -0.8035 -1.3412  1.4309
  161DOPC    HB19407   3.846   7.175   7.023 -2.0358 -0.5952  1.9661
  161DOPC    C219408   3.886   7.352   6.881  0.4414  0.1226 -0.2547
  161DOPC    HS19409   3.991   7.375   6.907  1.3637 -1.7626 -2.0378
  161DOPC   O2119410   3.809   7.472   6.856 -0.0239  0.5373  0.1996
  161DOPC   C2119411   3.877   7.564   6.793 -0.4245  0.1494 -0.5182
  161DOPC   O2219412   3.994   7.564   6.768 -0.0624 -0.4292 -0.2518
  161DOPC   C2219413   3.782   7.680   6.759  0.1207 -0.0526 -0.0781
  161DOPC   H2R19414   3.766   7.733   6.855  0.1211  1.5905 -0.9381
  161DOPC   H2S19415   3.686   7.639   6.722  1.0758 -2.1883 -0.3513
  161DOPC    C319416   3.879   7.266   6.758 -0.6948 -0.4560 -0.3184
  161DOPC    HX19417   3.774   7.238   6.735 -1.4655  1.1642  1.0547
  161DOPC    HY19418   3.920   7.165   6.779  0.5443  0.6432  3.1372
  161DOPC   O3119419   3.933   7.322   6.639  0.0604  0.1436 -0.2017
  161DOPC   C3119420   4.068   7.305   6.617  0.2708 -0.4506  0.8728
  161DOPC   O3219421   4.136   7.234   6.681  0.4942 -0.8759 -0.6876
  161DOPC   C3219422   4.111   7.387   6.493  0.4246  0.5824  0.1379
  161DOPC   H2X19423   4.151   7.310   6.423  0.1788  0.3277  0.2748
  161DOPC   H2Y19424   4.022   7.437   6.451  1.2173  0.1589 -2.2011
  161DOPC   C2319425   3.828   7.777   6.651  0.2686  0.6636 -1.2454
  161DOPC   H3R19426   3.915   7.833   6.691 -1.0641  1.0716  1.2673
  161DOPC   H3S19427   3.753   7.855   6.628 -0.0623  1.1846  1.3087
  161DOPC   C2419428   3.860   7.710   6.517 -0.0757 -0.5714 -0.7398
  161DOPC   H4R19429   3.944   7.637   6.519  1.4236  1.0322 -1.9923
  161DOPC   H4S19430   3.892   7.786   6.443  1.7223  0.4420  0.9768
  161DOPC   C2519431   3.740   7.635   6.464 -0.2291  0.4256  0.3683
  161DOPC   H5R19432   3.647   7.675   6.509 -0.1814  1.3561 -0.3381
  161DOPC   H5S19433   3.745   7.527   6.493 -1.8850 -0.1741 -1.3719
  161DOPC   C2619434   3.719   7.643   6.310 -1.0591 -1.1048  0.3008
  161DOPC   H6R19435   3.730   7.752   6.291 -0.0252 -0.8112  2.3371
  161DOPC   H6S19436   3.621   7.603   6.276 -1.7027  1.0199 -0.4632
  161DOPC   C2719437   3.828   7.562   6.238 -0.2154  0.2098  0.1866
  161DOPC   H7R19438   3.834   7.459   6.278 -0.3094 -0.0182 -0.3873
  161DOPC   H7S19439   3.925   7.615   6.247  0.9919 -1.8526 -0.1974
  161DOPC   C2819440   3.788   7.547   6.086 -0.6613 -0.0455  0.2339
  161DOPC   H8R19441   3.755   7.645   6.045 -0.3033 -0.1205 -0.2536
  161DOPC   H8S19442   3.698   7.483   6.085 -0.5498 -0.2000 -0.0903
  161DOPC   C2919443   3.897   7.496   5.999 -0.4165 -0.0130 -0.0485
  161DOPC   H9R19444   3.989   7.556   6.002 -0.6555  0.3173  0.7665
  161DOPC  C21019445   3.890   7.409   5.893  0.5186  0.0507 -0.1116
  161DOPC  H10R19446   3.975   7.401   5.824 -0.3819  0.1355 -1.2572
  161DOPC  C21119447   3.767   7.328   5.845 -0.2509  1.1206  0.6184
  161DOPC  H11R19448   3.723   7.372   5.753  0.7739 -0.5900 -0.7544
  161DOPC  H11S19449   3.684   7.334   5.918 -0.9741 -0.5788 -0.0142
  161DOPC  C21219450   3.807   7.190   5.798  0.4722 -0.5809  0.3680
  161DOPC  H12R19451   3.714   7.131   5.787 -0.0135  0.4089 -1.0751
  161DOPC  H12S19452   3.862   7.140   5.881 -0.6398 -0.2659  1.3299
  161DOPC  C21319453   3.894   7.188   5.669 -0.5801 -0.3356 -0.4401
  161DOPC  H13R19454   3.996   7.228   5.690 -0.0915 -2.0185  0.5544
  161DOPC  H13S19455   3.843   7.244   5.587 -1.2881 -2.1181 -1.2685
  161DOPC  C21419456   3.913   7.048   5.609  0.3257  0.7734  0.0379
  161DOPC  H14R19457   3.815   6.995   5.611  0.0262  1.3414  0.7416
  161DOPC  H14S19458   3.994   6.995   5.663 -0.4765 -1.9095 -1.2038
  161DOPC  C21519459   3.954   7.064   5.461  0.6897  0.3093 -0.1896
  161DOPC  H15R19460   4.044   7.128   5.452 -1.0801  2.9734 -0.2642
  161DOPC  H15S19461   3.882   7.128   5.405  0.7160 -1.5337 -2.5118
  161DOPC  C21619462   3.980   6.930   5.389 -0.0990  0.0294 -0.6384
  161DOPC  H16R19463   3.889   6.878   5.353  0.6979  0.0152 -2.8264
  161DOPC  H16S19464   4.009   6.871   5.479  0.3983  1.9979  0.5446
  161DOPC  C21719465   4.074   6.924   5.262 -0.1140  0.0006  0.4308
  161DOPC  H17R19466   4.166   6.979   5.292  1.9565 -3.2362  0.4355
  161DOPC  H17S19467   4.020   6.980   5.182 -1.6394  0.6108  1.8167
  161DOPC  C21819468   4.117   6.792   5.202 -0.1179 -0.9821  0.5941
  161DOPC  H18R19469   4.141   6.797   5.093  2.6441 -0.7799  1.1266
  161DOPC  H18S19470   4.026   6.733   5.223 -1.4241 -0.1254 -2.1061
  161DOPC  H18T19471   4.201   6.757   5.266  0.3547  2.2775  1.9851
  161DOPC   C3319472   4.208   7.499   6.510  0.1818 -0.2238  0.3513
  161DOPC   H3X19473   4.301   7.456   6.554  1.0834  1.1731 -0.0992
  161DOPC   H3Y19474   4.158   7.570   6.579 -3.0662 -0.9782 -1.0492
  161DOPC   C3419475   4.235   7.569   6.375  0.4159 -0.2273 -0.3266
  161DOPC   H4X19476   4.153   7.561   6.300 -1.5830  1.9198  1.4885
  161DOPC   H4Y19477   4.313   7.504   6.330  0.1257 -1.2734  0.6198
  161DOPC   C3519478   4.279   7.709   6.394  0.4109 -0.2373  1.0942
  161DOPC   H5X19479   4.347   7.725   6.480 -0.2202  3.8455  1.0623
  161DOPC   H5Y19480   4.188   7.767   6.419  0.8240  0.7340  0.4131
  161DOPC   C3619481   4.346   7.764   6.269 -0.2996 -0.1387  0.1373
  161DOPC   H6X19482   4.410   7.687   6.221 -0.6164  0.0040 -0.5295
  161DOPC   H6Y19483   4.267   7.776   6.191 -1.4098 -0.2792  1.2000
  161DOPC   C3719484   4.430   7.891   6.281 -0.2718 -0.0961 -0.8688
  161DOPC   H7X19485   4.370   7.983   6.297 -1.3831 -1.1015  1.0569
  161DOPC   H7Y19486   4.494   7.883   6.372 -0.1240 -0.3903 -0.9984
  161DOPC   C3819487   4.519   7.921   6.155 -0.4675  0.1852 -0.1310
  161DOPC   H8X19488   4.582   7.831   6.141  0.2161  0.8195 -1.3364
  161DOPC   H8Y19489   4.585   8.005   6.186 -2.0326  1.3790  0.1033
  161DOPC   C3919490   4.438   7.961   6.028 -0.1697 -0.2534 -0.6309
  161DOPC   H9X19491   4.361   8.037   6.043  0.8348  0.6479  0.1191
  161DOPC  C31019492   4.449   7.904   5.907  0.2144  0.0535 -0.2548
  161DOPC  H10X19493   4.387   7.938   5.823  0.2559 -1.8500 -1.1044
  161DOPC  C31119494   4.538   7.793   5.874 -0.7365  0.7097  0.5385
  161DOPC  H11X19495   4.618   7.777   5.950 -0.2787 -2.9025 -0.4791
  161DOPC  H11Y19496   4.593   7.825   5.783  0.2111 -1.5813  0.2251
  161DOPC  C31219497   4.470   7.662   5.829 -0.2335  0.6148  0.3956
  161DOPC  H12X19498   4.402   7.632   5.911 -1.8190  1.4889 -0.5630
  161DOPC  H12Y19499   4.555   7.591   5.814  1.4359  2.7998 -1.2477
  161DOPC  C31319500   4.383   7.665   5.695 -0.9171  0.2762  0.0045
  161DOPC  H13X19501   4.317   7.754   5.701 -0.2152  0.9205 -1.2907
  161DOPC  H13Y19502   4.452   7.678   5.609 -0.1982 -1.8567  0.1887
  161DOPC  C31419503   4.300   7.537   5.667  0.4207 -0.1189  1.0259
  161DOPC  H14X19504   4.365   7.450   5.690  1.0273  0.0615  0.0693
  161DOPC  H14Y19505   4.211   7.531   5.733 -0.1492 -0.2776  0.2598
  161DOPC  C31519506   4.238   7.531   5.530 -0.6598 -1.0500  0.1266
  161DOPC  H15X19507   4.323   7.542   5.459 -0.4961  0.1274  0.4697
  161DOPC  H15Y19508   4.176   7.624   5.532  2.3276  1.0940 -0.4317
  161DOPC  C31619509   4.138   7.418   5.492 -0.9180 -0.0390  0.3394
  161DOPC  H16X19510   4.160   7.314   5.524 -1.6840 -0.3861 -0.2183
  161DOPC  H16Y19511   4.043   7.436   5.547 -2.0718 -0.0115 -1.5844
  161DOPC  C31719512   4.136   7.400   5.340  0.6901  0.9717 -0.6081
  161DOPC  H17X19513   4.035   7.369   5.307  1.3877 -1.6830 -0.4165
  161DOPC  H17Y19514   4.159   7.497   5.291  1.4810  0.4278 -1.3400
  161DOPC  C31819515   4.237   7.301   5.290 -0.0798 -0.7911 -0.0450
  161DOPC  H18X19516   4.340   7.334   5.314 -0.1487  0.9069 -1.7904
  161DOPC  H18Y19517   4.227   7.196   5.325  0.1056 -0.4102  1.1933
  161DOPC  H18Z19518   4.232   7.305   5.179  0.1533  1.6698 -0.0277
  162DOPC     N19519   1.402   7.604   7.403  0.3439 -0.5402  0.1683
  162DOPC   C1219520   1.441   7.623   7.253  0.2909 -0.1300 -0.2201
  162DOPC  H12A19521   1.521   7.557   7.224  0.0962 -0.2933 -0.3879
  162DOPC  H12B19522   1.487   7.721   7.254  2.0604 -0.8745 -2.0691
  162DOPC   C1319523   1.404   7.458   7.433  0.1373 -1.1012 -0.1748
  162DOPC  H13A19524   1.326   7.414   7.373  1.4022 -0.4026 -2.4132
  162DOPC  H13B19525   1.498   7.416   7.400 -0.5891 -1.2506 -2.1352
  162DOPC  H13C19526   1.389   7.442   7.539  1.6639 -0.1411  0.2162
  162DOPC   C1419527   1.275   7.661   7.452  0.5206  0.0659  0.3142
  162DOPC  H14A19528   1.271   7.767   7.432 -0.0902  0.1438  0.8012
  162DOPC  H14B19529   1.191   7.622   7.396  0.3828 -0.5276  0.9333
  162DOPC  H14C19530   1.249   7.650   7.556 -2.3190  0.0416 -0.3236
  162DOPC   C1519531   1.511   7.669   7.485  0.1333  0.0243 -0.6298
  162DOPC  H15A19532   1.496   7.652   7.590  0.3681 -0.0542 -0.6072
  162DOPC  H15B19533   1.505   7.775   7.465 -3.1671  0.1084  0.2247
  162DOPC  H15C19534   1.605   7.617   7.474 -0.2304 -1.0907  1.1969
  162DOPC   C1119535   1.336   7.614   7.141 -0.2813  0.3559 -0.4339
  162DOPC  H11A19536   1.268   7.702   7.150 -1.0569 -0.3442  1.0181
  162DOPC  H11B19537   1.375   7.620   7.037 -1.5469 -1.1963 -1.0442
  162DOPC     P19538   1.278   7.371   7.088 -0.4314 -0.0662  0.3128
  162DOPC   O1319539   1.187   7.386   6.970 -0.3857  0.6777  0.4619
  162DOPC   O1419540   1.261   7.258   7.181 -0.1007  0.4744  0.6128
  162DOPC   O1219541   1.256   7.501   7.167 -0.1317 -0.6283  0.1784
  162DOPC   O1119542   1.424   7.390   7.033 -0.1815 -0.1256 -0.2705
  162DOPC    C119543   1.530   7.308   7.086 -0.0408 -0.3461  0.4975
  162DOPC    HA19544   1.493   7.207   7.117 -0.3721 -0.5368 -0.4917
  162DOPC    HB19545   1.564   7.361   7.177 -1.4885  0.8408  0.3845
  162DOPC    C219546   1.643   7.284   6.984  0.3406  0.2903  0.4754
  162DOPC    HS19547   1.690   7.384   6.978 -1.2059  0.9826 -1.2040
  162DOPC   O2119548   1.601   7.250   6.853  0.0502  0.0841  0.1143
  162DOPC   C2119549   1.703   7.242   6.766 -0.2607 -0.1875 -0.0424
  162DOPC   O2219550   1.821   7.275   6.788  0.4858 -0.1095 -0.3575
  162DOPC   C2219551   1.649   7.209   6.627  0.0389  0.2910 -0.0135
  162DOPC   H2R19552   1.625   7.308   6.582  0.5917 -0.3693 -1.8413
  162DOPC   H2S19553   1.555   7.150   6.633 -1.4844  2.6918  0.9213
  162DOPC    C319554   1.725   7.164   7.052  0.1605 -0.0131  0.6743
  162DOPC    HX19555   1.738   7.205   7.154  1.8093 -1.0627  0.9376
  162DOPC    HY19556   1.821   7.153   6.997  0.5635 -1.8309  1.6669
  162DOPC   O3119557   1.649   7.042   7.061 -0.2680 -0.2732  0.0282
  162DOPC   C3119558   1.696   6.934   7.008 -0.5533  0.1885  0.2273
  162DOPC   O3219559   1.810   6.931   6.960  0.2519  0.3863 -0.2935
  162DOPC   C3219560   1.581   6.823   6.990 -0.4740 -0.5089 -0.0829
  162DOPC   H2X19561   1.600   6.764   7.082  2.2570  1.0283  0.4527
  162DOPC   H2Y19562   1.481   6.870   7.002  0.0757  0.7705 -0.3237
  162DOPC   C2319563   1.754   7.129   6.541 -0.1868 -0.4047 -0.6765
  162DOPC   H3R19564   1.774   7.032   6.592  3.0312  0.7112  0.4587
  162DOPC   H3S19565   1.847   7.190   6.544 -0.4870  0.0760 -0.9956
  162DOPC   C2419566   1.709   7.096   6.398  0.1086 -0.5203 -0.0808
  162DOPC   H4R19567   1.706   7.189   6.338 -1.0417  0.4337  1.4074
  162DOPC   H4S19568   1.609   7.051   6.381  0.1479  0.1625 -2.4841
  162DOPC   C2519569   1.803   7.003   6.318 -0.0714  0.1295  0.8552
  162DOPC   H5R19570   1.808   6.909   6.377  0.6254 -0.0406  0.5406
  162DOPC   H5S19571   1.906   7.044   6.326  0.0876 -0.2145  0.5705
  162DOPC   C2619572   1.764   6.970   6.173  0.3545  0.1007  0.0852
  162DOPC   H6R19573   1.782   7.063   6.115  0.3656 -0.1286 -0.2825
  162DOPC   H6S19574   1.654   6.956   6.166  0.3783 -0.4491  0.7351
  162DOPC   C2719575   1.845   6.858   6.113 -0.0989  0.6583  0.5145
  162DOPC   H7R19576   1.812   6.762   6.158 -0.7300  0.5427 -0.1671
  162DOPC   H7S19577   1.954   6.866   6.128  0.7105 -1.3328 -3.1226
  162DOPC   C2819578   1.811   6.852   5.960 -0.1075 -0.0288 -0.7112
  162DOPC   H8R19579   1.842   6.952   5.923  0.4797 -0.1299 -0.4971
  162DOPC   H8S19580   1.700   6.851   5.955 -0.0967  1.3663 -1.7719
  162DOPC   C2919581   1.874   6.741   5.891  0.7651 -0.4377 -0.6529
  162DOPC   H9R19582   1.929   6.683   5.966  0.3444  1.0790  0.8944
  162DOPC  C21019583   1.873   6.708   5.761  0.2145  0.1236  0.2703
  162DOPC  H10R19584   1.914   6.610   5.734  0.6034 -0.2326  2.0338
  162DOPC  C21119585   1.807   6.781   5.649 -0.1289 -0.2129  0.4678
  162DOPC  H11R19586   1.883   6.791   5.568  0.5108  1.6499  1.2598
  162DOPC  H11S19587   1.767   6.882   5.670 -1.2717 -0.5797  0.1647
  162DOPC  C21219588   1.687   6.701   5.590  0.5830 -0.2785  0.1176
  162DOPC  H12R19589   1.634   6.775   5.525  0.6751 -0.4647 -0.1723
  162DOPC  H12S19590   1.623   6.667   5.673 -1.2797 -1.2312 -1.6133
  162DOPC  C21319591   1.734   6.578   5.503  0.2284 -0.5786  0.1825
  162DOPC  H13R19592   1.658   6.497   5.511  1.0643 -1.2390  1.9678
  162DOPC  H13S19593   1.816   6.542   5.568  0.6952 -0.8452 -0.5441
  162DOPC  C21419594   1.781   6.612   5.360  1.0865 -0.3651  0.3394
  162DOPC  H14R19595   1.846   6.702   5.356 -0.6877  0.9647 -0.0184
  162DOPC  H14S19596   1.685   6.626   5.307  1.9461  1.9935 -0.7094
  162DOPC  C21519597   1.858   6.487   5.304  0.1580  0.3493 -0.3247
  162DOPC  H15R19598   1.790   6.401   5.327 -0.2847  0.2870 -1.7785
  162DOPC  H15S19599   1.955   6.491   5.358 -0.4297  0.3931  0.7569
  162DOPC  C21619600   1.879   6.500   5.157  0.2777  0.0144 -0.1113
  162DOPC  H16R19601   1.921   6.600   5.134 -0.7250  0.4372 -0.1715
  162DOPC  H16S19602   1.783   6.499   5.100 -0.3528  2.2259  0.8168
  162DOPC  C21719603   1.967   6.397   5.098 -0.4353  0.7375 -0.5982
  162DOPC  H17R19604   1.931   6.293   5.113 -1.6474  1.2742  0.3732
  162DOPC  H17S19605   2.055   6.413   5.164 -1.5913  0.6619  1.0055
  162DOPC  C21819606   1.995   6.414   4.950  0.2163  0.9243  0.0489
  162DOPC  H18R19607   2.072   6.340   4.921 -0.6613 -0.7209  1.6920
  162DOPC  H18S19608   2.020   6.519   4.923  2.4312  0.4652  0.1572
  162DOPC  H18T19609   1.905   6.388   4.890  1.3495 -1.7634 -0.6100
  162DOPC   C3319610   1.599   6.748   6.860  0.0659  0.3511 -0.6150
  162DOPC   H3X19611   1.536   6.657   6.862 -0.3314  0.6302  0.4873
  162DOPC   H3Y19612   1.706   6.717   6.855  0.1838 -0.1430  2.5203
  162DOPC   C3419613   1.557   6.833   6.746 -0.1930  0.1868  1.4116
  162DOPC   H4X19614   1.606   6.933   6.750  1.2416 -0.4682  0.6760
  162DOPC   H4Y19615   1.447   6.851   6.752 -0.1113  0.7016  1.4239
  162DOPC   C3519616   1.613   6.769   6.609 -0.3192 -0.6615  0.1766
  162DOPC   H5X19617   1.723   6.759   6.621 -0.5204 -1.4694  1.6537
  162DOPC   H5Y19618   1.589   6.837   6.525 -1.2064 -0.9885  0.1449
  162DOPC   C3619619   1.545   6.639   6.556 -1.1552 -0.8444 -0.0127
  162DOPC   H6X19620   1.538   6.571   6.643  1.0257 -0.2408  0.6917
  162DOPC   H6Y19621   1.441   6.650   6.518 -0.2648  2.8679 -1.8245
  162DOPC   C3719622   1.626   6.557   6.446  0.3471 -0.1511 -0.2779
  162DOPC   H7X19623   1.727   6.523   6.480 -0.8596 -1.5374  2.2628
  162DOPC   H7Y19624   1.565   6.466   6.429 -0.6497  0.3980  0.2877
  162DOPC   C3819625   1.644   6.622   6.305 -0.5298  0.5894 -0.1419
  162DOPC   H8X19626   1.708   6.710   6.326  1.9826 -0.8782 -1.0965
  162DOPC   H8Y19627   1.546   6.666   6.277 -0.6494  1.5830  1.7316
  162DOPC   C3919628   1.689   6.520   6.203 -0.3457 -0.0219  0.2821
  162DOPC   H9X19629   1.614   6.458   6.151 -0.2433 -1.1474  1.4207
  162DOPC  C31019630   1.816   6.472   6.194  0.2956 -0.4105 -0.2948
  162DOPC  H10X19631   1.850   6.393   6.125  2.1649 -0.6180  0.8083
  162DOPC  C31119632   1.933   6.517   6.283  0.1435  0.2859 -0.2673
  162DOPC  H11X19633   1.960   6.423   6.336 -0.6125  0.5478  0.6187
  162DOPC  H11Y19634   1.907   6.587   6.365 -0.1840  0.1951 -0.2901
  162DOPC  C31219635   2.059   6.570   6.205  0.2096 -0.2195  0.0514
  162DOPC  H12X19636   2.120   6.619   6.284  0.1077 -0.3378  0.2053
  162DOPC  H12Y19637   2.032   6.658   6.143  0.7103  0.6863  1.0789
  162DOPC  C31319638   2.140   6.464   6.127  0.1625  0.2964  0.1256
  162DOPC  H13X19639   2.165   6.377   6.192  0.1846  0.2066 -0.0036
  162DOPC  H13Y19640   2.075   6.431   6.043  0.0755  0.8107 -0.0148
  162DOPC  C31419641   2.271   6.522   6.076  0.4595  0.2606 -0.3489
  162DOPC  H14X19642   2.307   6.458   5.992 -0.8539 -0.2651 -0.5388
  162DOPC  H14Y19643   2.242   6.622   6.037  0.0972  1.5304  2.9227
  162DOPC  C31519644   2.375   6.533   6.186  0.1118 -0.1443  0.3174
  162DOPC  H15X19645   2.446   6.449   6.167  0.2116  0.4880 -2.6859
  162DOPC  H15Y19646   2.344   6.533   6.292  0.0706  3.4039  0.4124
  162DOPC  C31619647   2.455   6.663   6.164 -0.1446  0.1458 -0.7210
  162DOPC  H16X19648   2.499   6.668   6.062  0.5212  0.5450 -0.4205
  162DOPC  H16Y19649   2.378   6.743   6.157 -1.8652 -1.5108 -1.4342
  162DOPC  C31719650   2.548   6.698   6.277  0.0801  0.7105 -0.4595
  162DOPC  H17X19651   2.492   6.698   6.373  1.6348  0.9685  0.4802
  162DOPC  H17Y19652   2.621   6.615   6.270  1.0249  1.5208 -0.4741
  162DOPC  C31819653   2.625   6.827   6.254 -0.0529  0.3633 -0.3623
  162DOPC  H18X19654   2.682   6.827   6.159 -1.0632 -0.0211 -0.9793
  162DOPC  H18Y19655   2.573   6.924   6.262 -0.8732 -0.2043  1.8616
  162DOPC  H18Z19656   2.697   6.829   6.339  1.0324  1.2661 -1.2697
  163DOPC     N19657   0.420   3.041   6.960 -0.1013  0.7718 -0.7896
  163DOPC   C1219658   0.447   3.018   6.817 -0.2805  0.0850 -0.0500
  163DOPC  H12A19659   0.551   3.015   6.788 -0.7974 -2.3171 -2.0805
  163DOPC  H12B19660   0.426   3.100   6.750 -1.3694  1.3731  1.7822
  163DOPC   C1319661   0.494   3.162   7.015  0.3501  0.4520 -0.2824
  163DOPC  H13A19662   0.600   3.142   7.022  0.0504 -0.5997  2.6782
  163DOPC  H13B19663   0.480   3.253   6.959 -3.0397  0.7917  0.8815
  163DOPC  H13C19664   0.466   3.168   7.119  4.1073 -1.6941  1.0701
  163DOPC   C1419665   0.456   2.934   7.054  0.3798  0.1787 -0.1843
  163DOPC  H14A19666   0.397   2.929   7.145 -1.1847 -1.2776 -1.2151
  163DOPC  H14B19667   0.428   2.842   7.006 -2.8476  0.1067  1.5470
  163DOPC  H14C19668   0.558   2.931   7.089  0.8643 -0.6251 -1.6000
  163DOPC   C1519669   0.274   3.081   6.961 -0.0773  0.1390 -0.0996
  163DOPC  H15A19670   0.210   2.995   6.947  0.3566  0.2021 -2.9570
  163DOPC  H15B19671   0.254   3.153   6.884 -0.6594 -0.0025 -0.0825
  163DOPC  H15C19672   0.237   3.112   7.058 -2.6676  0.1802 -1.0375
  163DOPC   C1119673   0.394   2.881   6.748 -0.3120 -0.4555 -0.6631
  163DOPC  H11A19674   0.289   2.880   6.784  0.7053  0.9247  2.6777
  163DOPC  H11B19675   0.394   2.894   6.637 -0.3800  0.7890 -0.5307
  163DOPC     P19676   0.605   2.728   6.751  0.3046  0.0426 -0.5578
  163DOPC   O1319677   0.638   2.593   6.820 -0.0932 -0.0622  0.2713
  163DOPC   O1419678   0.695   2.838   6.785  0.2843  0.6025 -0.1011
  163DOPC   O1219679   0.459   2.762   6.797  0.8549 -0.1632  0.2157
  163DOPC   O1119680   0.594   2.719   6.598 -0.3542  0.5634  0.3041
  163DOPC    C119681   0.512   2.617   6.531  0.4607 -0.9008  0.1556
  163DOPC    HA19682   0.407   2.618   6.569 -0.0542  3.2212 -0.8886
  163DOPC    HB19683   0.560   2.517   6.539 -1.2320 -1.8993 -1.3011
  163DOPC    C219684   0.490   2.652   6.388 -0.9842  0.5632  0.5098
  163DOPC    HS19685   0.426   2.568   6.354 -1.2617  0.2321  1.8285
  163DOPC   O2119686   0.613   2.649   6.309  0.4216 -0.6264  1.0209
  163DOPC   C2119687   0.654   2.538   6.258  0.1768  0.3044 -0.5481
  163DOPC   O2219688   0.601   2.427   6.279 -0.2196  0.4186  0.3299
  163DOPC   C2219689   0.785   2.574   6.193  0.5095 -0.3646 -0.5229
  163DOPC   H2R19690   0.846   2.483   6.171  2.5203  0.4965  1.1021
  163DOPC   H2S19691   0.857   2.630   6.257 -0.4145  0.0582  0.1642
  163DOPC    C319692   0.414   2.777   6.348 -0.5371  0.1163  0.2182
  163DOPC    HX19693   0.465   2.873   6.371  0.8640 -1.0024  2.0540
  163DOPC    HY19694   0.327   2.774   6.417 -1.1438  1.3936 -0.4546
  163DOPC   O3119695   0.358   2.762   6.217  0.0090  0.1006  0.9398
  163DOPC   C3119696   0.396   2.851   6.127  0.8118 -0.1866  0.3436
  163DOPC   O3219697   0.488   2.934   6.137  0.4122  0.0503 -0.3966
  163DOPC   C3219698   0.318   2.836   5.997 -0.3942  0.5385 -0.1468
  163DOPC   H2X19699   0.386   2.870   5.916 -1.4102  0.1354 -1.1897
  163DOPC   H2Y19700   0.293   2.729   5.984 -0.5004  0.5228  0.1820
  163DOPC   C2319701   0.759   2.665   6.062  0.7326 -0.1361 -0.5127
  163DOPC   H3R19702   0.852   2.714   6.029  0.2152  0.2480 -1.4547
  163DOPC   H3S19703   0.691   2.745   6.098  0.6353  0.6235 -2.2512
  163DOPC   C2419704   0.684   2.588   5.946  0.1194  0.0237  0.0385
  163DOPC   H4R19705   0.584   2.551   5.977 -0.1410  0.3616 -0.3920
  163DOPC   H4S19706   0.744   2.506   5.901 -0.9161  1.2855 -4.1348
  163DOPC   C2519707   0.652   2.682   5.827 -0.1550 -0.2430  0.0225
  163DOPC   H5R19708   0.739   2.703   5.762 -0.2655 -0.1776 -0.1046
  163DOPC   H5S19709   0.609   2.779   5.861 -1.6966 -0.4147 -1.2809
  163DOPC   C2619710   0.542   2.619   5.746  0.3968  0.1400  0.7266
  163DOPC   H6R19711   0.446   2.599   5.798 -0.1456  0.9272  0.0423
  163DOPC   H6S19712   0.572   2.514   5.723 -0.1518  0.5642 -2.3096
  163DOPC   C2719713   0.521   2.686   5.612 -0.0779 -0.0318 -0.2310
  163DOPC   H7R19714   0.611   2.659   5.553 -0.6302 -2.4658 -0.0885
  163DOPC   H7S19715   0.517   2.796   5.625  1.2346 -0.1318  1.2157
  163DOPC   C2819716   0.404   2.645   5.518 -0.2258  0.4526  0.0909
  163DOPC   H8R19717   0.415   2.537   5.493  0.5731 -0.0140  2.2359
  163DOPC   H8S19718   0.418   2.701   5.424 -1.6587 -0.1292 -0.5052
  163DOPC   C2919719   0.270   2.668   5.579 -0.1102 -0.5234 -0.0466
  163DOPC   H9R19720   0.272   2.679   5.688 -1.2414  0.0961 -0.0767
  163DOPC  C21019721   0.152   2.647   5.525 -0.2124  0.6518 -0.2553
  163DOPC  H10R19722   0.062   2.654   5.588 -0.6363 -0.4349 -0.7146
  163DOPC  C21119723   0.132   2.602   5.379 -0.4178  0.1915 -0.2705
  163DOPC  H11R19724   0.222   2.628   5.320 -0.4320 -0.5785 -0.6491
  163DOPC  H11S19725   0.053   2.669   5.338 -2.8588 -1.1564  1.9145
  163DOPC  C21219726   0.103   2.453   5.354 -0.6638  0.3891 -0.0337
  163DOPC  H12R19727   0.005   2.415   5.388  0.3153 -2.5720 -0.3063
  163DOPC  H12S19728   0.184   2.403   5.412  1.0282  1.2233 -1.5934
  163DOPC  C21319729   0.129   2.415   5.204 -0.0006 -0.1596  0.0854
  163DOPC  H13R19730   0.120   2.305   5.194 -3.2813  0.1002 -0.9399
  163DOPC  H13S19731   0.230   2.452   5.178  0.5630 -2.2974 -0.9895
  163DOPC  C21419732   0.021   2.473   5.117  0.5984 -0.3642  0.3240
  163DOPC  H14R19733   0.012   2.581   5.142 -0.3398 -0.4443  0.3406
  163DOPC  H14S19734  -0.077   2.429   5.144  0.6441 -0.2586  0.6651
  163DOPC  C21519735   0.051   2.456   4.967  0.4538 -0.3811  0.1468
  163DOPC  H15R19736   0.077   2.350   4.945 -2.2601 -1.0731 -0.0774
  163DOPC  H15S19737   0.132   2.530   4.949  0.7025 -0.9699 -1.2824
  163DOPC  C21619738  -0.073   2.495   4.876  0.3970  0.3627 -0.0778
  163DOPC  H16R19739  -0.101   2.601   4.894 -0.1305  0.4977 -1.5109
  163DOPC  H16S19740  -0.163   2.435   4.900  1.0782 -1.8548 -2.5325
  163DOPC  C21719741  -0.051   2.476   4.728 -0.6310 -0.0834  0.1478
  163DOPC  H17R19742   0.043   2.531   4.701 -0.7010  0.4443  0.9297
  163DOPC  H17S19743  -0.131   2.535   4.678  0.6897  0.7286 -1.1084
  163DOPC  C21819744  -0.058   2.333   4.677  0.0195  0.3004  0.0669
  163DOPC  H18R19745  -0.150   2.282   4.712  0.7885 -0.8398  0.4841
  163DOPC  H18S19746   0.031   2.279   4.716 -0.6758 -1.0603 -0.2020
  163DOPC  H18T19747  -0.048   2.327   4.566 -1.7239  3.4545 -0.4103
  163DOPC   C3319748   0.188   2.908   6.007 -0.6296  0.6764  0.3987
  163DOPC   H3X19749   0.207   3.007   6.055  2.3233  0.7198 -0.6054
  163DOPC   H3Y19750   0.128   2.862   6.088 -0.6387  0.4339  0.2538
  163DOPC   C3419751   0.105   2.929   5.881 -0.1263 -0.5031  0.6309
  163DOPC   H4X19752   0.090   2.828   5.838 -1.2989  0.1106 -0.4872
  163DOPC   H4Y19753   0.161   2.988   5.806 -1.2224  0.0570  0.2267
  163DOPC   C3519754  -0.033   2.990   5.895 -0.4871  0.2790 -0.2536
  163DOPC   H5X19755  -0.009   3.086   5.946  2.5717 -0.0058 -0.9476
  163DOPC   H5Y19756  -0.111   2.943   5.959 -0.4006  1.8010  1.0281
  163DOPC   C3619757  -0.096   3.023   5.763  0.0798 -0.4733  0.5025
  163DOPC   H6X19758  -0.178   3.092   5.791  1.3724  1.0686  0.5927
  163DOPC   H6Y19759  -0.028   3.067   5.687 -0.2074 -3.3060 -1.5600
  163DOPC   C3719760  -0.138   2.894   5.688 -0.1067  0.2345  0.0420
  163DOPC   H7X19761  -0.052   2.845   5.639 -0.8304  0.7417 -1.8115
  163DOPC   H7Y19762  -0.176   2.816   5.758 -1.0411 -1.8175 -2.5981
  163DOPC   C3819763  -0.249   2.925   5.585  0.2574  0.1774  0.1286
  163DOPC   H8X19764  -0.200   2.985   5.506 -0.2150  0.7091  0.2309
  163DOPC   H8Y19765  -0.331   2.985   5.631 -2.3097 -2.2837 -0.9289
  163DOPC   C3919766  -0.302   2.808   5.519 -1.0141 -0.0242 -0.0059
  163DOPC   H9X19767  -0.230   2.740   5.471  1.6530  0.8337  2.5063
  163DOPC  C31019768  -0.426   2.757   5.539 -0.1821  0.3362  0.8485
  163DOPC  H10X19769  -0.451   2.665   5.483  4.0755 -0.9497  0.6875
  163DOPC  C31119770  -0.537   2.822   5.619 -0.1613  0.3202  0.2325
  163DOPC  H11X19771  -0.636   2.780   5.594 -0.0470 -0.5793  1.2129
  163DOPC  H11Y19772  -0.559   2.928   5.593 -1.4048  0.1534  0.5485
  163DOPC  C31219773  -0.509   2.790   5.766  0.4268  0.5524  0.0404
  163DOPC  H12X19774  -0.410   2.835   5.785  1.4229 -1.4516 -0.0753
  163DOPC  H12Y19775  -0.500   2.679   5.772 -0.5664  0.4882  0.5677
  163DOPC  C31319776  -0.624   2.834   5.860 -0.0344  0.8404  0.2663
  163DOPC  H13X19777  -0.659   2.932   5.821  0.8926  2.0897  2.3917
  163DOPC  H13Y19778  -0.707   2.763   5.839 -2.4755  3.8120 -0.7555
  163DOPC  C31419779  -0.591   2.852   6.009  0.5156 -0.3173 -0.7190
  163DOPC  H14X19780  -0.688   2.864   6.062 -0.0038  0.1064 -1.7293
  163DOPC  H14Y19781  -0.548   2.756   6.043 -1.4498 -1.1006 -0.3545
  163DOPC  C31519782  -0.504   2.976   6.036 -0.0293 -0.1962 -0.2444
  163DOPC  H15X19783  -0.414   2.977   5.971  0.8470  1.6514  0.8808
  163DOPC  H15Y19784  -0.466   2.956   6.139  0.0705  1.7823  0.1630
  163DOPC  C31619785  -0.576   3.113   6.039  0.7720  0.4911  0.3353
  163DOPC  H16X19786  -0.617   3.128   5.937  0.0169  0.6457  0.6508
  163DOPC  H16Y19787  -0.657   3.117   6.115  0.4336 -0.1032  0.0111
  163DOPC  C31719788  -0.487   3.224   6.090 -0.0716  0.3715  0.8396
  163DOPC  H17X19789  -0.543   3.319   6.080  0.0413  0.3420 -0.1923
  163DOPC  H17Y19790  -0.483   3.210   6.200  2.6256  1.7430  0.9912
  163DOPC  C31819791  -0.363   3.253   6.008  0.2172  0.6144  0.6461
  163DOPC  H18X19792  -0.306   3.342   6.040  1.2825 -0.8979  3.3387
  163DOPC  H18Y19793  -0.302   3.160   6.017 -0.4435  0.1132  0.0570
  163DOPC  H18Z19794  -0.392   3.257   5.901  0.8907 -1.3656  0.3401
  164DOPC     N19795   0.794   1.594   7.757 -0.3219  0.4064 -0.1682
  164DOPC   C1219796   0.826   1.681   7.637  0.6929 -0.3191 -0.2523
  164DOPC  H12A19797   0.754   1.761   7.631  1.1370  0.0104 -1.3540
  164DOPC  H12B19798   0.825   1.613   7.553 -1.9342 -0.4302 -0.2184
  164DOPC   C1319799   0.872   1.466   7.748  0.1662  0.7761  0.3270
  164DOPC  H13A19800   0.872   1.419   7.651  0.2719 -0.0836  0.7342
  164DOPC  H13B19801   0.976   1.477   7.774  0.9044  0.9406 -2.4503
  164DOPC  H13C19802   0.814   1.398   7.809 -0.3163  0.1162 -0.8292
  164DOPC   C1419803   0.648   1.570   7.763 -0.7711  0.0542  0.0229
  164DOPC  H14A19804   0.632   1.479   7.819 -1.7227  0.9990  1.3422
  164DOPC  H14B19805   0.602   1.656   7.809 -1.4025 -0.9020  1.2359
  164DOPC  H14C19806   0.600   1.553   7.668  0.1545 -2.1030 -0.1068
  164DOPC   C1519807   0.843   1.665   7.877 -0.0429 -0.2199 -0.5205
  164DOPC  H15A19808   0.798   1.763   7.879  0.9080  0.2731  2.5202
  164DOPC  H15B19809   0.950   1.678   7.873 -0.1795  0.6626 -1.9538
  164DOPC  H15C19810   0.810   1.605   7.961 -0.2049 -0.2492 -0.6044
  164DOPC   C1119811   0.967   1.739   7.635  0.0070 -0.1238  0.3895
  164DOPC  H11A19812   0.973   1.783   7.533  1.4152 -2.9329 -0.8608
  164DOPC  H11B19813   0.985   1.811   7.717  0.5989  1.1680 -0.8336
  164DOPC     P19814   1.119   1.564   7.518 -0.2790 -0.4051  0.5965
  164DOPC   O1319815   1.122   1.427   7.562 -0.3636  0.0282  0.4855
  164DOPC   O1419816   1.255   1.620   7.478  0.4048  0.0693  0.1283
  164DOPC   O1219817   1.067   1.635   7.640 -0.5086 -0.7850  0.0987
  164DOPC   O1119818   1.020   1.587   7.398  0.6901  0.0434 -0.0303
  164DOPC    C119819   0.974   1.485   7.304  0.1796 -0.8103  0.4109
  164DOPC    HA19820   0.866   1.475   7.325 -0.4086  3.9563  0.7752
  164DOPC    HB19821   1.018   1.384   7.318  0.3383 -0.5102  2.4178
  164DOPC    C219822   0.994   1.534   7.160  0.1912  0.2396  0.3918
  164DOPC    HS19823   0.933   1.468   7.094 -1.0939  0.7115  1.0762
  164DOPC   O2119824   1.134   1.523   7.114  0.1514 -0.0010  0.2274
  164DOPC   C2119825   1.167   1.396   7.087  0.2910 -0.0394 -0.1910
  164DOPC   O2219826   1.096   1.296   7.096 -0.0410  0.0956  0.4942
  164DOPC   C2219827   1.306   1.409   7.019  0.3346 -0.4831 -0.2438
  164DOPC   H2R19828   1.341   1.305   7.003 -0.8726 -1.2500  1.7487
  164DOPC   H2S19829   1.377   1.464   7.085  0.9006 -0.8478 -0.5454
  164DOPC    C319830   0.940   1.677   7.133 -0.5340 -0.1771 -0.4558
  164DOPC    HX19831   0.998   1.739   7.204 -0.5381  1.0798 -1.5207
  164DOPC    HY19832   0.838   1.690   7.175 -0.8108  0.6961 -1.3628
  164DOPC   O3119833   0.954   1.730   6.997 -0.3149 -0.2700 -0.1278
  164DOPC   C3119834   1.056   1.808   6.974  0.5261  0.2501 -0.4283
  164DOPC   O3219835   1.146   1.822   7.054  0.3148  0.3255  0.0224
  164DOPC   C3219836   1.058   1.862   6.832 -0.2888 -0.1914  0.3897
  164DOPC   H2X19837   0.958   1.887   6.791 -0.4998 -1.8825 -0.2305
  164DOPC   H2Y19838   1.118   1.955   6.839  1.6421 -1.1824 -1.8774
  164DOPC   C2319839   1.298   1.490   6.892 -0.2551  0.3722 -0.0430
  164DOPC   H3R19840   1.276   1.596   6.918 -0.4545  1.0629 -2.6818
  164DOPC   H3S19841   1.213   1.461   6.825  1.3807 -1.4526 -1.4411
  164DOPC   C2419842   1.426   1.485   6.809 -0.2146  0.4937  0.6079
  164DOPC   H4R19843   1.453   1.378   6.803 -2.2547  0.0085 -1.1022
  164DOPC   H4S19844   1.512   1.518   6.871 -1.4899  1.4011  1.9669
  164DOPC   C2519845   1.426   1.556   6.677  0.4804  0.4944  0.2473
  164DOPC   H5R19846   1.437   1.666   6.690  1.7560  0.5646 -1.1945
  164DOPC   H5S19847   1.326   1.534   6.634  0.3309  2.7978 -0.7497
  164DOPC   C2619848   1.537   1.505   6.580 -0.0286 -0.0347 -0.1746
  164DOPC   H6R19849   1.514   1.400   6.552  0.8425 -0.6166  1.1805
  164DOPC   H6S19850   1.637   1.507   6.629 -0.8595  0.6865  1.5591
  164DOPC   C2719851   1.544   1.588   6.452  0.0906 -0.2403 -0.2414
  164DOPC   H7R19852   1.548   1.697   6.472 -0.5040  0.3045 -2.6979
  164DOPC   H7S19853   1.445   1.568   6.406 -0.4238  0.2833  0.6012
  164DOPC   C2819854   1.652   1.554   6.353 -0.9700 -1.1612  0.6567
  164DOPC   H8R19855   1.753   1.582   6.389 -1.2652  0.5583  0.2465
  164DOPC   H8S19856   1.644   1.625   6.268 -1.1264 -1.0408  0.7700
  164DOPC   C2919857   1.657   1.413   6.293  0.0818  0.5767  0.0997
  164DOPC   H9R19858   1.660   1.326   6.360  0.2294  0.7010  0.2560
  164DOPC  C21019859   1.668   1.389   6.158  0.4620  0.7116 -0.4612
  164DOPC  H10R19860   1.684   1.282   6.134  1.1045  0.6654  0.1375
  164DOPC  C21119861   1.705   1.483   6.045 -0.6291 -0.0168 -0.1582
  164DOPC  H11R19862   1.717   1.590   6.072  0.3871  0.3366 -1.8864
  164DOPC  H11S19863   1.633   1.465   5.962  0.3248  0.3456 -1.0753
  164DOPC  C21219864   1.835   1.434   5.988  0.0569  0.2835 -0.3407
  164DOPC  H12R19865   1.830   1.328   5.957  2.9140  0.4132 -1.5857
  164DOPC  H12S19866   1.915   1.429   6.064 -0.5073  0.5388  0.2832
  164DOPC  C21319867   1.885   1.525   5.877 -0.1110  0.5846  0.0403
  164DOPC  H13R19868   1.898   1.633   5.898  3.1939  0.7966 -2.2983
  164DOPC  H13S19869   1.816   1.505   5.792  0.3789  0.1389 -0.2591
  164DOPC  C21419870   2.019   1.487   5.819  0.1716  1.0337 -0.5939
  164DOPC  H14R19871   2.010   1.380   5.788 -0.2341  1.3600 -1.6734
  164DOPC  H14S19872   2.103   1.492   5.890  1.1644 -0.6144 -1.5713
  164DOPC  C21519873   2.042   1.575   5.695  0.2210  0.0120  0.0462
  164DOPC  H15R19874   2.093   1.669   5.725  1.4004 -0.9196  1.0570
  164DOPC  H15S19875   1.953   1.599   5.633  0.7142  0.8000 -0.3752
  164DOPC  C21619876   2.140   1.489   5.605 -0.0779  0.3764  0.7592
  164DOPC  H16R19877   2.077   1.421   5.543 -0.4530 -0.5659  2.1368
  164DOPC  H16S19878   2.217   1.436   5.665  0.1550 -1.5404 -1.1000
  164DOPC  C21719879   2.209   1.581   5.504  0.2115  0.3460  0.2601
  164DOPC  H17R19880   2.264   1.509   5.441  0.0262 -0.2482  0.7692
  164DOPC  H17S19881   2.276   1.648   5.562  0.7856 -0.0289  0.0295
  164DOPC  C21819882   2.133   1.674   5.416 -0.0779 -0.3466  0.2822
  164DOPC  H18R19883   2.071   1.628   5.336 -0.3821 -0.4177  0.5579
  164DOPC  H18S19884   2.211   1.736   5.366 -0.6641 -0.4625 -0.8094
  164DOPC  H18T19885   2.068   1.737   5.480  0.6783 -0.6617  1.3930
  164DOPC   C3319886   1.120   1.767   6.729  0.0136 -0.4317 -0.4572
  164DOPC   H3X19887   1.068   1.671   6.713 -1.6411  0.0510  1.5763
  164DOPC   H3Y19888   1.219   1.739   6.772 -0.2501 -1.5387 -0.5545
  164DOPC   C3419889   1.134   1.836   6.591 -0.3552  1.0358 -0.1202
  164DOPC   H4X19890   1.169   1.940   6.608  1.1797  0.8930 -2.0228
  164DOPC   H4Y19891   1.032   1.828   6.547 -0.1906 -1.4184 -0.2328
  164DOPC   C3519892   1.224   1.771   6.481 -0.1033  0.3236 -0.0543
  164DOPC   H5X19893   1.195   1.664   6.476 -2.5665  0.9286  0.2186
  164DOPC   H5Y19894   1.332   1.771   6.509 -0.3001  0.4007  0.7367
  164DOPC   C3619895   1.210   1.844   6.345  0.0830  0.6253  0.6142
  164DOPC   H6X19896   1.111   1.838   6.294  0.4507 -0.2096 -0.0183
  164DOPC   H6Y19897   1.234   1.951   6.366  1.6366  0.2577  0.7848
  164DOPC   C3719898   1.308   1.771   6.249  0.0735  0.1651  0.9004
  164DOPC   H7X19899   1.405   1.775   6.302 -0.3363 -0.2540  1.7156
  164DOPC   H7Y19900   1.274   1.665   6.242 -1.3150  0.5214  1.6671
  164DOPC   C3819901   1.318   1.839   6.111  0.1657  0.6744 -0.0066
  164DOPC   H8X19902   1.320   1.949   6.130  1.9547  0.7242 -0.3024
  164DOPC   H8Y19903   1.226   1.823   6.050  0.3599 -1.4823  0.1906
  164DOPC   C3919904   1.450   1.809   6.042  0.8111 -0.4299 -1.1953
  164DOPC   H9X19905   1.532   1.851   6.103 -0.2982 -0.8501  0.6777
  164DOPC  C31019906   1.478   1.748   5.924  0.4286 -0.6878  0.3922
  164DOPC  H10X19907   1.583   1.726   5.902  0.5579 -1.2631  1.4950
  164DOPC  C31119908   1.377   1.688   5.828  0.1798  0.8716  0.5724
  164DOPC  H11X19909   1.273   1.700   5.864 -0.3144 -0.9395 -0.1634
  164DOPC  H11Y19910   1.398   1.579   5.817 -0.0965  0.7205  1.4601
  164DOPC  C31219911   1.398   1.745   5.683 -0.0702  0.3053 -0.3587
  164DOPC  H12X19912   1.375   1.854   5.682 -4.5391 -0.3973  1.2073
  164DOPC  H12Y19913   1.323   1.700   5.615  0.9207 -0.3693 -1.0263
  164DOPC  C31319914   1.540   1.721   5.621  0.2355 -0.6054  1.1581
  164DOPC  H13X19915   1.619   1.749   5.694  1.6911  0.4240 -0.7308
  164DOPC  H13Y19916   1.560   1.613   5.605  1.9522 -0.1385 -0.1167
  164DOPC  C31419917   1.570   1.799   5.488  0.3361  0.2243  0.1314
  164DOPC  H14X19918   1.672   1.763   5.462  0.1081  0.5617 -1.3000
  164DOPC  H14Y19919   1.564   1.908   5.508  0.5333  0.5022 -1.2013
  164DOPC  C31519920   1.489   1.753   5.364 -0.4485 -0.1734 -0.7039
  164DOPC  H15X19921   1.382   1.749   5.394 -1.0959  3.0087 -2.0917
  164DOPC  H15Y19922   1.522   1.652   5.333 -2.2321 -0.8836 -0.3995
  164DOPC  C31619923   1.501   1.863   5.250 -0.3335 -0.0729  0.2338
  164DOPC  H16X19924   1.608   1.890   5.239  0.0323 -2.2905 -3.5215
  164DOPC  H16Y19925   1.463   1.824   5.154  0.5233 -2.8814  0.9320
  164DOPC  C31719926   1.425   1.991   5.284 -0.1267  0.2130  0.1498
  164DOPC  H17X19927   1.315   1.973   5.288 -0.4044  0.9277 -2.3939
  164DOPC  H17Y19928   1.454   2.027   5.385 -0.2098  3.9270 -0.9805
  164DOPC  C31819929   1.459   2.104   5.180  0.2156 -0.2095 -0.1681
  164DOPC  H18X19930   1.549   2.164   5.203  0.8907 -1.3849  0.3450
  164DOPC  H18Y19931   1.466   2.061   5.078 -2.3240  0.0302 -0.5165
  164DOPC  H18Z19932   1.376   2.178   5.185  1.7892  1.5667  1.3027
  165DOPC     N19933   6.911   6.346   6.970 -0.1064  0.3644  0.1577
  165DOPC   C1219934   6.856   6.452   6.879 -0.3209  0.4121 -0.4717
  165DOPC  H12A19935   6.844   6.411   6.780 -0.7809 -0.1320 -0.1952
  165DOPC  H12B19936   6.923   6.537   6.876 -0.4665  0.6178  1.1014
  165DOPC   C1319937   6.838   6.216   6.971  0.2126 -0.9562  0.5562
  165DOPC  H13A19938   6.911   6.137   6.986  1.9012  0.6947  1.4852
  165DOPC  H13B19939   6.763   6.216   7.049 -0.5874  2.0600 -0.0671
  165DOPC  H13C19940   6.784   6.191   6.881 -1.1461 -1.0598  1.3675
  165DOPC   C1419941   6.934   6.403   7.107  0.0317 -0.0835  0.0614
  165DOPC  H14A19942   7.015   6.475   7.114  0.2459 -0.3004 -0.1853
  165DOPC  H14B19943   6.843   6.453   7.136 -0.1247 -0.4941  0.2877
  165DOPC  H14C19944   6.957   6.320   7.172 -1.9032 -1.3190 -0.7546
  165DOPC   C1519945   7.050   6.318   6.918 -0.8873 -0.0575  0.3939
  165DOPC  H15A19946   7.116   6.393   6.960  0.4074 -0.7939 -0.2674
  165DOPC  H15B19947   7.053   6.321   6.810  0.4256 -1.9839  0.3370
  165DOPC  H15C19948   7.087   6.225   6.957 -0.6871  0.5324  1.6646
  165DOPC   C1119949   6.717   6.509   6.921  0.3868 -0.0467  0.4376
  165DOPC  H11A19950   6.646   6.425   6.903 -0.3162  0.0254  2.5667
  165DOPC  H11B19951   6.716   6.536   7.028  2.1373 -0.6991  0.6493
  165DOPC     P19952   6.567   6.700   6.863 -0.5256 -0.1495 -0.3448
  165DOPC   O1319953   6.563   6.813   6.767  0.4551 -0.1506 -0.2529
  165DOPC   O1419954   6.567   6.733   7.008  0.2129  0.5083  0.0199
  165DOPC   O1219955   6.698   6.622   6.839 -0.2990 -0.2179  0.6103
  165DOPC   O1119956   6.458   6.583   6.837  0.2655  0.3592  0.4019
  165DOPC    C119957   6.453   6.518   6.701  0.1583  0.4990 -0.3222
  165DOPC    HA19958   6.400   6.423   6.722  0.2612  0.1896 -1.4104
  165DOPC    HB19959   6.553   6.477   6.677  0.5174  1.0951  0.1241
  165DOPC    C219960   6.385   6.604   6.594  0.5934  0.6218  1.0157
  165DOPC    HS19961   6.443   6.698   6.579 -1.7864  2.2959  1.7707
  165DOPC   O2119962   6.249   6.623   6.636 -0.6052 -0.2081 -0.1673
  165DOPC   C2119963   6.193   6.740   6.605 -0.4554 -0.4685 -0.0451
  165DOPC   O2219964   6.251   6.841   6.568 -0.1290 -0.2054  0.3515
  165DOPC   C2219965   6.040   6.720   6.604  1.0411  0.3226 -0.1224
  165DOPC   H2R19966   6.005   6.690   6.705 -1.8251  2.1165 -0.4714
  165DOPC   H2S19967   6.002   6.643   6.533  1.1720 -1.2357  1.4274
  165DOPC    C319968   6.394   6.532   6.452 -0.4782  0.7210  0.3972
  165DOPC    HX19969   6.358   6.427   6.454  0.2587  0.4291 -0.6500
  165DOPC    HY19970   6.502   6.515   6.432 -1.3514 -1.9954 -2.8966
  165DOPC   O3119971   6.323   6.617   6.350  0.1561 -0.2549 -0.0418
  165DOPC   C3119972   6.393   6.709   6.299  0.2282  0.0512  0.3789
  165DOPC   O3219973   6.507   6.736   6.333  0.1015  0.0646  0.0768
  165DOPC   C3219974   6.301   6.782   6.195 -0.3113 -0.6127 -0.5731
  165DOPC   H2X19975   6.276   6.705   6.119 -1.2953  2.7746 -3.9871
  165DOPC   H2Y19976   6.213   6.817   6.254  1.8032  2.9132  0.7742
  165DOPC   C2319977   5.960   6.845   6.555  0.4306  1.1457  0.4370
  165DOPC   H3R19978   5.964   6.930   6.627  0.1382 -0.7387  2.8183
  165DOPC   H3S19979   5.856   6.807   6.561  1.0866 -0.6940  0.5645
  165DOPC   C2419980   5.983   6.890   6.406 -0.3053 -0.0720 -0.1078
  165DOPC   H4R19981   5.998   6.803   6.338 -0.8484  0.9413 -1.5769
  165DOPC   H4S19982   6.082   6.941   6.399 -1.0164  1.3283 -0.3346
  165DOPC   C2519983   5.865   6.969   6.354 -0.5852 -0.3502 -0.2136
  165DOPC   H5R19984   5.830   7.042   6.430  0.9512  1.7245 -1.4015
  165DOPC   H5S19985   5.779   6.898   6.349 -1.5417  0.8360 -2.3804
  165DOPC   C2619986   5.884   7.038   6.215 -0.0781  0.0984  0.1233
  165DOPC   H6R19987   5.918   6.955   6.150  1.6485  1.0884 -0.2923
  165DOPC   H6S19988   5.965   7.113   6.206 -0.2687  0.0656 -3.9064
  165DOPC   C2719989   5.761   7.118   6.167  0.2251 -0.4712 -0.7823
  165DOPC   H7R19990   5.712   7.152   6.260  0.4686  1.9174 -1.4778
  165DOPC   H7S19991   5.692   7.047   6.114 -1.3199  0.7096 -0.4249
  165DOPC   C2819992   5.780   7.237   6.079 -0.2731 -0.2298  0.2787
  165DOPC   H8R19993   5.838   7.309   6.141 -1.0203  1.2559 -0.6782
  165DOPC   H8S19994   5.679   7.280   6.062 -0.5829  0.1996  2.7566
  165DOPC   C2919995   5.859   7.208   5.950 -0.0116  0.1055  0.0826
  165DOPC   H9R19996   5.966   7.191   5.971  0.1311  0.3846 -0.4099
  165DOPC  C21019997   5.812   7.213   5.822  0.1140 -0.3967  0.0130
  165DOPC  H10R19998   5.880   7.199   5.737 -0.0683  0.0018 -0.2025
  165DOPC  C21119999   5.668   7.237   5.784  0.1209  0.3136  0.4311
  165DOPC  H11R20000   5.640   7.326   5.844  0.6312 -0.0680  1.2467
  165DOPC  H11S20001   5.614   7.147   5.820  3.1420 -1.5949  0.5568
  165DOPC  C21220002   5.644   7.261   5.632  0.2176 -0.2651 -0.5810
  165DOPC  H12R20003   5.686   7.355   5.590 -0.4025 -0.5866 -1.9675
  165DOPC  H12S20004   5.541   7.295   5.611  0.9103  1.0905 -1.9602
  165DOPC  C21320005   5.681   7.147   5.537  0.6260  0.3788  0.4253
  165DOPC  H13R20006   5.634   7.056   5.579  0.3088  1.0228  1.5031
  165DOPC  H13S20007   5.792   7.136   5.541  0.6802  0.8137  0.1356
  165DOPC  C21420008   5.639   7.171   5.389  0.0726 -0.0805 -0.3699
  165DOPC  H14R20009   5.681   7.273   5.371 -1.8251  1.4798  3.1199
  165DOPC  H14S20010   5.529   7.168   5.379 -0.0714  0.3135  0.9281
  165DOPC  C21520011   5.687   7.062   5.304  0.0432  0.0553  0.4684
  165DOPC  H15R20012   5.693   6.967   5.362  0.5969  0.1305  0.5351
  165DOPC  H15S20013   5.791   7.076   5.269 -0.6993  1.7553 -1.2219
  165DOPC  C21620014   5.588   7.044   5.189 -0.0879  0.3357  0.0523
  165DOPC  H16R20015   5.564   7.143   5.146 -2.6761 -0.7707 -1.2765
  165DOPC  H16S20016   5.492   7.006   5.231 -0.8251  1.7051 -0.3582
  165DOPC  C21720017   5.630   6.953   5.075  0.4790  1.0145  1.2993
  165DOPC  H17R20018   5.655   6.852   5.114  0.1020 -0.2480 -1.4686
  165DOPC  H17S20019   5.711   6.977   5.003 -0.3264 -0.7851 -0.2982
  165DOPC  C21820020   5.513   6.918   4.978  1.0482 -0.0605 -0.6692
  165DOPC  H18R20021   5.508   6.995   4.898 -1.4963  1.9614  1.2643
  165DOPC  H18S20022   5.418   6.926   5.036  1.1768 -0.1191 -0.4502
  165DOPC  H18T20023   5.519   6.818   4.930  0.8244  0.5798 -2.0826
  165DOPC   C3320024   6.359   6.904   6.126  0.2140 -0.3446  0.1929
  165DOPC   H3X20025   6.449   6.879   6.066 -1.0209 -0.5672 -1.6376
  165DOPC   H3Y20026   6.378   6.986   6.198 -0.2604 -0.0957  0.0343
  165DOPC   C3420027   6.255   6.972   6.039  0.0648  0.0925 -0.1703
  165DOPC   H4X20028   6.314   7.049   5.985  1.5308 -0.3119  0.7621
  165DOPC   H4Y20029   6.169   7.019   6.090 -0.1318  0.6132 -0.9722
  165DOPC   C3520030   6.214   6.880   5.922  0.4175  1.0904 -0.6868
  165DOPC   H5X20031   6.143   6.802   5.956  1.9077  0.2024  0.5488
  165DOPC   H5Y20032   6.298   6.820   5.881 -0.5755 -1.4223  0.7359
  165DOPC   C3620033   6.145   6.955   5.802  0.2921 -0.1857  0.0026
  165DOPC   H6X20034   6.051   6.999   5.841  1.1973  2.1390 -0.3038
  165DOPC   H6Y20035   6.211   7.038   5.767 -0.4147 -0.8953 -3.3523
  165DOPC   C3720036   6.127   6.864   5.678  0.0653  0.2531  0.3694
  165DOPC   H7X20037   6.059   6.782   5.709  1.0054  0.6220  3.7924
  165DOPC   H7Y20038   6.222   6.813   5.653 -0.5577 -0.4341 -0.6771
  165DOPC   C3820039   6.089   6.943   5.555  0.6890  0.3728  0.5449
  165DOPC   H8X20040   6.004   7.013   5.572 -0.1964 -0.5335 -0.0376
  165DOPC   H8Y20041   6.046   6.867   5.486 -0.7594  0.4578  1.3069
  165DOPC   C3920042   6.204   7.018   5.495 -0.0695 -0.8003 -0.2125
  165DOPC   H9X20043   6.295   6.956   5.486  1.8253  1.8486 -0.3411
  165DOPC  C31020044   6.216   7.149   5.462 -0.2709  0.6965  0.1345
  165DOPC  H10X20045   6.314   7.188   5.433  0.9263 -0.5486  2.1794
  165DOPC  C31120046   6.116   7.253   5.484  0.4482  0.1181  0.5471
  165DOPC  H11X20047   6.042   7.223   5.561  0.4741  1.3937  1.0842
  165DOPC  H11Y20048   6.043   7.269   5.402  0.0372  1.5814  1.1623
  165DOPC  C31220049   6.174   7.390   5.506 -0.2450  0.2946  0.3753
  165DOPC  H12X20050   6.249   7.392   5.588  0.3053  2.6023 -0.1342
  165DOPC  H12Y20051   6.086   7.457   5.521  1.4781  2.4261  1.4485
  165DOPC  C31320052   6.229   7.458   5.378  0.0572  0.0806 -0.4683
  165DOPC  H13X20053   6.313   7.398   5.338  2.0599  2.9013 -0.7761
  165DOPC  H13Y20054   6.151   7.459   5.299 -0.4256  0.2809  0.0013
  165DOPC  C31420055   6.274   7.603   5.404 -0.2757 -0.2194  0.0113
  165DOPC  H14X20056   6.187   7.669   5.427 -0.7246 -1.2980  1.5581
  165DOPC  H14Y20057   6.345   7.610   5.489  0.9138  0.6457 -1.0237
  165DOPC  C31520058   6.349   7.677   5.291  0.5793 -0.8031  0.1810
  165DOPC  H15X20059   6.444   7.628   5.263  1.6184  1.5815 -0.7683
  165DOPC  H15Y20060   6.373   7.782   5.319  0.0559 -0.3724 -0.9027
  165DOPC  C31620061   6.262   7.685   5.163 -0.0489  0.3931 -0.1506
  165DOPC  H16X20062   6.210   7.589   5.146 -0.3425  0.3220  1.0761
  165DOPC  H16Y20063   6.181   7.759   5.183 -1.0865 -1.2181  1.8573
  165DOPC  C31720064   6.339   7.729   5.038  0.3546 -0.5808 -0.3385
  165DOPC  H17X20065   6.389   7.827   5.057  0.8663 -0.5412 -1.7390
  165DOPC  H17Y20066   6.425   7.661   5.020 -0.6872 -2.4361  1.2733
  165DOPC  C31820067   6.254   7.740   4.913 -0.3024  0.0363  0.3918
  165DOPC  H18X20068   6.173   7.815   4.914 -0.8199 -0.4704 -0.9721
  165DOPC  H18Y20069   6.323   7.770   4.832 -1.2166  3.2991  0.7122
  165DOPC  H18Z20070   6.209   7.641   4.888 -0.4445  0.1104  0.3557
  166DOPC     N20071   6.528   1.556   7.294  0.0002  0.4026  0.8785
  166DOPC   C1220072   6.470   1.510   7.154  0.3908 -0.2555 -0.0496
  166DOPC  H12A20073   6.445   1.406   7.164  0.9704 -0.3194  0.7554
  166DOPC  H12B20074   6.552   1.525   7.085 -0.1789  3.4622 -0.1744
  166DOPC   C1320075   6.414   1.578   7.388  0.2618 -0.1684  0.6117
  166DOPC  H13A20076   6.455   1.631   7.473 -1.4515  0.7035  0.9341
  166DOPC  H13B20077   6.343   1.646   7.341  3.0834  1.1448 -2.1921
  166DOPC  H13C20078   6.364   1.486   7.410  0.3752 -0.1325  1.0174
  166DOPC   C1420079   6.614   1.673   7.269 -0.0063  0.1789 -0.1417
  166DOPC  H14A20080   6.668   1.702   7.359  1.6730 -0.9766 -0.7333
  166DOPC  H14B20081   6.682   1.647   7.190  2.1680 -0.4959  1.8541
  166DOPC  H14C20082   6.549   1.752   7.233 -0.5027 -1.1886 -2.4478
  166DOPC   C1520083   6.613   1.447   7.351 -0.1592  0.4999 -0.4654
  166DOPC  H15A20084   6.557   1.359   7.377 -0.2328  0.5854 -0.3334
  166DOPC  H15B20085   6.642   1.484   7.449  0.7606  1.6419 -1.1323
  166DOPC  H15C20086   6.705   1.425   7.298 -0.3588 -0.5284 -0.4026
  166DOPC   C1120087   6.343   1.588   7.108  0.0540  0.0988 -0.2398
  166DOPC  H11A20088   6.313   1.566   7.003  1.3514 -1.7222 -0.2761
  166DOPC  H11B20089   6.258   1.566   7.177  0.8930  1.0477  1.1399
  166DOPC     P20090   6.286   1.833   7.026 -0.0166 -0.3998 -0.1496
  166DOPC   O1320091   6.360   1.962   7.050 -0.3946 -0.7056  0.1947
  166DOPC   O1420092   6.139   1.832   7.047 -0.0078 -0.1157  0.0917
  166DOPC   O1220093   6.362   1.732   7.120  0.0455 -0.4437  0.3540
  166DOPC   O1120094   6.333   1.782   6.887  0.4510 -0.2375 -0.0812
  166DOPC    C120095   6.472   1.767   6.848  0.2976  0.1525  0.0057
  166DOPC    HA20096   6.488   1.657   6.845 -0.2667  0.0413  0.8722
  166DOPC    HB20097   6.542   1.803   6.926 -3.1277  0.4021  3.2457
  166DOPC    C220098   6.503   1.822   6.707  0.4916  0.2010  0.6384
  166DOPC    HS20099   6.482   1.931   6.711 -0.6631 -0.0100  0.6642
  166DOPC   O2120100   6.412   1.772   6.609 -1.2407  1.2050 -0.6809
  166DOPC   C2120101   6.294   1.832   6.602 -0.4231 -0.6008 -0.4045
  166DOPC   O2220102   6.261   1.935   6.661 -0.3892 -0.9080 -0.7214
  166DOPC   C2220103   6.205   1.757   6.502  0.1460  0.2698  0.0459
  166DOPC   H2R20104   6.100   1.751   6.540  0.0902 -0.1853 -0.1743
  166DOPC   H2S20105   6.233   1.651   6.485 -2.3407 -0.1667 -2.0453
  166DOPC    C320106   6.648   1.799   6.658  0.1898 -0.3996  1.0418
  166DOPC    HX20107   6.650   1.688   6.661 -1.4459 -0.6500 -2.5528
  166DOPC    HY20108   6.717   1.843   6.733 -1.4690  2.0510  1.2488
  166DOPC   O3120109   6.670   1.849   6.525 -0.4548  0.2955 -0.1092
  166DOPC   C3120110   6.718   1.769   6.426  0.7605  0.0210 -0.3051
  166DOPC   O3220111   6.743   1.650   6.438 -0.1331  0.1514  0.3521
  166DOPC   C3220112   6.714   1.854   6.302 -0.7691 -0.3761  0.4176
  166DOPC   H2X20113   6.621   1.916   6.302 -0.8937 -0.5424 -0.6456
  166DOPC   H2Y20114   6.811   1.907   6.311  0.2987 -2.4731  2.4714
  166DOPC   C2320115   6.206   1.821   6.358  0.1649  0.3105 -0.0007
  166DOPC   H3R20116   6.178   1.928   6.372 -0.4404  0.3780 -1.4990
  166DOPC   H3S20117   6.117   1.779   6.306 -0.7355  0.7406  1.1535
  166DOPC   C2420118   6.333   1.800   6.276  0.5596  0.3857 -0.1355
  166DOPC   H4R20119   6.351   1.693   6.252 -0.2007  0.4473 -1.0146
  166DOPC   H4S20120   6.424   1.844   6.323  0.9820  1.5696 -1.9536
  166DOPC   C2520121   6.327   1.863   6.141 -0.3307 -0.3233  0.9590
  166DOPC   H5R20122   6.427   1.884   6.096 -1.0871  0.6381 -0.3499
  166DOPC   H5S20123   6.274   1.960   6.155 -1.7624 -0.7835 -0.8920
  166DOPC   C2620124   6.247   1.780   6.042  0.6549  0.6409 -0.0867
  166DOPC   H6R20125   6.216   1.844   5.956  2.4331  1.4441 -0.1845
  166DOPC   H6S20126   6.164   1.733   6.098  1.9095 -0.8760  0.5446
  166DOPC   C2720127   6.326   1.669   5.973 -0.3688  0.3066  0.6107
  166DOPC   H7R20128   6.263   1.585   5.937  1.2889 -0.4716 -0.6301
  166DOPC   H7S20129   6.395   1.627   6.049 -0.3426 -0.0498  0.3912
  166DOPC   C2820130   6.408   1.715   5.851  0.2623  0.6600  0.1522
  166DOPC   H8R20131   6.487   1.786   5.883  0.9563 -0.2022  0.3972
  166DOPC   H8S20132   6.348   1.771   5.775  1.1733 -2.5704 -3.3038
  166DOPC   C2920133   6.465   1.593   5.784  0.6694  0.7599  0.0482
  166DOPC   H9R20134   6.549   1.544   5.836  0.0615 -2.9254 -2.1108
  166DOPC  C21020135   6.427   1.539   5.667  0.0158  0.7961 -0.1140
  166DOPC  H10R20136   6.487   1.451   5.641 -0.7061  0.3826 -0.4133
  166DOPC  C21120137   6.320   1.589   5.577  0.9191  0.8616 -0.6665
  166DOPC  H11R20138   6.276   1.675   5.631  0.8469 -0.6733  1.8987
  166DOPC  H11S20139   6.244   1.513   5.548  1.0533  0.1114  0.8430
  166DOPC  C21220140   6.382   1.650   5.447 -0.2156 -0.3748  0.1564
  166DOPC  H12R20141   6.441   1.569   5.398  0.0836 -0.0060 -0.0960
  166DOPC  H12S20142   6.464   1.719   5.477  1.6254 -1.6382 -1.6749
  166DOPC  C21320143   6.283   1.702   5.345 -0.1327 -0.2199  0.8385
  166DOPC  H13R20144   6.216   1.778   5.390  0.6855  1.0615 -0.0258
  166DOPC  H13S20145   6.216   1.618   5.314 -2.1039  1.6400 -0.2469
  166DOPC  C21420146   6.344   1.759   5.210 -0.5799 -0.3311 -0.8989
  166DOPC  H14R20147   6.386   1.680   5.143 -0.4426 -0.2685 -0.8868
  166DOPC  H14S20148   6.430   1.819   5.248 -1.9231  0.2713  1.3646
  166DOPC  C21520149   6.254   1.853   5.134 -0.4577 -0.5211 -0.8157
  166DOPC  H15R20150   6.166   1.877   5.198  1.2886  0.8342  1.1967
  166DOPC  H15S20151   6.214   1.800   5.044 -1.6762 -0.5308 -0.2861
  166DOPC  C21620152   6.317   1.985   5.079  0.5721 -0.2045 -0.0959
  166DOPC  H16R20153   6.336   2.052   5.166  2.1251  0.7309 -1.1132
  166DOPC  H16S20154   6.229   2.027   5.025  0.1478 -0.2421  0.5462
  166DOPC  C21720155   6.430   1.982   4.977 -0.6907  0.2195  0.2209
  166DOPC  H17R20156   6.418   1.908   4.895  1.6556 -0.3072  0.2770
  166DOPC  H17S20157   6.519   1.947   5.033 -0.9333  0.9910  1.1068
  166DOPC  C21820158   6.457   2.124   4.922  0.4547 -0.1741 -0.8830
  166DOPC  H18R20159   6.538   2.140   4.849 -0.4585 -0.7397 -2.0479
  166DOPC  H18S20160   6.486   2.195   5.003  1.8399  0.3668 -1.8399
  166DOPC  H18T20161   6.361   2.160   4.879 -0.1400 -1.6713 -0.8427
  166DOPC   C3320162   6.733   1.765   6.177  0.0927  0.2241  0.4008
  166DOPC   H3X20163   6.645   1.698   6.163  1.4287 -1.3028 -1.1450
  166DOPC   H3Y20164   6.820   1.696   6.180 -0.9274 -1.1622 -0.3052
  166DOPC   C3420165   6.744   1.845   6.045  0.1817 -0.1689 -0.1093
  166DOPC   H4X20166   6.828   1.917   6.057  0.6860 -0.4328 -1.7724
  166DOPC   H4Y20167   6.645   1.893   6.036 -0.4763 -1.6070 -0.8172
  166DOPC   C3520168   6.774   1.741   5.933  0.8146 -0.0561 -0.5689
  166DOPC   H5X20169   6.687   1.673   5.937  0.3512  0.5835  1.1381
  166DOPC   H5Y20170   6.872   1.692   5.955 -0.0480 -0.7538  2.1606
  166DOPC   C3620171   6.790   1.806   5.797 -0.1320 -0.1867 -0.7774
  166DOPC   H6X20172   6.696   1.796   5.739  0.0052  0.8056 -1.1920
  166DOPC   H6Y20173   6.813   1.914   5.802 -0.8826 -0.0159 -0.9456
  166DOPC   C3720174   6.908   1.749   5.705  0.7866  0.4966  0.4981
  166DOPC   H7X20175   6.885   1.779   5.600 -0.6522 -1.5470  0.1664
  166DOPC   H7Y20176   7.006   1.789   5.739  0.1615  2.2675  0.3351
  166DOPC   C3820177   6.917   1.592   5.700  0.0837  0.0400  0.2600
  166DOPC   H8X20178   6.811   1.558   5.695  0.9999 -2.9397 -1.1521
  166DOPC   H8Y20179   6.964   1.557   5.794  0.7530  1.7284  0.5857
  166DOPC   C3920180   7.000   1.542   5.584 -0.1686 -0.1883  0.2110
  166DOPC   H9X20181   7.098   1.590   5.567 -0.1963 -0.0865  0.3271
  166DOPC  C31020182   6.951   1.463   5.483  0.0152  0.1749 -0.2261
  166DOPC  H10X20183   7.016   1.427   5.401 -0.9798  0.9731 -1.4050
  166DOPC  C31120184   6.807   1.421   5.461 -0.1082 -0.0936 -0.1511
  166DOPC  H11X20185   6.739   1.472   5.532 -1.2098 -0.8273 -0.6609
  166DOPC  H11Y20186   6.818   1.311   5.478 -0.3719  0.1910  2.2053
  166DOPC  C31220187   6.760   1.452   5.314  0.0397 -1.5479  0.2446
  166DOPC  H12X20188   6.651   1.435   5.319 -0.0456 -0.9694  0.4480
  166DOPC  H12Y20189   6.810   1.382   5.243 -0.8521 -1.8174 -0.1282
  166DOPC  C31320190   6.788   1.600   5.263 -0.1619  0.0620 -0.4301
  166DOPC  H13X20191   6.737   1.667   5.336 -0.1871 -1.3092  0.8656
  166DOPC  H13Y20192   6.898   1.614   5.270  0.2403 -1.4872 -2.8043
  166DOPC  C31420193   6.737   1.614   5.112  0.5491 -0.5596  0.0184
  166DOPC  H14X20194   6.767   1.519   5.063 -0.7038 -0.8576 -0.2222
  166DOPC  H14Y20195   6.627   1.632   5.112  0.4382 -0.9498  2.0282
  166DOPC  C31520196   6.804   1.723   5.035 -0.2330 -0.0798  0.0928
  166DOPC  H15X20197   6.912   1.704   5.024 -0.7769 -2.5724 -1.6517
  166DOPC  H15Y20198   6.790   1.815   5.096  0.6064 -0.3329  0.6931
  166DOPC  C31620199   6.751   1.750   4.893 -0.4028  0.1754  0.4523
  166DOPC  H16X20200   6.669   1.824   4.902 -0.5472 -0.1117  1.7549
  166DOPC  H16Y20201   6.821   1.784   4.813 -2.7311  1.2756 -1.2214
  166DOPC  C31720202   6.705   1.620   4.823  0.3296 -0.1534  0.7641
  166DOPC  H17X20203   6.785   1.543   4.828  0.8202  0.3280  0.5188
  166DOPC  H17Y20204   6.611   1.589   4.873 -0.5695 -0.4083 -1.0016
  166DOPC  C31820205   6.667   1.639   4.675 -0.7183  1.1512 -0.0262
  166DOPC  H18X20206   6.614   1.552   4.631  1.5453  0.0320 -0.6993
  166DOPC  H18Y20207   6.608   1.732   4.660  0.4683  1.7736 -1.0444
  166DOPC  H18Z20208   6.764   1.656   4.623 -0.5135 -0.8094 -0.3761
  167DOPC     N20209   5.884   0.365   7.144 -0.6952  0.1845 -0.1145
  167DOPC   C1220210   5.967   0.245   7.112 -0.6357 -0.1083 -0.3035
  167DOPC  H12A20211   5.920   0.194   7.029  0.8503 -1.5096 -0.3172
  167DOPC  H12B20212   5.974   0.184   7.201  1.3520 -0.4896 -0.6699
  167DOPC   C1320213   5.945   0.451   7.246  0.4529 -0.7449 -0.5860
  167DOPC  H13A20214   5.999   0.388   7.316  1.0219 -1.3306 -1.5273
  167DOPC  H13B20215   6.012   0.526   7.207 -0.6316  0.7765  0.3512
  167DOPC  H13C20216   5.872   0.494   7.313  0.0834 -2.5710  0.2525
  167DOPC   C1420217   5.754   0.311   7.193  0.9150 -0.3991 -0.3187
  167DOPC  H14A20218   5.763   0.225   7.258 -2.0136 -0.5682  0.0057
  167DOPC  H14B20219   5.700   0.381   7.255  2.3534  1.0062 -0.5999
  167DOPC  H14C20220   5.684   0.298   7.112 -1.6691  1.8156  1.4046
  167DOPC   C1520221   5.859   0.443   7.014  0.1773  0.0804 -0.6725
  167DOPC  H15A20222   5.834   0.547   7.027 -0.5345  0.0584 -1.7557
  167DOPC  H15B20223   5.766   0.414   6.967 -0.3563 -2.5779  1.6953
  167DOPC  H15C20224   5.938   0.434   6.942 -1.2778 -0.5170 -2.2699
  167DOPC   C1120225   6.115   0.270   7.070 -0.6614 -0.1759  0.4999
  167DOPC  H11A20226   6.104   0.363   7.010 -3.9787 -0.2940  0.7157
  167DOPC  H11B20227   6.182   0.295   7.155  1.1975  1.2896 -1.2960
  167DOPC     P20228   6.272   0.065   7.048 -0.0779 -0.1090 -0.2614
  167DOPC   O1320229   6.290   0.070   7.194 -0.3916  0.4254 -0.4921
  167DOPC   O1420230   6.403   0.061   6.977  0.2350  0.1725  0.4038
  167DOPC   O1220231   6.171   0.171   6.987 -0.2641 -0.1794 -0.6046
  167DOPC   O1120232   6.204  -0.073   7.017 -1.2582  0.5004 -0.1295
  167DOPC    C120233   6.063  -0.071   6.986 -0.5938 -0.3838  0.0898
  167DOPC    HA20234   6.043  -0.030   6.884 -3.3220  0.9893  1.0639
  167DOPC    HB20235   6.007  -0.007   7.058 -0.7799 -0.8104  0.3228
  167DOPC    C220236   6.006  -0.213   6.997 -0.2223 -0.0117  1.0412
  167DOPC    HS20237   6.010  -0.241   7.104 -0.9232  1.4927  1.4881
  167DOPC   O2120238   6.089  -0.305   6.922 -0.1286 -0.2758  0.6884
  167DOPC   C2120239   6.051  -0.431   6.911  0.4819  0.5614 -0.3523
  167DOPC   O2220240   5.958  -0.483   6.974 -0.2284  0.1822 -0.4432
  167DOPC   C2220241   6.137  -0.495   6.809  0.0143 -0.0649  0.5844
  167DOPC   H2R20242   6.125  -0.604   6.824  0.0535 -0.1515  0.0069
  167DOPC   H2S20243   6.242  -0.468   6.831 -0.1562  0.4554  0.7766
  167DOPC    C320244   5.859  -0.210   6.950  0.3507  0.5357 -0.4432
  167DOPC    HX20245   5.807  -0.125   7.000 -1.6381  0.3454 -2.0343
  167DOPC    HY20246   5.817  -0.308   6.981 -0.5764  1.3171  0.8726
  167DOPC   O3120247   5.855  -0.196   6.807 -0.5220 -0.3731 -0.8098
  167DOPC   C3120248   5.738  -0.225   6.753 -0.0942  0.4004 -0.5563
  167DOPC   O3220249   5.638  -0.258   6.809 -0.4915 -0.3411 -0.2430
  167DOPC   C3220250   5.756  -0.231   6.602  0.5923 -0.1639  0.7768
  167DOPC   H2X20251   5.864  -0.225   6.579  0.2441  0.6545 -0.7699
  167DOPC   H2Y20252   5.722  -0.327   6.559  3.4028 -0.0345 -2.0209
  167DOPC   C2320253   6.079  -0.457   6.664  0.5832  0.1938  0.3309
  167DOPC   H3R20254   6.058  -0.349   6.676  0.6846  0.1268  1.1859
  167DOPC   H3S20255   5.980  -0.502   6.643  0.8717  0.5173 -1.9757
  167DOPC   C2420256   6.179  -0.476   6.548 -0.1502 -0.1285 -0.1478
  167DOPC   H4R20257   6.128  -0.480   6.449  2.2509 -1.0324 -1.4477
  167DOPC   H4S20258   6.228  -0.574   6.563 -1.0426 -0.9804 -2.3757
  167DOPC   C2520259   6.284  -0.372   6.557 -0.2645 -0.6562 -0.2650
  167DOPC   H5R20260   6.351  -0.386   6.645  0.8547  0.5358 -0.8968
  167DOPC   H5S20261   6.249  -0.267   6.555 -0.1138 -0.5795  0.8068
  167DOPC   C2620262   6.383  -0.377   6.436 -0.4796  0.7004 -0.1889
  167DOPC   H6R20263   6.450  -0.290   6.421 -2.0539  1.5964 -2.7334
  167DOPC   H6S20264   6.331  -0.376   6.338 -1.6039  0.2826  0.3930
  167DOPC   C2720265   6.475  -0.504   6.442  0.0095 -0.6132 -0.3722
  167DOPC   H7R20266   6.410  -0.593   6.439 -1.3162  0.3408 -1.0586
  167DOPC   H7S20267   6.529  -0.508   6.539 -2.0894 -4.2421  0.8450
  167DOPC   C2820268   6.575  -0.512   6.328  0.3840  0.7413  0.0876
  167DOPC   H8R20269   6.510  -0.492   6.240 -1.7772  0.1529  1.4816
  167DOPC   H8S20270   6.610  -0.618   6.318 -0.4545  0.5889 -1.7843
  167DOPC   C2920271   6.696  -0.426   6.334  0.0660 -0.8663  0.3122
  167DOPC   H9R20272   6.687  -0.326   6.379  0.1465 -0.7461  0.0599
  167DOPC  C21020273   6.823  -0.453   6.283  0.5654  0.1266  0.2646
  167DOPC  H10R20274   6.905  -0.381   6.296  1.1769 -0.8730  2.4730
  167DOPC  C21120275   6.875  -0.580   6.225  0.3873  0.0229 -0.1870
  167DOPC  H11R20276   6.902  -0.573   6.118 -0.2819 -2.3971 -0.5901
  167DOPC  H11S20277   6.801  -0.662   6.236 -2.1132  2.2531  0.7583
  167DOPC  C21220278   7.005  -0.630   6.306  0.6029  0.4414  0.0359
  167DOPC  H12R20279   6.977  -0.662   6.409  1.0724 -0.3447 -0.0756
  167DOPC  H12S20280   7.036  -0.725   6.258  0.2286  0.6231 -0.5687
  167DOPC  C21320281   7.122  -0.531   6.308  0.2763  0.1529 -0.2841
  167DOPC  H13R20282   7.204  -0.576   6.369  0.5602  0.2236 -0.6069
  167DOPC  H13S20283   7.091  -0.439   6.362  1.0310  0.6525 -0.6770
  167DOPC  C21420284   7.172  -0.498   6.170  0.0318 -0.1809 -0.4979
  167DOPC  H14R20285   7.095  -0.446   6.110  0.9026 -0.6805 -2.0973
  167DOPC  H14S20286   7.195  -0.591   6.114 -0.2389 -0.0736 -0.7900
  167DOPC  C21520287   7.295  -0.408   6.166  0.2157 -0.1330 -0.0243
  167DOPC  H15R20288   7.321  -0.384   6.061 -0.3102 -0.6830 -0.2932
  167DOPC  H15S20289   7.380  -0.470   6.203  1.2093 -0.5101 -2.7156
  167DOPC  C21620290   7.272  -0.272   6.239  0.0052 -0.5096 -0.3845
  167DOPC  H16R20291   7.311  -0.287   6.342 -2.4853  0.1812  0.7131
  167DOPC  H16S20292   7.165  -0.245   6.237 -0.4927 -2.2333  0.4093
  167DOPC  C21720293   7.339  -0.158   6.165 -0.7133 -0.7300  0.3594
  167DOPC  H17R20294   7.310  -0.064   6.217 -2.4705 -0.9493 -0.1718
  167DOPC  H17S20295   7.303  -0.157   6.060  1.7391 -1.3787 -0.5664
  167DOPC  C21820296   7.493  -0.166   6.160 -0.5485 -0.3755  0.1763
  167DOPC  H18R20297   7.533  -0.068   6.129 -2.0501  0.6867  1.4007
  167DOPC  H18S20298   7.521  -0.245   6.088  1.1358  0.0706  0.3117
  167DOPC  H18T20299   7.517  -0.203   6.262 -2.2022  0.5327  0.9405
  167DOPC   C3320300   5.702  -0.104   6.527 -0.1548  0.3472  0.2693
  167DOPC   H3X20301   5.771  -0.024   6.560  0.4024 -0.6512  1.6219
  167DOPC   H3Y20302   5.597  -0.093   6.560 -1.1151 -3.5471 -0.8801
  167DOPC   C3420303   5.695  -0.135   6.372 -0.0875 -0.1689  0.0267
  167DOPC   H4X20304   5.617  -0.214   6.374 -0.6830  0.3583 -1.1947
  167DOPC   H4Y20305   5.794  -0.176   6.342 -0.1989 -0.3504 -0.0906
  167DOPC   C3520306   5.657  -0.009   6.288  0.0610 -0.3951  0.5107
  167DOPC   H5X20307   5.742   0.061   6.300  1.5011 -1.6801 -1.6582
  167DOPC   H5Y20308   5.568   0.037   6.336  0.2250 -0.5575  0.9757
  167DOPC   C3620309   5.655  -0.034   6.128  0.7549  0.4819 -0.5982
  167DOPC   H6X20310   5.737  -0.106   6.106 -1.4198 -1.6515 -2.1006
  167DOPC   H6Y20311   5.558  -0.086   6.118  0.3900  0.4409  2.3310
  167DOPC   C3720312   5.652   0.076   6.035 -0.1291 -0.5704 -0.3020
  167DOPC   H7X20313   5.565   0.145   6.048  0.2339 -0.1307 -0.1666
  167DOPC   H7Y20314   5.742   0.139   6.051  1.2434 -2.1652 -1.4302
  167DOPC   C3820315   5.659   0.021   5.884  0.3174  0.0850 -0.6841
  167DOPC   H8X20316   5.647   0.116   5.827 -2.5737  1.5357  2.0394
  167DOPC   H8Y20317   5.571  -0.045   5.869 -0.7034  1.6954 -2.0832
  167DOPC   C3920318   5.784  -0.058   5.861  0.8036  0.8239  0.0268
  167DOPC   H9X20319   5.799  -0.149   5.921 -0.2253  1.7534  1.7638
  167DOPC  C31020320   5.865  -0.048   5.753 -0.6668  0.7382 -0.8211
  167DOPC  H10X20321   5.940  -0.128   5.745 -1.0315 -0.0821  2.3874
  167DOPC  C31120322   5.842   0.037   5.630 -0.4752 -0.1396  0.1712
  167DOPC  H11X20323   5.734   0.036   5.606 -0.5310  2.1199  0.0589
  167DOPC  H11Y20324   5.887  -0.021   5.547  1.8797 -0.2430  1.4374
  167DOPC  C31220325   5.903   0.178   5.635 -0.6586  0.2900 -0.4252
  167DOPC  H12X20326   5.873   0.250   5.714  1.6347  0.3514  0.4586
  167DOPC  H12Y20327   5.860   0.227   5.545  1.2167  0.1198 -1.4725
  167DOPC  C31320328   6.056   0.173   5.627  0.0888 -0.7121 -0.1755
  167DOPC  H13X20329   6.095   0.118   5.715 -0.0518 -0.8396 -0.1924
  167DOPC  H13Y20330   6.097   0.137   5.530  0.9415 -0.3122  0.0293
  167DOPC  C31420331   6.100   0.318   5.659  0.4419 -0.2131  0.1612
  167DOPC  H14X20332   6.044   0.402   5.612  1.1852  0.2346  0.0585
  167DOPC  H14Y20333   6.087   0.328   5.769  0.9897 -0.7713  0.2793
  167DOPC  C31520334   6.248   0.340   5.641 -0.2906  0.4689  0.3756
  167DOPC  H15X20335   6.304   0.244   5.642  2.3459  1.9296  0.7627
  167DOPC  H15Y20336   6.280   0.407   5.724  0.5106  1.4858 -0.7225
  167DOPC  C31620337   6.290   0.416   5.513  0.1322  0.7947  0.5887
  167DOPC  H16X20338   6.239   0.515   5.514  2.5090  2.1254  0.2589
  167DOPC  H16Y20339   6.396   0.441   5.537  1.4699 -0.4970 -3.2479
  167DOPC  C31720340   6.291   0.346   5.376  0.3848 -0.7555  0.0359
  167DOPC  H17X20341   6.392   0.324   5.335 -0.2949 -1.4069 -1.3277
  167DOPC  H17Y20342   6.238   0.249   5.380  0.9007 -1.0253  0.6935
  167DOPC  C31820343   6.233   0.431   5.266 -0.6573 -0.0343  0.6771
  167DOPC  H18X20344   6.285   0.529   5.258  3.1352 -1.8486  0.7052
  167DOPC  H18Y20345   6.260   0.377   5.173  1.7781  0.0443  1.2481
  167DOPC  H18Z20346   6.122   0.433   5.269 -0.6608 -0.9037  2.2299
  168DOPC     N20347   2.640   7.005   7.547 -0.5695 -0.2884  0.3319
  168DOPC   C1220348   2.649   7.076   7.418 -0.3776 -0.4521 -0.9275
  168DOPC  H12A20349   2.602   7.011   7.345 -1.0696 -0.5744 -0.3787
  168DOPC  H12B20350   2.750   7.083   7.379  0.0516 -0.6695  0.1295
  168DOPC   C1320351   2.498   7.010   7.598 -0.6464  0.0762 -0.6410
  168DOPC  H13A20352   2.426   6.962   7.534 -1.5278  1.1926 -0.5281
  168DOPC  H13B20353   2.488   6.955   7.691 -0.5808  3.9862  1.9609
  168DOPC  H13C20354   2.464   7.110   7.625  0.3757  0.1951  0.2910
  168DOPC   C1420355   2.734   7.081   7.642  0.5921  0.0919 -0.1835
  168DOPC  H14A20356   2.704   7.184   7.655  0.8591  0.0836  0.5986
  168DOPC  H14B20357   2.721   7.039   7.741 -2.6155  1.3272  0.0383
  168DOPC  H14C20358   2.832   7.066   7.600 -0.1970 -1.6585 -1.5172
  168DOPC   C1520359   2.693   6.865   7.533 -0.2862 -0.3224 -0.2515
  168DOPC  H15A20360   2.787   6.866   7.481  0.5742 -4.3186  0.8992
  168DOPC  H15B20361   2.627   6.800   7.477 -2.1005  1.3545 -0.1707
  168DOPC  H15C20362   2.702   6.816   7.629 -1.1323 -2.2873 -1.1090
  168DOPC   C1120363   2.591   7.214   7.404 -0.1448  0.0867 -0.0601
  168DOPC  H11A20364   2.628   7.280   7.485  0.5707  1.1034 -1.1702
  168DOPC  H11B20365   2.623   7.247   7.303 -1.1980 -1.4424 -0.9470
  168DOPC     P20366   2.364   7.151   7.297  0.0365  0.2852 -0.1588
  168DOPC   O1320367   2.228   7.201   7.331 -0.0532  0.3657 -0.3322
  168DOPC   O1420368   2.379   7.007   7.295  0.0726 -0.0839  0.0205
  168DOPC   O1220369   2.448   7.207   7.414  0.2477  0.1960 -0.6546
  168DOPC   O1120370   2.413   7.209   7.159 -0.3482  0.1520  0.1075
  168DOPC    C120371   2.388   7.350   7.127 -0.7329 -0.4203  1.1495
  168DOPC    HA20372   2.435   7.412   7.206  0.3963  0.7258 -0.3540
  168DOPC    HB20373   2.280   7.373   7.129 -0.6826  1.0198 -2.7831
  168DOPC    C220374   2.446   7.381   6.987 -0.2938 -0.8747  1.2436
  168DOPC    HS20375   2.483   7.486   6.990  2.8697 -1.8304  0.0907
  168DOPC   O2120376   2.340   7.361   6.892 -0.1880  0.2914  0.0496
  168DOPC   C2120377   2.260   7.468   6.873  0.0620 -0.2312 -0.3277
  168DOPC   O2220378   2.283   7.580   6.913 -0.7260  0.3784 -0.6064
  168DOPC   C2220379   2.154   7.438   6.765 -1.1404  0.1972 -0.2484
  168DOPC   H2R20380   2.079   7.379   6.822 -0.7412 -2.1513 -2.0185
  168DOPC   H2S20381   2.209   7.374   6.693  0.2740 -1.0706  1.8313
  168DOPC    C320382   2.563   7.292   6.948  0.6269 -0.5331 -0.2627
  168DOPC    HX20383   2.529   7.188   6.929 -1.8189  0.3114 -0.8214
  168DOPC    HY20384   2.632   7.285   7.035 -0.6676 -0.4702  0.8041
  168DOPC   O3120385   2.633   7.354   6.842 -0.2299 -0.1765  0.1027
  168DOPC   C3120386   2.596   7.320   6.716  0.3259  0.0169  0.0561
  168DOPC   O3220387   2.524   7.224   6.694  0.3893 -0.0148  0.0235
  168DOPC   C3220388   2.658   7.411   6.611  0.0069  0.4505  0.3346
  168DOPC   H2X20389   2.736   7.473   6.659 -0.1241  1.3821 -0.6185
  168DOPC   H2Y20390   2.707   7.347   6.535  1.3675 -0.3680  1.8325
  168DOPC   C2320391   2.106   7.569   6.703  0.1254 -0.4547  0.0823
  168DOPC   H3R20392   2.189   7.621   6.650  0.4133 -2.1715 -1.2502
  168DOPC   H3S20393   2.078   7.645   6.780 -2.0199 -0.4225 -0.6575
  168DOPC   C2420394   1.982   7.556   6.616  0.6602  0.0454 -0.0771
  168DOPC   H4R20395   1.962   7.657   6.575 -1.3452  0.2338  1.2545
  168DOPC   H4S20396   1.905   7.514   6.683  0.8798  0.0774  0.1983
  168DOPC   C2520397   2.003   7.464   6.493 -0.5458 -0.0718  0.1667
  168DOPC   H5R20398   2.024   7.358   6.515  0.3936  0.1301  0.3167
  168DOPC   H5S20399   2.090   7.501   6.433 -2.3391  1.1466 -1.8274
  168DOPC   C2620400   1.882   7.464   6.397 -0.2438  0.2425 -0.2201
  168DOPC   H6R20401   1.846   7.570   6.398  2.4006  1.2382 -1.1920
  168DOPC   H6S20402   1.792   7.411   6.434  0.2736  0.0310  0.7515
  168DOPC   C2720403   1.921   7.422   6.252  0.4476 -0.6096  0.1421
  168DOPC   H7R20404   1.943   7.313   6.245 -0.9439 -0.8245 -3.3541
  168DOPC   H7S20405   2.003   7.490   6.221  1.4326 -2.5257 -1.7810
  168DOPC   C2820406   1.823   7.449   6.139  0.0521 -0.1200  0.7939
  168DOPC   H8R20407   1.875   7.437   6.042  1.4982  0.3411  1.4802
  168DOPC   H8S20408   1.808   7.559   6.147  0.9178 -0.0407  1.4581
  168DOPC   C2920409   1.687   7.385   6.145  0.1315  0.2943  0.4191
  168DOPC   H9R20410   1.641   7.375   6.245 -1.9872  3.5781 -0.0732
  168DOPC  C21020411   1.617   7.330   6.045  0.7352 -0.3286  0.4918
  168DOPC  H10R20412   1.516   7.287   6.058  0.4662  0.5341  1.3448
  168DOPC  C21120413   1.656   7.311   5.902 -0.0038  0.5057 -0.6035
  168DOPC  H11R20414   1.649   7.203   5.879 -0.9562  0.3951  0.1378
  168DOPC  H11S20415   1.760   7.348   5.888  0.2009 -0.0694 -0.6392
  168DOPC  C21220416   1.560   7.392   5.803 -0.7982  0.0254  0.0917
  168DOPC  H12R20417   1.548   7.497   5.836 -2.0327  0.1551 -0.6868
  168DOPC  H12S20418   1.459   7.347   5.815 -0.7475 -0.7320 -1.9618
  168DOPC  C21320419   1.606   7.384   5.660 -0.4653 -0.4640 -0.2902
  168DOPC  H13R20420   1.707   7.427   5.641  0.0752 -0.0561  2.9361
  168DOPC  H13S20421   1.529   7.423   5.591 -0.7635 -0.6069 -0.0368
  168DOPC  C21420422   1.603   7.233   5.616 -0.0037 -0.2831  0.1119
  168DOPC  H14R20423   1.502   7.187   5.629 -0.5948  0.4944 -1.5035
  168DOPC  H14S20424   1.670   7.174   5.682 -0.7933 -2.3536 -0.8542
  168DOPC  C21520425   1.644   7.214   5.467 -0.4929 -0.5018 -0.2169
  168DOPC  H15R20426   1.591   7.290   5.405 -1.9877 -2.3431 -1.3138
  168DOPC  H15S20427   1.602   7.117   5.434 -0.2759 -1.2574  1.6257
  168DOPC  C21620428   1.794   7.204   5.431  0.4736  0.3906 -0.2661
  168DOPC  H16R20429   1.824   7.288   5.497 -0.6736 -0.4902  1.4259
  168DOPC  H16S20430   1.817   7.217   5.323 -0.1203 -1.6612 -0.6909
  168DOPC  C21720431   1.867   7.072   5.481  0.3371  0.1439  0.1918
  168DOPC  H17R20432   1.806   6.983   5.453 -0.3881  0.0177  2.0433
  168DOPC  H17S20433   1.864   7.072   5.592 -0.9819 -2.6302  0.2258
  168DOPC  C21820434   2.009   7.068   5.431 -0.3407 -0.3777  0.0843
  168DOPC  H18R20435   2.014   7.028   5.328  2.2602  0.3649 -0.1705
  168DOPC  H18S20436   2.078   7.005   5.491 -0.5391 -0.4418  0.2446
  168DOPC  H18T20437   2.041   7.175   5.430 -1.9252  0.1864  2.2613
  168DOPC   C3320438   2.557   7.508   6.541 -0.8090 -0.2142 -0.2671
  168DOPC   H3X20439   2.462   7.458   6.511 -1.4986  1.9312 -1.8403
  168DOPC   H3Y20440   2.609   7.552   6.454  0.2132 -3.0880 -1.2187
  168DOPC   C3420441   2.512   7.628   6.624 -0.3378 -0.8315  0.0317
  168DOPC   H4X20442   2.587   7.644   6.705  1.0311 -0.4341 -1.2634
  168DOPC   H4Y20443   2.411   7.610   6.666  0.6995 -0.6309  2.8240
  168DOPC   C3520444   2.514   7.761   6.550  0.3794 -0.1396  0.7536
  168DOPC   H5X20445   2.605   7.768   6.487  1.1131  0.4842  1.8523
  168DOPC   H5Y20446   2.514   7.843   6.625  0.2464  0.3173  0.2589
  168DOPC   C3620447   2.389   7.787   6.459 -0.2702  0.7513 -0.1373
  168DOPC   H6X20448   2.298   7.766   6.519  0.0273 -0.2618 -0.0186
  168DOPC   H6Y20449   2.396   7.889   6.416 -0.9670  0.4701 -0.9405
  168DOPC   C3720450   2.380   7.690   6.331  0.0889 -0.3980 -0.2235
  168DOPC   H7X20451   2.481   7.661   6.295  0.6754  0.5004  0.6295
  168DOPC   H7Y20452   2.329   7.605   6.381 -1.3028  1.0299  0.9214
  168DOPC   C3820453   2.297   7.747   6.214 -1.0190  0.5774  0.5643
  168DOPC   H8X20454   2.363   7.826   6.172  0.6497 -0.8159  0.4503
  168DOPC   H8Y20455   2.198   7.784   6.246 -2.3459 -2.7112  0.6586
  168DOPC   C3920456   2.259   7.642   6.107 -0.5157  0.1721  0.7401
  168DOPC   H9X20457   2.168   7.586   6.132 -0.5867 -0.0435  0.0381
  168DOPC  C31020458   2.338   7.583   6.010  0.4018 -0.1879  0.1033
  168DOPC  H10X20459   2.315   7.494   5.949  0.3661  0.8068 -1.3900
  168DOPC  C31120460   2.485   7.611   5.981 -0.0522 -0.1210  0.0305
  168DOPC  H11X20461   2.551   7.538   6.033  2.3278  0.3878 -2.0551
  168DOPC  H11Y20462   2.520   7.712   6.014  0.7756 -0.9855  1.9410
  168DOPC  C31220463   2.525   7.605   5.833 -0.4832  0.8091  0.1863
  168DOPC  H12X20464   2.490   7.511   5.785  3.6822 -1.3103  0.8832
  168DOPC  H12Y20465   2.635   7.613   5.831 -0.5201  1.4640  0.6654
  168DOPC  C31320466   2.466   7.728   5.757 -0.1521 -0.1151  0.6399
  168DOPC  H13X20467   2.364   7.745   5.798 -0.4126  0.3218 -0.1806
  168DOPC  H13Y20468   2.528   7.816   5.786  1.7354 -1.0674 -0.3504
  168DOPC  C31420469   2.459   7.721   5.611 -0.1868  0.2459  0.1995
  168DOPC  H14X20470   2.565   7.715   5.578  0.6686  0.0968  2.7288
  168DOPC  H14Y20471   2.390   7.637   5.588 -2.9685  1.9606  1.6967
  168DOPC  C31520472   2.405   7.845   5.542  0.0727  0.5060 -0.4364
  168DOPC  H15X20473   2.458   7.941   5.558  0.2742  1.1404 -3.9831
  168DOPC  H15Y20474   2.297   7.860   5.563 -0.0900  1.4060 -1.7643
  168DOPC  C31620475   2.417   7.822   5.388 -0.2852  0.1415 -0.0569
  168DOPC  H16X20476   2.518   7.788   5.357  0.7176  1.7016  1.3030
  168DOPC  H16Y20477   2.349   7.737   5.370  1.8305 -1.5843 -0.3486
  168DOPC  C31720478   2.368   7.937   5.302  0.1984  0.1867 -0.0190
  168DOPC  H17X20479   2.267   7.977   5.323  0.8064  3.3496 -2.3722
  168DOPC  H17Y20480   2.440   8.020   5.316  0.6991 -0.5840  2.4019
  168DOPC  C31820481   2.373   7.908   5.150  0.1986 -0.5469 -0.2846
  168DOPC  H18X20482   2.311   7.820   5.122  0.9673 -1.3448  0.5110
  168DOPC  H18Y20483   2.350   7.996   5.085 -0.9756  0.2585  1.1511
  168DOPC  H18Z20484   2.478   7.878   5.135 -0.3778 -1.7285 -2.2435
  169DOPC     N20485   7.283   1.031   6.990 -1.0235  0.1981 -0.2643
  169DOPC   C1220486   7.369   1.107   6.887 -0.2131  0.0041 -0.5617
  169DOPC  H12A20487   7.406   1.039   6.812  0.4210 -1.5997  1.1142
  169DOPC  H12B20488   7.461   1.135   6.936 -1.0585  0.6035  0.7332
  169DOPC   C1320489   7.358   0.914   7.049  0.7319 -0.6009 -0.2744
  169DOPC  H13A20490   7.454   0.944   7.089  0.7653 -0.9134 -0.1116
  169DOPC  H13B20491   7.298   0.859   7.120  1.4176 -0.2613  0.6011
  169DOPC  H13C20492   7.384   0.850   6.966 -2.0063 -1.5196 -0.5113
  169DOPC   C1420493   7.164   0.968   6.923  0.5037 -0.1759  0.3685
  169DOPC  H14A20494   7.207   0.890   6.862 -1.1658 -0.6576 -0.2588
  169DOPC  H14B20495   7.105   0.916   6.998  0.3554 -0.4590  0.0616
  169DOPC  H14C20496   7.088   1.026   6.873  2.5522  2.1323 -0.2471
  169DOPC   C1520497   7.230   1.124   7.098  0.1599 -0.5190  0.4880
  169DOPC  H15A20498   7.196   1.210   7.042  0.2702 -0.2901  0.7676
  169DOPC  H15B20499   7.305   1.163   7.166  0.8002 -1.3028  0.2521
  169DOPC  H15C20500   7.149   1.083   7.156 -1.6769  2.7845  0.5160
  169DOPC   C1120501   7.321   1.240   6.816  0.1953  0.7807 -0.3020
  169DOPC  H11A20502   7.379   1.264   6.723 -0.9743  1.8737 -0.7720
  169DOPC  H11B20503   7.214   1.226   6.790 -0.3208 -1.8073  2.6350
  169DOPC     P20504   7.460   1.419   6.949  0.3019  0.1770 -0.2372
  169DOPC   O1320505   7.545   1.318   7.020  0.0679 -0.1062  0.0401
  169DOPC   O1420506   7.433   1.542   7.024  0.0443 -0.1560 -0.0917
  169DOPC   O1220507   7.323   1.358   6.899 -0.5581 -0.1719 -0.2450
  169DOPC   O1120508   7.525   1.461   6.815  0.0498 -0.7959 -0.6910
  169DOPC    C120509   7.468   1.553   6.723 -0.1429 -0.3134  0.2828
  169DOPC    HA20510   7.440   1.653   6.763 -0.1333  0.5991 -1.8651
  169DOPC    HB20511   7.380   1.498   6.683  2.1822 -1.6463 -3.5057
  169DOPC    C220512   7.577   1.578   6.617 -0.9112 -0.3391  0.8645
  169DOPC    HS20513   7.534   1.661   6.557  2.4676  2.1735  1.5955
  169DOPC   O2120514   7.624   1.459   6.557 -0.3323 -0.5120 -0.5856
  169DOPC   C2120515   7.534   1.404   6.475 -0.2063 -0.0616 -0.6519
  169DOPC   O2220516   7.424   1.453   6.450 -0.2841  0.6553  0.8139
  169DOPC   C2220517   7.594   1.275   6.415  0.2961 -0.4525  0.2839
  169DOPC   H2R20518   7.532   1.193   6.458  2.8505 -1.7363  1.7856
  169DOPC   H2S20519   7.700   1.266   6.448  1.4678 -1.2582 -3.3391
  169DOPC    C320520   7.699   1.640   6.689 -0.1327  0.9265 -0.5740
  169DOPC    HX20521   7.743   1.562   6.754 -3.3437  1.0513  2.0198
  169DOPC    HY20522   7.663   1.712   6.767  0.9370 -0.9193  1.7393
  169DOPC   O3120523   7.796   1.706   6.609 -0.0365  0.9378 -0.4490
  169DOPC   C3120524   7.892   1.629   6.567 -0.4825  0.4266 -0.1051
  169DOPC   O3220525   7.917   1.513   6.592  0.0474 -0.0161  0.1145
  169DOPC   C3220526   7.958   1.697   6.451  0.2001 -0.1400  0.2512
  169DOPC   H2X20527   8.060   1.655   6.439 -0.4197 -1.3739 -1.1056
  169DOPC   H2Y20528   7.907   1.679   6.354  1.1524 -1.4944 -0.0375
  169DOPC   C2320529   7.597   1.274   6.261 -0.3431 -0.2688  0.1190
  169DOPC   H3R20530   7.672   1.346   6.221 -1.3252  0.7521  0.0511
  169DOPC   H3S20531   7.494   1.300   6.228 -0.8115  1.7966  2.8241
  169DOPC   C2420532   7.632   1.137   6.202 -0.0253  0.0711 -0.0103
  169DOPC   H4R20533   7.736   1.108   6.228  0.9486  2.3008 -1.1653
  169DOPC   H4S20534   7.617   1.142   6.092 -1.0410  2.7259  0.1685
  169DOPC   C2520535   7.541   1.019   6.252  0.4876 -0.3677 -0.6738
  169DOPC   H5R20536   7.434   1.047   6.237  0.1525 -1.7674 -1.0069
  169DOPC   H5S20537   7.561   0.998   6.359 -0.2165 -1.4683 -0.7442
  169DOPC   C2620538   7.559   0.885   6.175  0.0749  0.5621  0.4407
  169DOPC   H6R20539   7.667   0.860   6.185 -0.0999  0.3288  1.9777
  169DOPC   H6S20540   7.520   0.898   6.072 -1.6370 -2.1011  0.6639
  169DOPC   C2720541   7.480   0.772   6.240 -0.1444  0.0987 -0.0789
  169DOPC   H7R20542   7.458   0.698   6.159  1.6931 -0.3321 -0.2336
  169DOPC   H7S20543   7.384   0.811   6.279  0.5395 -0.4347  2.2708
  169DOPC   C2820544   7.546   0.706   6.364 -0.6109 -0.1741  0.2127
  169DOPC   H8R20545   7.569   0.780   6.445  1.8064 -1.3320  0.6816
  169DOPC   H8S20546   7.646   0.680   6.323 -0.6890 -0.7902  0.3973
  169DOPC   C2920547   7.468   0.589   6.414  0.7117  0.6170  0.0107
  169DOPC   H9R20548   7.412   0.602   6.508  0.7674 -0.3307  0.1862
  169DOPC  C21020549   7.472   0.466   6.361  0.2183  0.4362  0.8878
  169DOPC  H10R20550   7.418   0.385   6.413 -0.3873  1.2462  1.5494
  169DOPC  C21120551   7.562   0.429   6.244  0.3649 -0.0504 -0.1703
  169DOPC  H11R20552   7.632   0.350   6.278  0.7126  0.3465  0.0470
  169DOPC  H11S20553   7.631   0.509   6.210  1.4338 -0.9694 -0.1835
  169DOPC  C21220554   7.480   0.382   6.118 -0.3334 -0.0494 -0.1789
  169DOPC  H12R20555   7.394   0.450   6.102  0.5366  0.5974 -2.4985
  169DOPC  H12S20556   7.451   0.276   6.133  0.9687 -0.3935 -0.0217
  169DOPC  C21320557   7.583   0.383   5.999 -0.4209  0.0566 -0.7620
  169DOPC  H13R20558   7.660   0.311   6.034 -0.1324  0.7247  0.0285
  169DOPC  H13S20559   7.630   0.483   5.992 -0.4497  0.1229 -0.1293
  169DOPC  C21420560   7.525   0.322   5.865 -0.2466 -0.7054  0.4610
  169DOPC  H14R20561   7.471   0.406   5.816  1.4443  0.0039 -0.2670
  169DOPC  H14S20562   7.464   0.231   5.883 -2.6401  1.0610  1.9178
  169DOPC  C21520563   7.647   0.280   5.779  0.1715  0.4491 -0.5096
  169DOPC  H15R20564   7.695   0.202   5.842  2.5847  3.2105  1.3501
  169DOPC  H15S20565   7.717   0.366   5.770 -0.0723  0.7238  0.1445
  169DOPC  C21620566   7.608   0.222   5.645 -0.6326  0.8224  0.2250
  169DOPC  H16R20567   7.572   0.300   5.573 -3.2576 -1.0830 -0.6685
  169DOPC  H16S20568   7.518   0.161   5.666 -0.9039  0.6331 -1.3736
  169DOPC  C21720569   7.723   0.146   5.575  0.1700  0.1896 -0.0568
  169DOPC  H17R20570   7.775   0.075   5.643  0.6974  0.4548 -0.1782
  169DOPC  H17S20571   7.795   0.228   5.553 -1.7069  1.7214 -0.6665
  169DOPC  C21820572   7.698   0.088   5.435  0.4674  0.0141 -0.2288
  169DOPC  H18R20573   7.640  -0.007   5.438  2.3934 -1.2885 -1.4993
  169DOPC  H18S20574   7.797   0.052   5.398 -0.5749 -2.9535 -0.4502
  169DOPC  H18T20575   7.660   0.163   5.363  2.8109  1.8984  0.3687
  169DOPC   C3320576   7.975   1.845   6.463 -0.8195 -0.9043  0.1159
  169DOPC   H3X20577   7.996   1.869   6.569 -1.4295  0.0691  0.0258
  169DOPC   H3Y20578   7.873   1.887   6.451 -0.4808  0.3875  1.5097
  169DOPC   C3420579   8.088   1.908   6.375 -0.1885  0.4413 -0.1221
  169DOPC   H4X20580   8.181   1.858   6.410 -1.0269 -1.8657 -0.9768
  169DOPC   H4Y20581   8.093   2.019   6.380 -3.8835  0.8139 -1.3356
  169DOPC   C3520582   8.073   1.866   6.223  0.9610 -0.1383 -0.3472
  169DOPC   H5X20583   7.969   1.890   6.194 -0.0598 -0.7627  2.4606
  169DOPC   H5Y20584   8.081   1.756   6.209  0.2044 -0.6743  2.7323
  169DOPC   C3620585   8.163   1.952   6.135 -0.7273 -1.5193  0.7169
  169DOPC   H6X20586   8.152   2.059   6.162 -0.8549 -1.4639  0.4510
  169DOPC   H6Y20587   8.267   1.915   6.151 -0.4068 -1.6075 -1.2461
  169DOPC   C3720588   8.131   1.930   5.986 -0.5170  0.0706 -0.7728
  169DOPC   H7X20589   8.135   1.821   5.962  0.7166  0.5446 -2.9800
  169DOPC   H7Y20590   8.030   1.962   5.954 -0.6918  1.9339  1.3644
  169DOPC   C3820591   8.238   1.987   5.879 -0.1789 -0.6811 -0.0739
  169DOPC   H8X20592   8.213   1.939   5.782  0.9557 -2.4996  0.4736
  169DOPC   H8Y20593   8.341   1.967   5.916  0.9211  1.7024 -1.5823
  169DOPC   C3920594   8.238   2.140   5.869 -0.6276  0.2727 -0.1703
  169DOPC   H9X20595   8.224   2.191   5.966  0.7410  0.9923 -0.3263
  169DOPC  C31020596   8.242   2.214   5.756 -0.2355  0.4451 -0.7432
  169DOPC  H10X20597   8.230   2.323   5.764 -0.7986  0.6853 -3.6589
  169DOPC  C31120598   8.265   2.171   5.614  0.1285  0.5843 -0.2043
  169DOPC  H11X20599   8.211   2.076   5.593  0.6805  0.8375 -3.1251
  169DOPC  H11Y20600   8.374   2.156   5.600 -0.0954 -0.6141 -0.7405
  169DOPC  C31220601   8.216   2.283   5.519 -0.6761  0.9180 -0.1841
  169DOPC  H12X20602   8.269   2.379   5.535 -1.7408  1.5402 -0.2923
  169DOPC  H12Y20603   8.111   2.311   5.542 -0.3530  1.5974  0.4943
  169DOPC  C31320604   8.230   2.231   5.380  0.0262 -0.0297  0.7937
  169DOPC  H13X20605   8.338   2.221   5.360  0.3865  1.2665  1.9517
  169DOPC  H13Y20606   8.173   2.138   5.359  1.9833 -1.6144  2.2199
  169DOPC  C31420607   8.189   2.330   5.275  0.4389 -0.5398  0.1961
  169DOPC  H14X20608   8.088   2.368   5.300 -1.6156 -4.5547 -1.1354
  169DOPC  H14Y20609   8.260   2.415   5.291  0.6982 -1.0237  1.7820
  169DOPC  C31520610   8.188   2.291   5.130 -0.4424 -0.1051  0.5029
  169DOPC  H15X20611   8.115   2.211   5.106  0.9079 -0.9902 -0.7625
  169DOPC  H15Y20612   8.287   2.243   5.118 -0.1163  0.2781  1.5480
  169DOPC  C31620613   8.178   2.410   5.035  0.3436  0.9484 -0.0656
  169DOPC  H16X20614   8.077   2.457   5.036  0.5590  1.4046  0.6302
  169DOPC  H16Y20615   8.255   2.486   5.058 -1.0462  2.7773 -1.1752
  169DOPC  C31720616   8.202   2.368   4.893  0.0202  0.3380 -0.2608
  169DOPC  H17X20617   8.312   2.355   4.883 -0.1540 -0.3240 -1.5941
  169DOPC  H17Y20618   8.162   2.269   4.862  2.7619 -1.5167  1.6764
  169DOPC  C31820619   8.171   2.466   4.789  1.1258  0.0022  0.0672
  169DOPC  H18X20620   8.224   2.563   4.793  0.0385  0.5578  1.9002
  169DOPC  H18Y20621   8.189   2.418   4.690 -1.9728  0.0987 -0.6806
  169DOPC  H18Z20622   8.063   2.491   4.798  0.9153 -0.6795 -0.4214
  170DOPC     N20623   7.343   6.852   7.160  0.8874 -0.0982 -0.4903
  170DOPC   C1220624   7.452   6.812   7.064 -0.3638  0.1349  0.2661
  170DOPC  H12A20625   7.474   6.707   7.074 -0.9211 -0.0082  0.0531
  170DOPC  H12B20626   7.543   6.860   7.095 -0.5728  2.2405 -2.0216
  170DOPC   C1320627   7.228   6.751   7.146  0.4400 -0.0806  0.1785
  170DOPC  H13A20628   7.247   6.645   7.153 -2.7805 -0.8431 -0.8142
  170DOPC  H13B20629   7.153   6.780   7.218  0.4121 -0.4500  0.3009
  170DOPC  H13C20630   7.187   6.764   7.047 -1.2219  1.6737  1.0311
  170DOPC   C1420631   7.277   6.987   7.121 -0.6755  0.5761 -0.3946
  170DOPC  H14A20632   7.344   7.066   7.092 -1.3761  1.8633  1.3467
  170DOPC  H14B20633   7.202   6.975   7.044  0.0127  0.4236 -1.0515
  170DOPC  H14C20634   7.220   7.020   7.207  1.6711  0.6903  1.2054
  170DOPC   C1520635   7.387   6.839   7.304  0.3831 -0.1331 -0.2341
  170DOPC  H15A20636   7.463   6.912   7.326  1.5672 -1.5754  0.6299
  170DOPC  H15B20637   7.435   6.743   7.317  1.8970  0.7956  1.3244
  170DOPC  H15C20638   7.309   6.852   7.377  1.5928  0.9820  0.8936
  170DOPC   C1120639   7.432   6.841   6.912  0.1712  0.1967  0.5680
  170DOPC  H11A20640   7.430   6.950   6.890 -1.2459  0.0667 -0.1074
  170DOPC  H11B20641   7.523   6.801   6.862 -0.9908 -2.9894  0.8026
  170DOPC     P20642   7.332   6.632   6.795  0.4287 -0.3801  0.1236
  170DOPC   O1320643   7.198   6.579   6.758  0.5753  0.0044  0.2007
  170DOPC   O1420644   7.418   6.547   6.881  0.4179 -0.5117  0.1839
  170DOPC   O1220645   7.319   6.780   6.854 -0.2825  0.2728  0.4911
  170DOPC   O1120646   7.418   6.643   6.657  0.0071  0.1559  0.2768
  170DOPC    C120647   7.376   6.746   6.565  0.4244  0.1201 -0.8006
  170DOPC    HA20648   7.390   6.839   6.625  0.1089 -0.4659  0.2037
  170DOPC    HB20649   7.266   6.742   6.550  0.0862  0.5746  1.2681
  170DOPC    C220650   7.469   6.751   6.444 -0.1585 -0.1630  0.5387
  170DOPC    HS20651   7.439   6.840   6.386  1.0866  0.1767  0.3869
  170DOPC   O2120652   7.456   6.622   6.377 -0.2028  0.0576 -0.1404
  170DOPC   C2120653   7.352   6.619   6.292 -0.1203 -0.5226 -0.2803
  170DOPC   O2220654   7.278   6.716   6.270  0.1328  0.3932 -0.2125
  170DOPC   C2220655   7.330   6.475   6.226  0.0282 -0.0120  0.2224
  170DOPC   H2R20656   7.308   6.400   6.305  1.5287 -1.6821 -0.8708
  170DOPC   H2S20657   7.428   6.462   6.176 -0.4057  0.0005 -0.6643
  170DOPC    C320658   7.615   6.784   6.479 -0.4475 -0.5940 -0.1888
  170DOPC    HX20659   7.669   6.700   6.528  0.6096  0.2265  0.0829
  170DOPC    HY20660   7.621   6.871   6.547 -1.0615  0.5372 -1.5340
  170DOPC   O3120661   7.689   6.803   6.356 -0.0792 -0.5287  0.6977
  170DOPC   C3120662   7.741   6.926   6.323 -0.1217  0.1160 -0.7042
  170DOPC   O3220663   7.745   7.023   6.404 -0.1479  0.6018  0.2494
  170DOPC   C3220664   7.779   6.929   6.175  0.2061 -0.1367 -0.5273
  170DOPC   H2X20665   7.863   7.001   6.159 -0.8408  0.8730 -1.7263
  170DOPC   H2Y20666   7.813   6.826   6.151 -0.8083 -0.2710 -1.4626
  170DOPC   C2320667   7.221   6.483   6.126  0.0103 -0.1303 -0.2315
  170DOPC   H3R20668   7.255   6.543   6.039 -0.1155  3.3977  1.9434
  170DOPC   H3S20669   7.129   6.530   6.166  0.2963  0.0386  0.2280
  170DOPC   C2420670   7.188   6.346   6.063  0.0651 -0.5070  0.4305
  170DOPC   H4R20671   7.139   6.281   6.138 -1.6423  0.8653  0.5678
  170DOPC   H4S20672   7.285   6.298   6.035 -0.9611 -1.8649 -0.9385
  170DOPC   C2520673   7.085   6.355   5.947 -0.2409 -0.0312 -0.0116
  170DOPC   H5R20674   7.135   6.407   5.862 -0.1610  0.9802  0.6415
  170DOPC   H5S20675   6.995   6.415   5.976 -0.4357  0.6411 -1.8277
  170DOPC   C2620676   7.039   6.223   5.892  0.0152  0.8258 -0.0493
  170DOPC   H6R20677   7.121   6.149   5.893  2.1590  3.0732  0.6464
  170DOPC   H6S20678   7.022   6.238   5.783  1.9789  0.0911 -0.4874
  170DOPC   C2720679   6.899   6.181   5.957 -0.5980 -0.1017  0.2703
  170DOPC   H7R20680   6.826   6.263   5.937  1.7012  1.8151 -0.7583
  170DOPC   H7S20681   6.904   6.173   6.068  0.3125  0.9439  0.3172
  170DOPC   C2820682   6.859   6.051   5.898 -0.0440  0.1673  0.2579
  170DOPC   H8R20683   6.950   5.988   5.907 -0.0328 -0.0418 -1.1959
  170DOPC   H8S20684   6.828   6.052   5.792  0.4937 -0.7040  0.0794
  170DOPC   C2920685   6.752   5.993   5.989 -0.0323 -0.0488  0.6600
  170DOPC   H9R20686   6.803   5.954   6.078  1.7756 -1.5357 -0.9268
  170DOPC  C21020687   6.620   5.979   5.976  0.2816 -0.0385 -0.1790
  170DOPC  H10R20688   6.556   5.923   6.046 -2.0908  0.7306 -1.6273
  170DOPC  C21120689   6.540   5.999   5.850 -0.2858  0.2262  0.2019
  170DOPC  H11R20690   6.602   6.059   5.779  0.6954  0.3393  1.1218
  170DOPC  H11S20691   6.448   6.055   5.876  0.0148  0.2352  1.3031
  170DOPC  C21220692   6.487   5.868   5.789  0.6499 -0.2963 -0.4766
  170DOPC  H12R20693   6.579   5.818   5.754 -0.2005 -1.8054 -0.6439
  170DOPC  H12S20694   6.433   5.900   5.697  1.0305 -2.2843 -1.4370
  170DOPC  C21320695   6.396   5.776   5.869 -0.1854  0.3376  0.0613
  170DOPC  H13R20696   6.310   5.833   5.909  0.1142  1.3280 -0.6630
  170DOPC  H13S20697   6.451   5.729   5.953  0.9773  3.4107  1.1720
  170DOPC  C21420698   6.344   5.661   5.776 -0.4825  0.1865  0.5568
  170DOPC  H14R20699   6.296   5.704   5.686 -2.1884 -2.2422  0.1777
  170DOPC  H14S20700   6.260   5.612   5.831  1.0481 -1.7779  1.2703
  170DOPC  C21520701   6.450   5.560   5.740  0.6784  0.1841  0.3855
  170DOPC  H15R20702   6.490   5.505   5.828  0.7236 -1.0479 -0.3885
  170DOPC  H15S20703   6.526   5.619   5.686 -1.3788  0.9167 -1.8864
  170DOPC  C21620704   6.397   5.456   5.642 -0.4376 -0.0743 -0.3427
  170DOPC  H16R20705   6.355   5.510   5.554 -2.2619 -2.2570 -0.8942
  170DOPC  H16S20706   6.308   5.408   5.686 -1.7242  0.8612 -1.8239
  170DOPC  C21720707   6.498   5.352   5.603 -0.6843 -0.0385  0.1916
  170DOPC  H17R20708   6.438   5.269   5.560 -1.4832 -0.4609  2.0597
  170DOPC  H17S20709   6.539   5.306   5.695 -1.5000 -1.1559  0.0098
  170DOPC  C21820710   6.606   5.392   5.501  0.1920 -0.0055 -0.0667
  170DOPC  H18R20711   6.575   5.425   5.400  0.1173  0.3255  0.0615
  170DOPC  H18S20712   6.688   5.318   5.488  0.4635  0.4550 -0.9937
  170DOPC  H18T20713   6.646   5.489   5.536 -0.4371  0.6303 -1.0545
  170DOPC   C3320714   7.651   6.955   6.098  0.3905  0.2306  0.1385
  170DOPC   H3X20715   7.609   7.054   6.123  0.1703 -0.3918  2.4428
  170DOPC   H3Y20716   7.572   6.881   6.125  0.5916  0.2561  0.8216
  170DOPC   C3420717   7.676   6.952   5.950 -0.4337 -0.0304  0.9333
  170DOPC   H4X20718   7.710   6.853   5.911  0.4816  0.2934  0.8942
  170DOPC   H4Y20719   7.762   7.018   5.925 -2.0740  1.8199 -0.0936
  170DOPC   C3520720   7.547   6.997   5.877  0.0044  0.4995  0.6332
  170DOPC   H5X20721   7.581   7.017   5.773 -0.2985  1.7674  0.7611
  170DOPC   H5Y20722   7.523   7.094   5.925  1.4044 -0.0711  2.6197
  170DOPC   C3620723   7.435   6.895   5.871 -0.0767  0.2053 -0.3363
  170DOPC   H6X20724   7.464   6.799   5.823 -0.6074 -0.7001  1.0871
  170DOPC   H6Y20725   7.407   6.870   5.975  0.1119  2.5472  0.3206
  170DOPC   C3720726   7.303   6.953   5.818  0.3901  0.6988  0.6073
  170DOPC   H7X20727   7.298   7.060   5.848 -1.6150  1.1026 -0.9947
  170DOPC   H7Y20728   7.296   6.967   5.708  0.5957  0.1881  0.5265
  170DOPC   C3820729   7.173   6.885   5.858  0.1473  0.2492 -0.5419
  170DOPC   H8X20730   7.168   6.865   5.968  2.5264  0.7951 -0.2697
  170DOPC   H8Y20731   7.162   6.790   5.801 -0.3948  0.5003 -0.8605
  170DOPC   C3920732   7.067   6.969   5.806 -0.1647  0.5133 -0.3589
  170DOPC   H9X20733   7.068   7.070   5.850  2.7972  0.4375 -0.0718
  170DOPC  C31020734   6.987   6.952   5.695  0.1106 -0.0683  0.5326
  170DOPC  H10X20735   6.903   7.020   5.671 -2.0770 -1.9994  2.2477
  170DOPC  C31120736   7.003   6.831   5.607 -0.6815  0.1548 -0.2992
  170DOPC  H11X20737   6.996   6.741   5.672 -2.6597  2.2751  2.7007
  170DOPC  H11Y20738   7.100   6.839   5.554 -1.0419  2.5834 -0.7360
  170DOPC  C31220739   6.892   6.828   5.498  0.2121  0.5915 -0.0341
  170DOPC  H12X20740   6.795   6.810   5.548  0.0972  1.6461  0.1443
  170DOPC  H12Y20741   6.899   6.737   5.436 -0.8860  0.7431 -0.3966
  170DOPC  C31320742   6.894   6.953   5.408 -0.2605  0.3178 -0.3052
  170DOPC  H13X20743   6.893   7.048   5.467 -0.5796  0.1798 -0.0841
  170DOPC  H13Y20744   6.986   6.947   5.346 -1.3704  0.7482 -2.0502
  170DOPC  C31420745   6.777   6.961   5.308 -0.7823 -0.4527  0.0528
  170DOPC  H14X20746   6.680   6.957   5.362 -0.2860 -0.5019  0.9618
  170DOPC  H14Y20747   6.788   7.051   5.244  1.5938 -0.4094  0.4232
  170DOPC  C31520748   6.779   6.841   5.205 -0.1648 -0.2754  0.4093
  170DOPC  H15X20749   6.795   6.740   5.249 -0.0143 -0.0584  0.8509
  170DOPC  H15Y20750   6.867   6.857   5.139  0.1572  2.1348  1.3236
  170DOPC  C31620751   6.650   6.829   5.116 -0.2302 -0.8910  0.1540
  170DOPC  H16X20752   6.587   6.767   5.183 -1.1267  1.4092  1.5611
  170DOPC  H16Y20753   6.604   6.929   5.098  0.7545 -0.2863  0.8902
  170DOPC  C31720754   6.685   6.758   4.990  0.1792  0.4427 -0.1169
  170DOPC  H17X20755   6.764   6.816   4.937  1.4627  0.0717  1.3211
  170DOPC  H17Y20756   6.730   6.658   5.014 -1.0158  0.3664  2.0047
  170DOPC  C31820757   6.573   6.745   4.894 -0.3823 -0.1629  0.0430
  170DOPC  H18X20758   6.506   6.834   4.895 -0.7929 -0.4712  0.0100
  170DOPC  H18Y20759   6.609   6.725   4.790 -0.3294 -0.2368  0.0753
  170DOPC  H18Z20760   6.502   6.663   4.914 -2.4945  1.6063  0.1530
  171DOPC     N20761   4.364   3.051   2.411  0.2408  0.1267  0.5415
  171DOPC   C1220762   4.359   2.896   2.409  0.0421 -0.4873 -0.0931
  171DOPC  H12A20763   4.384   2.859   2.311 -2.9278  1.1865 -1.6147
  171DOPC  H12B20764   4.255   2.870   2.421  0.1148 -0.4411  0.6956
  171DOPC   C1320765   4.331   3.097   2.546 -0.0524  0.8418  0.0148
  171DOPC  H13A20766   4.336   3.205   2.550  0.9130  0.7925  0.3571
  171DOPC  H13B20767   4.235   3.063   2.585  1.5570 -2.9137  1.2090
  171DOPC  H13C20768   4.411   3.062   2.610  0.0364  0.5658 -0.2483
  171DOPC   C1420769   4.272   3.104   2.305  0.6568  0.4619  0.5820
  171DOPC  H14A20770   4.244   3.208   2.310 -1.3303  0.1522 -1.9498
  171DOPC  H14B20771   4.313   3.073   2.210 -1.4990 -2.1499  0.3699
  171DOPC  H14C20772   4.179   3.050   2.307  1.1166 -1.1362 -4.6785
  171DOPC   C1520773   4.515   3.089   2.389  0.5462 -1.1512  0.3918
  171DOPC  H15A20774   4.538   3.192   2.414 -0.3364 -0.5275 -1.1873
  171DOPC  H15B20775   4.536   3.067   2.285 -1.6065  1.8073 -0.8373
  171DOPC  H15C20776   4.575   3.023   2.449 -0.2787 -0.5710  1.9173
  171DOPC   C1120777   4.444   2.810   2.507 -0.1091 -0.3787 -0.1885
  171DOPC  H11A20778   4.405   2.837   2.607  1.0808  2.4173 -0.3718
  171DOPC  H11B20779   4.423   2.702   2.498 -0.7044 -0.2729 -0.1063
  171DOPC     P20780   4.677   2.853   2.611  0.2653 -0.0195  0.1805
  171DOPC   O1320781   4.623   2.976   2.680 -0.0893  0.4373 -0.1432
  171DOPC   O1420782   4.812   2.860   2.556 -0.0469  0.0016  0.2464
  171DOPC   O1220783   4.584   2.838   2.481 -0.3661 -0.3691 -0.6008
  171DOPC   O1120784   4.648   2.720   2.699 -0.5810  0.1379  0.1837
  171DOPC    C120785   4.582   2.705   2.824 -0.1675  0.0319  0.0014
  171DOPC    HA20786   4.593   2.599   2.857 -1.7355  0.1584  1.0254
  171DOPC    HB20787   4.473   2.712   2.808 -0.1425 -1.4856 -0.9889
  171DOPC    C220788   4.645   2.793   2.939  0.1579  0.3976 -0.2614
  171DOPC    HS20789   4.644   2.901   2.915 -0.4847  0.0625 -1.8275
  171DOPC   O2120790   4.785   2.741   2.951 -0.0477  0.2315  0.7490
  171DOPC   C2120791   4.873   2.822   3.008 -0.6355  0.4970  0.0100
  171DOPC   O2220792   4.853   2.929   3.060 -0.1038  0.2382  0.1936
  171DOPC   C2220793   5.013   2.749   3.005  0.1554 -0.4907  0.2199
  171DOPC   H2R20794   5.038   2.753   2.897 -2.4183  1.0253 -0.4202
  171DOPC   H2S20795   4.996   2.641   3.027  0.1894 -0.3189  1.1487
  171DOPC    C320796   4.550   2.753   3.050  0.2803 -0.2288 -0.7108
  171DOPC    HX20797   4.526   2.646   3.065  2.5744 -0.6242  0.6685
  171DOPC    HY20798   4.453   2.798   3.020  0.8349  2.0910  0.6884
  171DOPC   O3120799   4.596   2.803   3.174  0.0623  0.6486 -0.0191
  171DOPC   C3120800   4.585   2.938   3.207  0.9972  0.0759 -0.1395
  171DOPC   O3220801   4.502   3.005   3.145 -0.7069  0.1423  0.0009
  171DOPC   C3220802   4.688   2.979   3.317  0.0559  0.4840 -0.5563
  171DOPC   H2X20803   4.773   2.907   3.312  2.1823  2.5620  2.0175
  171DOPC   H2Y20804   4.721   3.080   3.284 -0.5709  0.5885 -0.8613
  171DOPC   C2320805   5.118   2.822   3.093 -0.6602  0.0695  0.4091
  171DOPC   H3R20806   5.131   2.932   3.084 -0.9161 -0.0408 -1.9988
  171DOPC   H3S20807   5.213   2.777   3.056 -0.0639 -0.9491  2.9762
  171DOPC   C2420808   5.103   2.784   3.248 -0.6084  0.2581  0.9533
  171DOPC   H4R20809   5.098   2.673   3.250 -0.4562  0.2418  0.6111
  171DOPC   H4S20810   4.997   2.804   3.270 -1.3074 -0.5922 -1.2839
  171DOPC   C2520811   5.208   2.847   3.337 -0.7121 -0.8712  0.0079
  171DOPC   H5R20812   5.207   2.958   3.340 -0.3512 -0.7917 -1.7143
  171DOPC   H5S20813   5.306   2.813   3.299  0.3392  2.0240 -0.0790
  171DOPC   C2620814   5.189   2.799   3.474 -0.2774 -0.0649 -0.0870
  171DOPC   H6R20815   5.221   2.694   3.492  0.5779  0.2338  0.1446
  171DOPC   H6S20816   5.079   2.806   3.491 -0.8708  0.2583 -3.3435
  171DOPC   C2720817   5.254   2.890   3.582  0.4680  0.1346  0.2446
  171DOPC   H7R20818   5.226   2.993   3.552 -1.0162 -0.5160 -0.6976
  171DOPC   H7S20819   5.365   2.884   3.583  0.4199 -0.9637  0.9356
  171DOPC   C2820820   5.204   2.874   3.725  0.4974 -0.0254 -0.1892
  171DOPC   H8R20821   5.229   2.768   3.745  1.6340  0.4956  1.3258
  171DOPC   H8S20822   5.093   2.882   3.729  0.5307  0.6605 -0.4650
  171DOPC   C2920823   5.271   2.968   3.822  0.2435 -0.3729 -0.5305
  171DOPC   H9R20824   5.267   3.072   3.786  0.1515 -0.6465 -1.3305
  171DOPC  C21020825   5.322   2.938   3.941  0.3601  0.1677 -0.8070
  171DOPC  H10R20826   5.369   3.023   3.992  0.4469  0.8466 -1.9735
  171DOPC  C21120827   5.310   2.801   4.004 -0.6258  0.0107 -0.3625
  171DOPC  H11R20828   5.223   2.746   3.964  1.4481 -2.2020 -2.0876
  171DOPC  H11S20829   5.297   2.814   4.114 -0.2545  1.6826 -0.4878
  171DOPC  C21220830   5.431   2.704   3.992  0.4231 -0.3043  0.3866
  171DOPC  H12R20831   5.409   2.617   4.057  0.1835  0.7224  1.7126
  171DOPC  H12S20832   5.521   2.758   4.025  0.5872  0.6089 -1.4227
  171DOPC  C21320833   5.455   2.651   3.851  0.3136  0.3910 -0.3330
  171DOPC  H13R20834   5.438   2.732   3.778  0.5651  0.3039 -0.4890
  171DOPC  H13S20835   5.383   2.566   3.840 -0.6244  1.1771 -0.3549
  171DOPC  C21420836   5.606   2.607   3.827  0.0994 -0.3219  0.6557
  171DOPC  H14R20837   5.643   2.530   3.897 -1.2530  0.0713  1.8512
  171DOPC  H14S20838   5.673   2.695   3.818 -2.3477  1.4498 -1.9600
  171DOPC  C21520839   5.609   2.534   3.686 -0.2468 -0.4859  0.2117
  171DOPC  H15R20840   5.527   2.459   3.688  0.3816 -1.1837  2.6127
  171DOPC  H15S20841   5.707   2.482   3.676 -0.6482 -1.2211  0.0224
  171DOPC  C21620842   5.626   2.616   3.560 -0.1222 -0.3422  0.6090
  171DOPC  H16R20843   5.728   2.660   3.556  0.0201 -0.6590  0.7650
  171DOPC  H16S20844   5.555   2.701   3.549  0.0180 -0.2657  0.2668
  171DOPC  C21720845   5.613   2.545   3.425 -0.5546  0.2179 -0.5762
  171DOPC  H17R20846   5.513   2.496   3.421  0.0211 -1.0155 -0.3467
  171DOPC  H17S20847   5.691   2.468   3.412  1.5595  1.7426  1.9783
  171DOPC  C21820848   5.621   2.635   3.307  0.2302 -0.4077  1.0103
  171DOPC  H18R20849   5.527   2.693   3.307 -0.6749 -1.6740 -2.1249
  171DOPC  H18S20850   5.633   2.581   3.211  0.8010  1.7991 -0.2235
  171DOPC  H18T20851   5.712   2.697   3.318  0.0235 -0.0992  0.9962
  171DOPC   C3320852   4.624   2.964   3.460  0.3307  0.5606 -0.7271
  171DOPC   H3X20853   4.703   2.939   3.534  0.3846  0.2698 -0.8791
  171DOPC   H3Y20854   4.564   2.871   3.456  3.1350 -1.3635 -1.6416
  171DOPC   C3420855   4.546   3.089   3.497 -0.4201 -0.8375  0.0515
  171DOPC   H4X20856   4.454   3.082   3.436  0.7566  2.4780 -2.4136
  171DOPC   H4Y20857   4.615   3.170   3.464  0.9387 -2.0920 -0.2507
  171DOPC   C3520858   4.525   3.089   3.647  0.3645 -0.4819 -0.2449
  171DOPC   H5X20859   4.510   3.195   3.676  0.3026 -0.5808  0.0887
  171DOPC   H5Y20860   4.606   3.051   3.712 -0.9035 -0.2689  1.5316
  171DOPC   C3620861   4.413   2.994   3.690  0.0038 -0.1563 -0.8097
  171DOPC   H6X20862   4.324   3.027   3.631 -0.1454 -0.7308 -0.9139
  171DOPC   H6Y20863   4.444   2.891   3.661 -3.0922 -1.3136 -0.4710
  171DOPC   C3720864   4.388   2.990   3.842  1.2616  0.2876 -0.0395
  171DOPC   H7X20865   4.474   2.944   3.896  0.0176  0.7271  2.5089
  171DOPC   H7Y20866   4.370   3.096   3.871 -1.4459 -0.0869 -0.0424
  171DOPC   C3820867   4.264   2.907   3.879 -0.6902 -0.4700 -0.8704
  171DOPC   H8X20868   4.276   2.797   3.867 -0.3852 -0.5566  0.1015
  171DOPC   H8Y20869   4.181   2.941   3.813 -0.1478 -0.4452 -1.5403
  171DOPC   C3920870   4.224   2.931   4.025  0.1469  0.1556 -0.9326
  171DOPC   H9X20871   4.189   3.031   4.055  0.2061 -0.3854  1.1354
  171DOPC  C31020872   4.218   2.840   4.121  0.3912 -0.0857 -0.1505
  171DOPC  H10X20873   4.174   2.874   4.217  0.3800  2.3657 -0.9385
  171DOPC  C31120874   4.235   2.687   4.106  0.6793 -0.1125 -0.6422
  171DOPC  H11X20875   4.184   2.649   4.015 -0.8539 -0.5580  0.3473
  171DOPC  H11Y20876   4.168   2.655   4.189  1.1771  1.9214  0.6025
  171DOPC  C31220877   4.372   2.622   4.122 -0.4463  0.8867  0.2319
  171DOPC  H12X20878   4.430   2.645   4.030  2.1572 -2.5947  0.7800
  171DOPC  H12Y20879   4.363   2.512   4.130  0.3573  0.8489  0.8364
  171DOPC  C31320880   4.448   2.663   4.244 -0.1839 -0.4363  0.1697
  171DOPC  H13X20881   4.463   2.771   4.225 -0.6642 -0.2836  0.6314
  171DOPC  H13Y20882   4.384   2.667   4.335 -0.8279  1.3315 -0.3204
  171DOPC  C31420883   4.588   2.601   4.265  0.3123  0.6116  0.7061
  171DOPC  H14X20884   4.569   2.493   4.277  0.8106  0.4129 -0.2144
  171DOPC  H14Y20885   4.652   2.608   4.174 -1.0996  0.4302 -0.3317
  171DOPC  C31520886   4.655   2.661   4.393  0.6402 -0.6855  0.6246
  171DOPC  H15X20887   4.578   2.668   4.473 -0.1811 -2.2005  0.0014
  171DOPC  H15Y20888   4.688   2.765   4.370 -1.4436 -0.1870 -0.2909
  171DOPC  C31620889   4.771   2.574   4.442  0.0755 -0.3220  0.6599
  171DOPC  H16X20890   4.716   2.482   4.472 -1.7749  1.1544  1.9492
  171DOPC  H16Y20891   4.841   2.550   4.359  0.7305 -1.5625  1.5333
  171DOPC  C31720892   4.857   2.637   4.547  0.0650 -0.2798 -1.0446
  171DOPC  H17X20893   4.899   2.736   4.518  0.1206 -0.7728 -2.7532
  171DOPC  H17Y20894   4.793   2.657   4.635 -2.9789  1.4633 -3.4334
  171DOPC  C31820895   4.987   2.553   4.581 -0.4512 -0.7401  0.6841
  171DOPC  H18X20896   5.043   2.610   4.658 -0.0485 -0.0557 -0.1004
  171DOPC  H18Y20897   4.958   2.451   4.614 -0.9519 -1.0954 -0.7720
  171DOPC  H18Z20898   5.044   2.537   4.486  3.4423 -1.2925  2.8912
  172DOPC     N20899   3.105   4.988   2.922  0.4895 -0.6659  0.0944
  172DOPC   C1220900   2.958   4.936   2.953  0.5429 -0.4786  0.3268
  172DOPC  H12A20901   2.891   4.971   2.876 -0.4904  1.6641  2.1045
  172DOPC  H12B20902   2.914   4.993   3.033  1.4717  0.4969  0.1603
  172DOPC   C1320903   3.161   4.909   2.808  0.0389  0.0317 -0.4540
  172DOPC  H13A20904   3.265   4.939   2.796 -0.2035  0.6656 -1.1137
  172DOPC  H13B20905   3.160   4.804   2.829  2.2861  0.1686  0.6772
  172DOPC  H13C20906   3.104   4.922   2.717 -1.5429 -1.4408  0.2924
  172DOPC   C1420907   3.185   4.972   3.045  0.5227  0.6440 -0.0539
  172DOPC  H14A20908   3.177   5.059   3.108  1.7036  0.2596  0.6455
  172DOPC  H14B20909   3.146   4.887   3.099 -0.3591  1.2582  0.3105
  172DOPC  H14C20910   3.288   4.960   3.017 -0.0220 -1.6023 -1.3757
  172DOPC   C1520911   3.104   5.137   2.890  0.4127 -0.2570 -0.7776
  172DOPC  H15A20912   3.207   5.170   2.889  0.0531  1.0515  0.9852
  172DOPC  H15B20913   3.065   5.189   2.976  0.0986 -0.0419 -1.0495
  172DOPC  H15C20914   3.045   5.150   2.801 -2.0846 -1.5499  0.5828
  172DOPC   C1120915   2.930   4.786   2.965 -0.7957 -0.0219 -0.3109
  172DOPC  H11A20916   3.019   4.743   3.015 -1.4793  0.0690  1.0176
  172DOPC  H11B20917   2.842   4.766   3.030 -0.1703 -0.6252  0.3524
  172DOPC     P20918   2.887   4.581   2.806 -0.4780  0.1244  0.0328
  172DOPC   O1320919   2.946   4.547   2.674  0.2831  0.3547 -0.3637
  172DOPC   O1420920   2.743   4.554   2.822 -0.1343  0.0781  0.3973
  172DOPC   O1220921   2.923   4.730   2.834  0.7233  0.3518 -0.6400
  172DOPC   O1120922   2.962   4.507   2.926  0.0766  0.3551 -0.0338
  172DOPC    C120923   3.104   4.477   2.914 -0.3251  0.1563 -0.7033
  172DOPC    HA20924   3.164   4.565   2.883 -1.7139  2.1059  1.7562
  172DOPC    HB20925   3.120   4.394   2.842  0.5446  0.0048 -0.3451
  172DOPC    C220926   3.161   4.414   3.046 -0.3423  0.0770  0.1029
  172DOPC    HS20927   3.249   4.352   3.017  0.6673  0.3617  2.3628
  172DOPC   O2120928   3.057   4.336   3.112 -0.6736 -0.2752 -0.3506
  172DOPC   C2120929   3.104   4.234   3.180 -0.1249 -0.2671 -0.2908
  172DOPC   O2220930   3.227   4.206   3.188  0.7075  0.0795 -0.3786
  172DOPC   C2220931   2.993   4.164   3.252  0.3371  0.3367 -0.3582
  172DOPC   H2R20932   2.933   4.116   3.172  0.9334  0.9856 -1.2182
  172DOPC   H2S20933   2.920   4.239   3.289  0.6045 -0.1276  1.1559
  172DOPC    C320934   3.224   4.533   3.134  0.6557  0.1511  0.4140
  172DOPC    HX20935   3.140   4.605   3.149 -0.0213 -0.8566  1.5791
  172DOPC    HY20936   3.294   4.572   3.057  0.8608 -0.3905  0.3259
  172DOPC   O3120937   3.290   4.497   3.261 -0.5542 -0.1190 -0.5222
  172DOPC   C3120938   3.427   4.483   3.259  0.2202 -0.0043  0.0240
  172DOPC   O3220939   3.497   4.494   3.157  0.1617 -0.4739  0.1272
  172DOPC   C3220940   3.475   4.443   3.398  0.2297 -0.1354 -0.6030
  172DOPC   H2X20941   3.435   4.511   3.476  1.1917 -1.9736  1.5774
  172DOPC   H2Y20942   3.452   4.341   3.433  0.0221  0.0428 -0.2183
  172DOPC   C2320943   3.044   4.084   3.368  0.6494  0.2191  0.6790
  172DOPC   H3R20944   3.140   4.033   3.346 -0.7595 -2.5616  0.5710
  172DOPC   H3S20945   2.972   4.000   3.378  0.9302 -0.6704 -3.2710
  172DOPC   C2420946   3.032   4.157   3.502  0.3221  1.3053  0.4527
  172DOPC   H4R20947   3.064   4.106   3.596  2.6195  2.2008  0.2057
  172DOPC   H4S20948   2.928   4.194   3.514 -0.1666  0.0279  0.3481
  172DOPC   C2520949   3.135   4.267   3.513 -0.3454  0.2859 -0.2372
  172DOPC   H5R20950   3.124   4.331   3.423  0.0395 -0.7107 -1.0114
  172DOPC   H5S20951   3.238   4.224   3.519 -0.7083 -0.6166 -0.3615
  172DOPC   C2620952   3.121   4.339   3.645  0.5725 -0.0695 -0.0798
  172DOPC   H6R20953   3.216   4.333   3.702 -1.0307  0.2264  2.8474
  172DOPC   H6S20954   3.044   4.294   3.712  0.0474  2.0718  0.8607
  172DOPC   C2720955   3.078   4.488   3.626  0.2195 -0.1541 -0.2288
  172DOPC   H7R20956   3.031   4.510   3.724 -0.1124  0.9125 -0.6137
  172DOPC   H7S20957   3.012   4.489   3.537  0.5434 -3.4063 -0.6155
  172DOPC   C2820958   3.198   4.578   3.612  0.4398  0.4415  0.2035
  172DOPC   H8R20959   3.241   4.553   3.513 -1.3946  1.2925 -0.8754
  172DOPC   H8S20960   3.276   4.550   3.686  0.4999 -2.0460 -0.7109
  172DOPC   C2920961   3.162   4.717   3.629 -0.0886 -0.5892  0.8284
  172DOPC   H9R20962   3.067   4.746   3.580  0.8308  4.7719  1.5446
  172DOPC  C21020963   3.223   4.804   3.716 -0.0518  0.8618 -0.3853
  172DOPC  H10R20964   3.178   4.904   3.719  2.2645  2.0553 -2.1353
  172DOPC  C21120965   3.347   4.797   3.799 -0.1264  0.2525  0.2622
  172DOPC  H11R20966   3.404   4.892   3.804  0.2612 -0.0245  1.5734
  172DOPC  H11S20967   3.418   4.725   3.753 -1.3303 -0.7190 -0.1433
  172DOPC  C21220968   3.331   4.733   3.942  0.0819  0.2553  0.6014
  172DOPC  H12R20969   3.430   4.708   3.986 -0.1758  1.1073  1.7261
  172DOPC  H12S20970   3.268   4.642   3.937  2.2485 -1.2891  0.1907
  172DOPC  C21320971   3.269   4.827   4.049 -0.9738  0.1752 -0.7750
  172DOPC  H13R20972   3.169   4.865   4.017 -1.0532 -0.4615 -1.3143
  172DOPC  H13S20973   3.339   4.912   4.063 -1.8195  1.0957 -1.8295
  172DOPC  C21420974   3.252   4.757   4.191 -0.2899  1.0705 -0.6865
  172DOPC  H14R20975   3.341   4.693   4.207 -0.4066  0.5199 -2.1107
  172DOPC  H14S20976   3.167   4.686   4.199 -2.0914  3.2929  1.5079
  172DOPC  C21520977   3.232   4.863   4.306  0.4661  0.2091 -0.1111
  172DOPC  H15R20978   3.153   4.935   4.273 -0.2500  0.5689  2.2213
  172DOPC  H15S20979   3.326   4.921   4.309 -0.6492  2.0617  1.4353
  172DOPC  C21620980   3.194   4.798   4.447 -0.2761 -0.1970 -0.1534
  172DOPC  H16R20981   3.262   4.711   4.456  0.0807 -0.0497 -1.2126
  172DOPC  H16S20982   3.091   4.758   4.451  0.2726 -1.6985 -0.5966
  172DOPC  C21720983   3.186   4.899   4.565 -0.4334 -0.7757 -0.0521
  172DOPC  H17R20984   3.127   4.988   4.535  0.3472  0.1472  1.0046
  172DOPC  H17S20985   3.288   4.936   4.592 -1.2093  3.0696 -1.6862
  172DOPC  C21820986   3.116   4.834   4.688  0.0884  0.8269 -0.7499
  172DOPC  H18R20987   3.166   4.750   4.742 -0.6897  1.2875  0.7039
  172DOPC  H18S20988   3.017   4.794   4.659 -0.1567  0.8460  0.0617
  172DOPC  H18T20989   3.101   4.904   4.772 -0.1522  0.1157 -0.1917
  172DOPC   C3320990   3.633   4.462   3.417  0.9016  0.7601 -0.3843
  172DOPC   H3X20991   3.668   4.566   3.431  3.0507  0.5342 -3.1815
  172DOPC   H3Y20992   3.682   4.430   3.323  0.8187  0.8801 -0.4679
  172DOPC   C3420993   3.678   4.362   3.521 -0.5967 -0.4516  0.1553
  172DOPC   H4X20994   3.786   4.337   3.518 -0.5131  0.0077 -2.0773
  172DOPC   H4Y20995   3.649   4.256   3.504 -0.2585 -0.0921 -3.3690
  172DOPC   C3520996   3.642   4.396   3.668 -0.4739 -0.1189 -0.3574
  172DOPC   H5X20997   3.536   4.383   3.697  0.3178 -0.7854  2.5718
  172DOPC   H5Y20998   3.649   4.506   3.678 -1.7372 -0.0202 -0.4256
  172DOPC   C3620999   3.720   4.318   3.774  0.4348 -0.2805 -0.7379
  172DOPC   H6X21000   3.669   4.219   3.780 -1.1268  0.5876  1.4269
  172DOPC   H6Y21001   3.827   4.316   3.744  0.9889  1.5562  0.9528
  172DOPC   C3721002   3.700   4.381   3.911  0.5871 -0.2333 -0.0399
  172DOPC   H7X21003   3.708   4.491   3.895 -3.9117  0.2602 -0.1452
  172DOPC   H7Y21004   3.601   4.362   3.958  0.8051  0.0085  0.5312
  172DOPC   C3821005   3.807   4.321   3.995 -0.3005 -0.1283 -0.4923
  172DOPC   H8X21006   3.907   4.343   3.950 -0.5075  1.8805 -0.0341
  172DOPC   H8Y21007   3.791   4.211   3.987 -1.3528  0.0455 -0.9215
  172DOPC   C3921008   3.821   4.378   4.131 -0.1884  0.1971 -0.0584
  172DOPC   H9X21009   3.815   4.488   4.126  0.8354  0.2238 -0.8387
  172DOPC  C31021010   3.879   4.320   4.233  0.4149 -0.4233  0.0989
  172DOPC  H10X21011   3.885   4.382   4.324  0.2182 -2.1576  1.3423
  172DOPC  C31121012   3.927   4.176   4.248 -0.3880 -0.3056  0.7057
  172DOPC  H11X21013   3.996   4.159   4.333  0.9591  0.3590 -0.2083
  172DOPC  H11Y21014   3.995   4.152   4.163 -1.4822  1.1553 -0.6362
  172DOPC  C31221015   3.819   4.082   4.270  0.0817  1.0564  0.1670
  172DOPC  H12X21016   3.866   3.985   4.299  0.7942  0.7353 -1.8678
  172DOPC  H12Y21017   3.754   4.076   4.180  1.7526 -2.7482 -1.0167
  172DOPC  C31321018   3.745   4.112   4.396 -0.5636 -0.0257 -0.5742
  172DOPC  H13X21019   3.815   4.146   4.475 -2.2658  0.0387  0.9512
  172DOPC  H13Y21020   3.683   4.203   4.380  0.9859  1.0721 -0.5047
  172DOPC  C31421021   3.663   4.006   4.474  0.3309  0.2635 -0.4983
  172DOPC  H14X21022   3.589   4.071   4.524 -2.0393 -1.2794 -1.7945
  172DOPC  H14Y21023   3.600   3.950   4.402  0.2195 -1.4376  0.8488
  172DOPC  C31521024   3.743   3.915   4.569  0.6639  0.3615  0.3045
  172DOPC  H15X21025   3.824   3.864   4.513  0.2350  0.3764 -0.3465
  172DOPC  H15Y21026   3.682   3.831   4.609  0.6035  0.3810  0.2536
  172DOPC  C31621027   3.791   3.988   4.697  0.0323  0.0693 -0.6079
  172DOPC  H16X21028   3.871   4.059   4.668 -1.6681  1.9662 -0.8704
  172DOPC  H16Y21029   3.711   4.048   4.745  0.4409 -0.5893  0.9787
  172DOPC  C31721030   3.822   3.882   4.803  0.3533  0.0458 -0.2816
  172DOPC  H17X21031   3.858   3.785   4.763 -0.6441 -0.1176 -0.8127
  172DOPC  H17Y21032   3.912   3.916   4.858 -0.5978  1.7742  0.2701
  172DOPC  C31821033   3.701   3.865   4.893  0.5751 -0.5136 -0.1094
  172DOPC  H18X21034   3.616   3.821   4.836 -0.3588 -1.3298  1.8290
  172DOPC  H18Y21035   3.717   3.779   4.962 -0.0951 -0.5628 -0.0159
  172DOPC  H18Z21036   3.675   3.960   4.944 -1.1106 -1.2146  0.3899
  173DOPC     N21037   1.851   3.108   3.271 -0.3842  0.1305 -0.1360
  173DOPC   C1221038   1.949   2.999   3.305  0.3195  0.3800 -0.8496
  173DOPC  H12A21039   2.016   2.964   3.229  0.2948 -0.0402 -0.6790
  173DOPC  H12B21040   1.888   2.912   3.323 -3.0903  2.3339 -1.8926
  173DOPC   C1321041   1.754   3.131   3.387  1.1442  0.4115  0.2819
  173DOPC  H13A21042   1.685   3.212   3.368  0.9196  0.0551 -0.4854
  173DOPC  H13B21043   1.695   3.041   3.396  1.2653  0.3673  0.6229
  173DOPC  H13C21044   1.814   3.154   3.473  0.1648  0.9454  0.8442
  173DOPC   C1421045   1.783   3.062   3.147 -0.1236  0.3544  0.0988
  173DOPC  H14A21046   1.740   2.963   3.156  0.6123 -0.4185 -3.4411
  173DOPC  H14B21047   1.714   3.138   3.114  2.1841  2.7893  0.5270
  173DOPC  H14C21048   1.853   3.043   3.067  1.3184  1.9012  0.9244
  173DOPC   C1521049   1.915   3.244   3.238  0.2713 -0.0509  0.0112
  173DOPC  H15A21050   1.958   3.286   3.328 -0.5410 -2.1754  1.4837
  173DOPC  H15B21051   1.839   3.314   3.208 -0.6519 -0.3565  1.5172
  173DOPC  H15C21052   1.989   3.244   3.159 -0.2999  2.8927 -0.6304
  173DOPC   C1121053   2.040   3.010   3.425  0.5026 -0.6228  0.1935
  173DOPC  H11A21054   2.110   3.095   3.413  1.8547 -1.5539  1.2177
  173DOPC  H11B21055   1.985   3.021   3.522  1.8216  1.4753  0.7684
  173DOPC     P21056   2.272   2.891   3.418 -0.0088 -0.4041 -0.1503
  173DOPC   O1321057   2.315   2.992   3.319 -0.3378  0.2635 -0.2362
  173DOPC   O1421058   2.309   2.753   3.399 -0.3512  0.0406 -0.1656
  173DOPC   O1221059   2.116   2.892   3.423  0.1335  0.6383 -0.5914
  173DOPC   O1121060   2.311   2.940   3.564  0.3677  0.0718 -0.3713
  173DOPC    C121061   2.234   2.892   3.676  0.6516 -0.3531 -0.5051
  173DOPC    HA21062   2.206   2.787   3.655 -0.5150  0.3254 -2.5634
  173DOPC    HB21063   2.145   2.956   3.690 -0.1435 -1.2201 -1.4934
  173DOPC    C221064   2.318   2.885   3.808 -0.2656  0.2285 -0.4736
  173DOPC    HS21065   2.272   2.814   3.881  2.1983 -0.2421  0.7184
  173DOPC   O2121066   2.327   3.018   3.858  0.2337 -0.1104 -0.5664
  173DOPC   C2121067   2.368   3.031   3.983  0.5967 -0.3010 -0.4020
  173DOPC   O2221068   2.371   2.947   4.071 -0.6697 -0.3541  0.6030
  173DOPC   C2221069   2.398   3.184   4.018  0.4711  0.6496  0.4055
  173DOPC   H2R21070   2.324   3.245   3.962  0.1985 -1.0712 -1.2158
  173DOPC   H2S21071   2.490   3.207   3.960  0.4942 -2.1006 -0.7945
  173DOPC    C321072   2.457   2.815   3.780  0.0027  0.0831 -0.5992
  173DOPC    HX21073   2.519   2.878   3.712 -0.7903  0.2628 -1.1649
  173DOPC    HY21074   2.435   2.722   3.724  0.8757 -1.2038  1.1291
  173DOPC   O3121075   2.536   2.794   3.897  0.2611  0.5943  0.4544
  173DOPC   C3121076   2.496   2.689   3.967  0.4291  0.0160  0.1925
  173DOPC   O3221077   2.412   2.608   3.936  0.3320 -0.1949  0.1462
  173DOPC   C3221078   2.582   2.687   4.093 -0.2175 -0.6094 -0.9014
  173DOPC   H2X21079   2.690   2.679   4.067  0.0803  0.0281  0.1229
  173DOPC   H2Y21080   2.566   2.783   4.145  2.2393 -1.0114  0.7652
  173DOPC   C2321081   2.404   3.217   4.169  0.2569 -0.3525 -0.0390
  173DOPC   H3R21082   2.322   3.168   4.224 -0.7520  0.2594 -0.9499
  173DOPC   H3S21083   2.379   3.322   4.195  2.5402  0.5206 -1.0644
  173DOPC   C2421084   2.543   3.187   4.229  0.3486 -0.2247  0.5520
  173DOPC   H4R21085   2.619   3.255   4.184  0.9936 -2.2902 -1.6822
  173DOPC   H4S21086   2.562   3.079   4.210  0.5754 -0.3720  1.5740
  173DOPC   C2521087   2.543   3.211   4.385 -0.3679 -0.1544  0.2216
  173DOPC   H5R21088   2.472   3.137   4.428  0.4120 -1.5936 -0.8342
  173DOPC   H5S21089   2.507   3.313   4.407  0.5082  0.7749 -2.2894
  173DOPC   C2621090   2.682   3.198   4.447 -0.0272  0.3268 -0.2494
  173DOPC   H6R21091   2.748   3.270   4.394  1.0609 -1.1719 -1.0394
  173DOPC   H6S21092   2.720   3.100   4.409 -1.6359  0.5853 -2.7825
  173DOPC   C2721093   2.690   3.201   4.599 -0.6709  0.4797 -0.0291
  173DOPC   H7R21094   2.632   3.286   4.640 -1.2710 -0.0069  0.1359
  173DOPC   H7S21095   2.792   3.224   4.638 -0.0423  0.0172 -1.3327
  173DOPC   C2821096   2.636   3.064   4.657  0.7670  0.4856  0.0829
  173DOPC   H8R21097   2.697   2.988   4.604  2.8329  0.6988  2.0219
  173DOPC   H8S21098   2.530   3.057   4.623  0.7754  0.5019  0.0539
  173DOPC   C2921099   2.650   3.031   4.805 -0.3022  0.2980 -0.0929
  173DOPC   H9R21100   2.755   3.007   4.829 -0.8042 -1.2706  0.6923
  173DOPC  C21021101   2.562   3.044   4.907  0.4037 -0.7976 -0.5108
  173DOPC  H10R21102   2.598   3.040   5.011 -0.0984 -0.0413 -0.2916
  173DOPC  C21121103   2.419   3.098   4.882 -0.5389 -0.2113 -0.3580
  173DOPC  H11R21104   2.347   3.014   4.896 -2.4264  1.2538 -0.9914
  173DOPC  H11S21105   2.410   3.134   4.778 -0.8697 -2.2544 -1.0835
  173DOPC  C21221106   2.389   3.210   4.984  0.2904 -0.5701  0.0287
  173DOPC  H12R21107   2.463   3.289   4.958 -3.2810  3.1503  0.2606
  173DOPC  H12S21108   2.398   3.176   5.090 -1.3657 -1.1606  0.0047
  173DOPC  C21321109   2.254   3.282   4.960 -0.6934 -0.2919 -0.5318
  173DOPC  H13R21110   2.208   3.263   4.860  1.5068 -0.2559 -1.6139
  173DOPC  H13S21111   2.279   3.390   4.963  1.6397 -0.8085  2.1878
  173DOPC  C21421112   2.155   3.263   5.075 -0.4505  0.1620  0.2589
  173DOPC  H14R21113   2.065   3.327   5.060 -1.8310 -1.4631  1.1738
  173DOPC  H14S21114   2.210   3.285   5.169  0.3223 -0.1194 -0.1236
  173DOPC  C21521115   2.107   3.118   5.079 -0.1081  0.5599 -0.4805
  173DOPC  H15R21116   2.068   3.101   5.182  0.4500  1.6870 -0.0591
  173DOPC  H15S21117   2.197   3.055   5.071 -0.7488 -0.4318 -0.0453
  173DOPC  C21621118   1.990   3.093   4.984 -0.4188  0.3830  0.3689
  173DOPC  H16R21119   2.027   3.117   4.882 -0.1600 -0.0010  0.3699
  173DOPC  H16S21120   1.903   3.158   5.007  0.0654  0.9714  0.5589
  173DOPC  C21721121   1.950   2.943   4.982  0.6619  0.6076  0.0813
  173DOPC  H17R21122   1.921   2.927   5.088 -0.5093  2.0781  0.0054
  173DOPC  H17S21123   2.039   2.881   4.956  2.0722  2.4228  0.3188
  173DOPC  C21821124   1.834   2.905   4.895  0.3417  0.1629 -0.1078
  173DOPC  H18R21125   1.848   2.916   4.786  2.1193 -0.1415  0.0623
  173DOPC  H18S21126   1.750   2.973   4.920  0.1556  0.6905 -2.0716
  173DOPC  H18T21127   1.796   2.802   4.914 -0.7825  0.5572 -0.1470
  173DOPC   C3321128   2.530   2.569   4.177 -0.5359  0.4463  0.4976
  173DOPC   H3X21129   2.557   2.476   4.123 -1.5791  0.4146  0.0080
  173DOPC   H3Y21130   2.420   2.552   4.169 -0.1165 -1.5920 -2.5402
  173DOPC   C3421131   2.575   2.557   4.321 -0.4525 -0.2825  0.3104
  173DOPC   H4X21132   2.600   2.657   4.362 -1.0277 -0.2708  0.6403
  173DOPC   H4Y21133   2.660   2.486   4.333  0.5673  0.3299 -2.4086
  173DOPC   C3521134   2.463   2.507   4.417 -0.3976 -0.2830  0.1758
  173DOPC   H5X21135   2.457   2.397   4.423  0.6362 -0.2982  1.1980
  173DOPC   H5Y21136   2.364   2.539   4.377  0.2808  0.1030 -1.2868
  173DOPC   C3621137   2.470   2.575   4.560  0.5785  0.2937  0.5851
  173DOPC   H6X21138   2.521   2.673   4.554 -0.4826  0.9590  1.7652
  173DOPC   H6Y21139   2.364   2.602   4.580 -0.2985 -1.0432 -1.8420
  173DOPC   C3721140   2.512   2.485   4.676 -0.2321 -0.7759  0.0569
  173DOPC   H7X21141   2.433   2.408   4.685 -0.5259 -0.2585  3.4596
  173DOPC   H7Y21142   2.611   2.443   4.651 -0.2085 -0.3294 -0.6417
  173DOPC   C3821143   2.545   2.547   4.813 -0.3908  0.0637  0.3213
  173DOPC   H8X21144   2.641   2.603   4.802  0.4778 -1.7670 -2.3163
  173DOPC   H8Y21145   2.562   2.458   4.877  1.9488 -1.7729 -2.5668
  173DOPC   C3921146   2.446   2.641   4.862  0.3489 -0.2373 -0.4295
  173DOPC   H9X21147   2.457   2.737   4.808  1.1769 -0.2317 -0.2701
  173DOPC  C31021148   2.339   2.612   4.941  0.0887 -0.4937  0.8564
  173DOPC  H10X21149   2.275   2.695   4.976 -0.3874 -0.7586  0.6301
  173DOPC  C31121150   2.307   2.480   5.004  0.0459  0.4740 -0.2098
  173DOPC  H11X21151   2.344   2.474   5.108  0.4178  0.1260 -0.3598
  173DOPC  H11Y21152   2.359   2.395   4.955  0.5933 -0.5245  1.9795
  173DOPC  C31221153   2.158   2.445   5.012  0.3510  0.0842  0.0864
  173DOPC  H12X21154   2.139   2.350   5.067 -1.5483  1.0466  1.2052
  173DOPC  H12Y21155   2.126   2.434   4.906  0.0081 -1.4749  0.3223
  173DOPC  C31321156   2.068   2.560   5.079  0.2933 -0.3242  0.3514
  173DOPC  H13X21157   2.118   2.579   5.176 -0.1900  0.6072  0.4257
  173DOPC  H13Y21158   2.074   2.655   5.023 -1.2913 -1.1907 -1.3970
  173DOPC  C31421159   1.925   2.528   5.101 -0.0739  0.0511  0.2838
  173DOPC  H14X21160   1.877   2.499   5.005 -0.4940 -0.5513  0.6668
  173DOPC  H14Y21161   1.929   2.434   5.161 -2.5279 -0.3793 -0.1401
  173DOPC  C31521162   1.848   2.633   5.185 -0.6629 -0.4670  0.1324
  173DOPC  H15X21163   1.825   2.720   5.119 -2.6710 -2.2001 -1.6005
  173DOPC  H15Y21164   1.904   2.655   5.279 -0.3562 -1.8053  0.2814
  173DOPC  C31621165   1.705   2.599   5.224  1.0002  0.9112  0.3799
  173DOPC  H16X21166   1.698   2.494   5.260  0.5419  1.5097  2.1543
  173DOPC  H16Y21167   1.677   2.650   5.319  0.5369 -0.9625  1.2887
  173DOPC  C31721168   1.597   2.633   5.120 -0.0396  0.0492  0.0126
  173DOPC  H17X21169   1.551   2.730   5.149 -0.6662  0.4482 -2.1460
  173DOPC  H17Y21170   1.650   2.649   5.024 -0.8210 -0.7511 -0.5655
  173DOPC  C31821171   1.489   2.524   5.104 -0.8437 -0.5588 -0.8513
  173DOPC  H18X21172   1.510   2.454   5.021  1.4506 -0.9862  0.0133
  173DOPC  H18Y21173   1.483   2.456   5.192  2.7976 -0.6959 -0.5428
  173DOPC  H18Z21174   1.392   2.568   5.073 -1.9739 -1.8442  0.7107
  174DOPC     N21175   5.686   1.801   2.567  0.4313 -0.3385  0.0719
  174DOPC   C1221176   5.795   1.696   2.598  0.0537  0.2826  0.7074
  174DOPC  H12A21177   5.762   1.595   2.620 -0.1950  0.1434 -0.2523
  174DOPC  H12B21178   5.851   1.728   2.685  2.2480 -0.5337 -0.3070
  174DOPC   C1321179   5.638   1.778   2.424 -0.2824 -0.1408  0.3052
  174DOPC  H13A21180   5.605   1.676   2.411  0.1730 -0.4224  1.2473
  174DOPC  H13B21181   5.550   1.834   2.399 -0.3873  0.0288  1.0154
  174DOPC  H13C21182   5.725   1.791   2.362 -0.1319  1.6532  0.8295
  174DOPC   C1421183   5.740   1.943   2.568  0.0330  0.4642  0.3912
  174DOPC  H14A21184   5.777   1.970   2.666 -0.2767  0.7740  0.4247
  174DOPC  H14B21185   5.834   1.954   2.515 -0.1129  1.5104  0.3237
  174DOPC  H14C21186   5.672   2.022   2.539 -0.2775 -0.5582 -1.8756
  174DOPC   C1521187   5.575   1.774   2.655 -0.1340  0.6151  0.0975
  174DOPC  H15A21188   5.605   1.761   2.757  1.4853 -1.2387 -0.5485
  174DOPC  H15B21189   5.517   1.689   2.621  1.3499 -0.3419 -0.1182
  174DOPC  H15C21190   5.507   1.858   2.658  1.3550  1.9748 -1.6991
  174DOPC   C1121191   5.916   1.678   2.493 -0.1753 -0.6353 -0.3033
  174DOPC  H11A21192   5.985   1.609   2.545 -0.7543  0.5410  2.1459
  174DOPC  H11B21193   5.880   1.622   2.403  0.6685 -2.0986  0.2293
  174DOPC     P21194   6.092   1.851   2.559 -0.3434  0.3935  0.0450
  174DOPC   O1321195   6.131   1.988   2.530  0.5484 -0.3082  0.1006
  174DOPC   O1421196   6.203   1.752   2.561  0.3256 -0.4104 -0.0539
  174DOPC   O1221197   5.976   1.806   2.462  0.1319  0.5076 -0.0282
  174DOPC   O1121198   6.018   1.852   2.690  0.6297  0.6825  0.2410
  174DOPC    C121199   6.079   1.857   2.825  0.0569 -0.2983  0.3599
  174DOPC    HA21200   6.006   1.903   2.895 -0.0614  1.4175 -0.8354
  174DOPC    HB21201   6.180   1.904   2.825  2.0555 -4.1915  0.8418
  174DOPC    C221202   6.096   1.715   2.889 -0.6782  0.1503 -0.1615
  174DOPC    HS21203   6.151   1.650   2.818 -2.1061 -0.7320 -0.5083
  174DOPC   O2121204   5.954   1.669   2.890  0.0784 -0.7870 -0.4010
  174DOPC   C2121205   5.946   1.542   2.928  0.5989  0.1483 -0.5031
  174DOPC   O2221206   6.036   1.462   2.942 -0.1958 -0.4169 -0.4005
  174DOPC   C2221207   5.796   1.506   2.944  0.0367  0.5102 -0.0789
  174DOPC   H2R21208   5.795   1.399   2.916  1.9706  0.4847 -0.1773
  174DOPC   H2S21209   5.734   1.567   2.875 -1.6946  0.1613  1.1099
  174DOPC    C321210   6.161   1.715   3.027 -0.6435  0.5145 -0.2787
  174DOPC    HX21211   6.265   1.749   3.007 -0.7658  0.9890 -0.1408
  174DOPC    HY21212   6.168   1.614   3.073 -1.2614  1.9626  3.3492
  174DOPC   O3121213   6.093   1.801   3.109  0.2571  0.0347  0.3391
  174DOPC   C3121214   6.130   1.821   3.234 -0.0055 -0.7380  0.1635
  174DOPC   O3221215   6.218   1.767   3.296 -0.5741  0.6329  0.0787
  174DOPC   C3221216   6.027   1.922   3.288  0.1631 -0.5046 -0.0160
  174DOPC   H2X21217   6.052   2.026   3.257  2.1857 -0.8050  0.4543
  174DOPC   H2Y21218   5.928   1.896   3.246 -0.6237  0.4820  1.1624
  174DOPC   C2321219   5.750   1.519   3.094  0.2338 -0.6168 -0.2033
  174DOPC   H3R21220   5.806   1.450   3.161 -1.5352 -0.3104  1.7116
  174DOPC   H3S21221   5.648   1.476   3.097 -0.6792  1.4979  0.2327
  174DOPC   C2421222   5.747   1.658   3.158  0.2854  0.3967 -0.1813
  174DOPC   H4R21223   5.846   1.705   3.176  1.0528 -0.8048 -1.1083
  174DOPC   H4S21224   5.710   1.648   3.263 -0.9101 -0.4263 -0.6599
  174DOPC   C2521225   5.654   1.765   3.089  0.0972 -0.5367  0.7248
  174DOPC   H5R21226   5.697   1.788   2.989  0.8123 -0.9565  0.9246
  174DOPC   H5S21227   5.660   1.861   3.143  0.3897 -1.6543  2.7575
  174DOPC   C2621228   5.503   1.730   3.076 -0.4293 -0.0943  0.0771
  174DOPC   H6R21229   5.495   1.636   3.016 -0.0547 -0.8351  1.1432
  174DOPC   H6S21230   5.457   1.808   3.013  0.8289  1.4102  0.9536
  174DOPC   C2721231   5.431   1.722   3.220 -0.4037  0.1408  0.0816
  174DOPC   H7R21232   5.464   1.804   3.286  2.2333 -2.3129  2.0391
  174DOPC   H7S21233   5.480   1.634   3.265  1.3751  0.3432 -1.3094
  174DOPC   C2821234   5.278   1.713   3.215 -0.1332  0.4536  0.1143
  174DOPC   H8R21235   5.236   1.796   3.155  0.2689  1.0448  0.6394
  174DOPC   H8S21236   5.239   1.728   3.318 -0.1300 -1.9471  0.5277
  174DOPC   C2921237   5.226   1.585   3.151  1.0002 -0.2325 -0.2829
  174DOPC   H9R21238   5.274   1.532   3.067  0.7205 -3.9079  1.6773
  174DOPC  C21021239   5.110   1.522   3.185  1.1965  0.1193 -0.3518
  174DOPC  H10R21240   5.086   1.428   3.134 -2.1085  0.7026 -0.0972
  174DOPC  C21121241   5.006   1.555   3.286 -0.6156 -0.3298  0.1139
  174DOPC  H11R21242   4.900   1.560   3.252 -0.7031 -0.0895  0.4149
  174DOPC  H11S21243   5.032   1.649   3.340  3.4028 -1.4237  0.3873
  174DOPC  C21221244   5.016   1.453   3.399  0.6181 -0.1232  0.0049
  174DOPC  H12R21245   5.007   1.347   3.366 -0.0403 -0.3385  0.8316
  174DOPC  H12S21246   4.930   1.474   3.466  0.8994 -0.6620  0.5475
  174DOPC  C21321247   5.147   1.463   3.480 -0.1082  1.1234 -0.7548
  174DOPC  H13R21248   5.175   1.570   3.492  0.0254  1.2571 -2.1202
  174DOPC  H13S21249   5.229   1.424   3.416  0.4536  0.3930  0.3686
  174DOPC  C21421250   5.141   1.389   3.618  0.0562 -0.8884  0.1677
  174DOPC  H14R21251   5.245   1.386   3.656 -0.9942 -2.4934  3.3115
  174DOPC  H14S21252   5.121   1.280   3.611  1.3697 -1.0490 -1.7074
  174DOPC  C21521253   5.057   1.457   3.727  0.1944 -0.4631  0.4523
  174DOPC  H15R21254   4.948   1.448   3.711  0.4720 -1.7484 -0.8522
  174DOPC  H15S21255   5.070   1.568   3.724 -0.9441 -0.3260  0.1981
  174DOPC  C21621256   5.096   1.399   3.867  0.0819 -0.1516  0.2975
  174DOPC  H16R21257   5.205   1.412   3.885  0.0414 -0.3803  0.7176
  174DOPC  H16S21258   5.092   1.288   3.866  2.0071 -0.2692 -0.8383
  174DOPC  C21721259   5.018   1.452   3.986  0.0989  0.7692  0.7106
  174DOPC  H17R21260   4.913   1.475   3.957 -0.1619  3.3554  3.2592
  174DOPC  H17S21261   5.069   1.548   4.010  0.7711  0.3642  0.9336
  174DOPC  C21821262   5.019   1.361   4.104 -0.1193  0.1583  0.3913
  174DOPC  H18R21263   4.941   1.392   4.177  0.0085  0.3556  0.4462
  174DOPC  H18S21264   5.116   1.382   4.155  0.1606  3.9436 -1.3479
  174DOPC  H18T21265   5.011   1.256   4.071  1.8390 -0.1969  0.9083
  174DOPC   C3321266   6.026   1.931   3.441  0.2699  0.6507 -0.0317
  174DOPC   H3X21267   6.129   1.929   3.483 -0.2585 -2.6751  1.4368
  174DOPC   H3Y21268   5.985   1.835   3.477  1.3022 -0.8346 -2.5359
  174DOPC   C3421269   5.948   2.057   3.491 -0.1434 -0.5274  0.2386
  174DOPC   H4X21270   5.851   2.047   3.438  0.2525 -0.2048 -0.5664
  174DOPC   H4Y21271   5.999   2.152   3.465  0.5120 -0.4672  1.6695
  174DOPC   C3521272   5.900   2.058   3.643  0.8086 -0.7138  0.4223
  174DOPC   H5X21273   5.985   2.064   3.714  0.7663 -0.3707  0.4467
  174DOPC   H5Y21274   5.848   1.966   3.678  1.7010 -0.1492  3.5897
  174DOPC   C3621275   5.822   2.188   3.677  0.3415 -0.1876  0.1113
  174DOPC   H6X21276   5.876   2.283   3.656  0.1018 -0.0821 -0.0341
  174DOPC   H6Y21277   5.723   2.183   3.628  0.2436 -1.9931  0.4297
  174DOPC   C3721278   5.782   2.205   3.826 -0.3059 -0.1268 -1.3847
  174DOPC   H7X21279   5.874   2.240   3.878 -0.7451 -1.8282  0.6621
  174DOPC   H7Y21280   5.711   2.291   3.826 -0.7782 -0.4044  1.8927
  174DOPC   C3821281   5.705   2.088   3.902 -0.0067 -0.2639 -0.3531
  174DOPC   H8X21282   5.769   1.998   3.911 -0.3122 -0.3754  0.8889
  174DOPC   H8Y21283   5.619   2.062   3.836 -0.7499  1.0389  0.0738
  174DOPC   C3921284   5.653   2.123   4.044  0.0351  0.1339  0.8897
  174DOPC   H9X21285   5.563   2.185   4.043  0.9319  1.5736 -2.0923
  174DOPC  C31021286   5.720   2.101   4.155 -0.0769  0.0752  0.2066
  174DOPC  H10X21287   5.668   2.132   4.246 -2.3472 -1.7347 -0.3690
  174DOPC  C31121288   5.848   2.021   4.182 -0.1196 -0.4571  0.5412
  174DOPC  H11X21289   5.892   1.985   4.087 -1.7151  0.9717 -0.8062
  174DOPC  H11Y21290   5.831   1.946   4.262 -1.1987  1.5078  2.2362
  174DOPC  C31221291   5.952   2.120   4.235 -0.7996 -0.9783 -0.1239
  174DOPC  H12X21292   5.960   2.208   4.167  3.7206 -0.6148  0.5415
  174DOPC  H12Y21293   6.052   2.071   4.234 -0.3465 -0.1334 -1.8356
  174DOPC  C31321294   5.928   2.192   4.368  0.3153  0.7276  0.1492
  174DOPC  H13X21295   5.822   2.227   4.370  0.4270  1.1652  2.7622
  174DOPC  H13Y21296   5.931   2.118   4.451  0.1661 -0.2597 -0.7196
  174DOPC  C31421297   6.012   2.314   4.399 -0.2863 -0.1989  0.3117
  174DOPC  H14X21298   6.119   2.305   4.369 -0.6826  0.8334 -1.5618
  174DOPC  H14Y21299   5.988   2.396   4.328  2.5234 -0.6391 -1.3361
  174DOPC  C31521300   5.995   2.354   4.546  1.2284 -0.2751 -0.6890
  174DOPC  H15X21301   5.886   2.370   4.558  1.1159 -2.0048  1.1150
  174DOPC  H15Y21302   6.054   2.446   4.566 -0.8705  0.7810  1.0619
  174DOPC  C31621303   6.020   2.241   4.654  0.0158  0.1115  0.1155
  174DOPC  H16X21304   5.944   2.161   4.646 -1.6337  1.5045  1.0276
  174DOPC  H16Y21305   6.117   2.204   4.615 -0.7797 -0.7373 -1.1200
  174DOPC  C31721306   6.013   2.297   4.793 -0.3802 -0.0154  0.4393
  174DOPC  H17X21307   6.087   2.379   4.809  0.8676 -0.7107 -1.3494
  174DOPC  H17Y21308   5.915   2.343   4.815  0.1532  1.4140  0.0025
  174DOPC  C31821309   6.043   2.187   4.892  0.6993  0.5227  0.6070
  174DOPC  H18X21310   6.026   2.220   4.996  0.5165  2.8425 -0.1155
  174DOPC  H18Y21311   5.967   2.109   4.872  1.8023  0.1744 -3.0097
  174DOPC  H18Z21312   6.144   2.143   4.872 -0.0759 -1.3085  0.4915
  175DOPC     N21313   2.445   5.826   2.829  1.0576 -0.1094  0.4049
  175DOPC   C1221314   2.481   5.797   2.973  0.3297  0.0713 -0.6390
  175DOPC  H12A21315   2.395   5.751   3.020 -2.2401  1.4052 -3.6255
  175DOPC  H12B21316   2.500   5.893   3.018  0.0061  0.1539 -0.6714
  175DOPC   C1321317   2.554   5.894   2.748 -0.7689 -0.4262 -0.3537
  175DOPC  H13A21318   2.649   5.847   2.767 -0.2626  0.9196  0.6598
  175DOPC  H13B21319   2.535   5.900   2.642 -3.9092 -0.4765  0.0962
  175DOPC  H13C21320   2.564   5.995   2.785 -2.4336 -0.2269 -0.3524
  175DOPC   C1421321   2.315   5.919   2.829 -0.5983  0.2436 -1.0092
  175DOPC  H14A21322   2.301   5.944   2.725  1.5606  0.3459 -1.3006
  175DOPC  H14B21323   2.225   5.871   2.867 -0.4401  0.5586 -0.2189
  175DOPC  H14C21324   2.341   6.001   2.895  1.4649 -0.9906 -0.2233
  175DOPC   C1521325   2.411   5.705   2.745 -0.3286  0.2487 -0.0571
  175DOPC  H15A21326   2.371   5.731   2.648  0.1336  0.1563 -0.2770
  175DOPC  H15B21327   2.326   5.652   2.784 -0.4351  1.2778  1.1485
  175DOPC  H15C21328   2.499   5.645   2.723 -0.3748  0.2914 -0.3728
  175DOPC   C1121329   2.608   5.715   3.014 -0.5906  0.4839  0.1675
  175DOPC  H11A21330   2.614   5.690   3.122  1.4461  0.1898  0.0263
  175DOPC  H11B21331   2.603   5.623   2.952 -0.7775 -0.0253  0.9260
  175DOPC     P21332   2.791   5.900   3.041  0.0172 -0.1093 -0.0975
  175DOPC   O1321333   2.675   5.987   3.061 -0.2540 -0.3191  0.3245
  175DOPC   O1421334   2.895   5.956   2.954 -0.2819 -0.2297  0.2939
  175DOPC   O1221335   2.734   5.773   2.969 -0.5074  0.1901 -0.8479
  175DOPC   O1121336   2.863   5.851   3.174 -0.3642 -0.2227  0.2499
  175DOPC    C121337   2.932   5.724   3.162 -0.9723  0.5749 -0.5538
  175DOPC    HA21338   2.981   5.706   3.064  0.0811 -0.7929  0.1840
  175DOPC    HB21339   2.859   5.643   3.185 -1.9176  1.5673  0.0022
  175DOPC    C221340   3.051   5.720   3.260  0.2592 -0.4008 -0.0546
  175DOPC    HS21341   3.101   5.622   3.249  2.6953  0.8010 -0.4308
  175DOPC   O2121342   3.009   5.728   3.398  0.2404 -0.4256 -0.0327
  175DOPC   C2121343   2.922   5.645   3.442  0.7320  0.3233 -0.3069
  175DOPC   O2221344   2.884   5.546   3.385  0.2864 -0.0376 -0.1326
  175DOPC   C2221345   2.881   5.701   3.572  0.7545 -0.3652  0.4124
  175DOPC   H2R21346   2.794   5.768   3.552  1.0148 -0.1053  0.1559
  175DOPC   H2S21347   2.960   5.767   3.613  0.1154 -1.3721  3.5506
  175DOPC    C321348   3.158   5.835   3.235 -0.6564  0.4407 -0.4300
  175DOPC    HX21349   3.111   5.924   3.283  0.2015 -0.0456  1.4217
  175DOPC    HY21350   3.173   5.859   3.128  2.5500 -2.0228 -0.6657
  175DOPC   O3121351   3.284   5.809   3.310  0.5636  0.2352  0.2749
  175DOPC   C3121352   3.354   5.929   3.310  0.2030  0.0690 -0.0817
  175DOPC   O3221353   3.319   6.019   3.241 -0.3305 -0.3460 -0.1269
  175DOPC   C3221354   3.465   5.917   3.411  0.0680 -0.3653 -0.0513
  175DOPC   H2X21355   3.439   5.835   3.480  0.8085 -1.5204 -1.0918
  175DOPC   H2Y21356   3.555   5.872   3.363  0.7673  0.7697  0.1633
  175DOPC   C2321357   2.821   5.593   3.669 -0.2464  0.3670 -0.2056
  175DOPC   H3R21358   2.907   5.522   3.665  1.1537  2.0449 -1.8660
  175DOPC   H3S21359   2.729   5.555   3.620 -0.3329  0.4570 -0.1127
  175DOPC   C2421360   2.793   5.657   3.805  0.1359  0.5693 -0.0047
  175DOPC   H4R21361   2.723   5.739   3.779  2.2707  2.0514 -1.4627
  175DOPC   H4S21362   2.883   5.705   3.851  0.5567 -0.0620 -0.1661
  175DOPC   C2521363   2.730   5.549   3.890 -0.0980 -0.4090 -0.3848
  175DOPC   H5R21364   2.795   5.459   3.885 -2.1349 -1.8959 -1.8111
  175DOPC   H5S21365   2.647   5.505   3.831  0.9773  0.5838 -2.7520
  175DOPC   C2621366   2.706   5.586   4.038 -0.2199  0.5430  1.0067
  175DOPC   H6R21367   2.659   5.687   4.045 -0.3317  0.6440 -0.8395
  175DOPC   H6S21368   2.809   5.597   4.079 -1.3072  2.0829  3.5468
  175DOPC   C2721369   2.632   5.484   4.126  0.0240 -0.2235  0.6449
  175DOPC   H7R21370   2.666   5.383   4.097  0.3831 -0.9131  3.2331
  175DOPC   H7S21371   2.524   5.481   4.099  0.2749  0.5662 -0.5334
  175DOPC   C2821372   2.661   5.505   4.272 -0.5147  1.3208  0.0410
  175DOPC   H8R21373   2.769   5.528   4.281 -0.5714  1.0965  1.6908
  175DOPC   H8S21374   2.639   5.408   4.322  1.1516 -0.1115 -1.8706
  175DOPC   C2921375   2.583   5.615   4.330 -1.1130 -0.1098 -0.5132
  175DOPC   H9R21376   2.566   5.699   4.261 -0.5059  1.0006  0.6345
  175DOPC  C21021377   2.530   5.620   4.449 -0.8113  0.0492 -0.4628
  175DOPC  H10R21378   2.467   5.702   4.484 -0.6757 -0.7988  2.0039
  175DOPC  C21121379   2.553   5.511   4.550  0.4038 -0.1497 -0.8638
  175DOPC  H11R21380   2.553   5.409   4.506 -0.9024  0.2795 -1.9337
  175DOPC  H11S21381   2.464   5.501   4.616 -2.0917 -1.1522 -4.0986
  175DOPC  C21221382   2.673   5.532   4.649  0.0556 -0.1096 -0.4622
  175DOPC  H12R21383   2.764   5.529   4.585 -0.1945  1.5971 -0.9338
  175DOPC  H12S21384   2.681   5.451   4.725  0.7036  2.0152  1.8565
  175DOPC  C21321385   2.675   5.668   4.721  0.1668  0.4043  0.3438
  175DOPC  H13R21386   2.572   5.690   4.757  0.3603  2.8200 -0.4233
  175DOPC  H13S21387   2.703   5.744   4.646 -0.4086  0.1520 -0.1377
  175DOPC  C21421388   2.762   5.666   4.846  0.1298 -0.1792 -0.3371
  175DOPC  H14R21389   2.865   5.628   4.833  0.1445  0.0221 -0.8186
  175DOPC  H14S21390   2.716   5.589   4.912  2.9465 -1.4638  0.2697
  175DOPC  C21521391   2.758   5.805   4.909 -0.0174  0.6182  0.4184
  175DOPC  H15R21392   2.655   5.844   4.895 -0.5710 -0.5018  1.2846
  175DOPC  H15S21393   2.818   5.872   4.843  1.3483 -1.1098 -0.1814
  175DOPC  C21621394   2.799   5.821   5.052  0.3512 -0.5356 -0.4613
  175DOPC  H16R21395   2.800   5.929   5.077 -1.2730 -1.1238  2.6745
  175DOPC  H16S21396   2.906   5.796   5.065  0.3807 -0.5452 -0.7275
  175DOPC  C21721397   2.704   5.757   5.151  0.0500 -0.7269 -0.3228
  175DOPC  H17R21398   2.768   5.689   5.213  0.0922 -1.0377 -0.7022
  175DOPC  H17S21399   2.637   5.698   5.085 -0.4575  0.3245 -0.7654
  175DOPC  C21821400   2.610   5.851   5.227  0.1473 -0.1746 -1.0409
  175DOPC  H18R21401   2.594   5.944   5.170  0.3821  1.4852  1.4306
  175DOPC  H18S21402   2.634   5.867   5.335 -0.3017 -0.3173 -0.9200
  175DOPC  H18T21403   2.507   5.811   5.224 -0.1333  0.5048 -0.6174
  175DOPC   C3321404   3.499   6.052   3.474 -1.0353 -0.3871  0.1186
  175DOPC   H3X21405   3.496   6.133   3.398 -1.2315  0.5260  1.0600
  175DOPC   H3Y21406   3.602   6.049   3.515 -1.0912  2.6205  0.7314
  175DOPC   C3421407   3.420   6.090   3.596 -0.0067 -0.0420  0.4061
  175DOPC   H4X21408   3.315   6.056   3.582  0.0030 -0.2608  0.8562
  175DOPC   H4Y21409   3.418   6.200   3.616 -1.3321 -0.3078  1.9239
  175DOPC   C3521410   3.468   6.022   3.729 -0.1476 -0.0024  0.2057
  175DOPC   H5X21411   3.575   6.047   3.744  0.6186 -2.0705 -1.2729
  175DOPC   H5Y21412   3.448   5.913   3.719  2.6226 -0.4915 -0.7608
  175DOPC   C3621413   3.392   6.074   3.855  0.2937  0.3409 -0.4226
  175DOPC   H6X21414   3.327   6.161   3.830  0.8028  0.3345 -1.8604
  175DOPC   H6Y21415   3.322   5.990   3.866 -0.3198  0.4260 -2.9556
  175DOPC   C3721416   3.485   6.102   3.972 -0.2568 -0.2912 -0.6451
  175DOPC   H7X21417   3.552   6.015   3.989  0.5492  0.4959  0.3810
  175DOPC   H7Y21418   3.552   6.189   3.957 -0.1296 -0.8151 -3.5974
  175DOPC   C3821419   3.408   6.116   4.105  0.2453  0.0815  0.2773
  175DOPC   H8X21420   3.486   6.127   4.183 -0.7508  0.4903  1.2554
  175DOPC   H8Y21421   3.363   6.018   4.135 -1.7377  0.9287  0.2546
  175DOPC   C3921422   3.312   6.231   4.093  0.1322  0.7481  0.5028
  175DOPC   H9X21423   3.244   6.237   4.007 -0.7052 -0.6998  1.0293
  175DOPC  C31021424   3.291   6.320   4.188 -0.5463  0.7529 -0.1408
  175DOPC  H10X21425   3.246   6.420   4.174 -1.0202  0.5123 -0.3400
  175DOPC  C31121426   3.346   6.305   4.325 -0.8545  0.1809 -0.0090
  175DOPC  H11X21427   3.397   6.207   4.342  1.3955  0.9461 -1.7928
  175DOPC  H11Y21428   3.259   6.316   4.394  0.1063  4.1971  0.8072
  175DOPC  C31221429   3.449   6.411   4.362  0.4872  0.3315 -0.4343
  175DOPC  H12X21430   3.524   6.408   4.280  0.9496  2.3610 -0.1513
  175DOPC  H12Y21431   3.498   6.387   4.459 -2.0309  2.6190  1.5579
  175DOPC  C31321432   3.397   6.552   4.375  0.2591  0.3949  0.6357
  175DOPC  H13X21433   3.472   6.627   4.343  1.5512 -0.5624  1.3266
  175DOPC  H13Y21434   3.311   6.570   4.307  1.2524  1.7175 -0.3368
  175DOPC  C31421435   3.383   6.592   4.524 -0.7553 -0.6044  0.5107
  175DOPC  H14X21436   3.288   6.545   4.557 -0.6350  0.4374  2.5082
  175DOPC  H14Y21437   3.471   6.549   4.577 -0.3644 -3.1239 -1.9769
  175DOPC  C31521438   3.359   6.739   4.551 -0.1417 -0.4370 -1.1119
  175DOPC  H15X21439   3.301   6.795   4.475 -0.6748  3.0958  1.6347
  175DOPC  H15Y21440   3.450   6.802   4.562 -1.1559  0.8094  0.5311
  175DOPC  C31621441   3.280   6.750   4.681  0.3863  0.1757  0.2385
  175DOPC  H16X21442   3.177   6.711   4.673  0.9679 -1.1025 -2.1344
  175DOPC  H16Y21443   3.339   6.689   4.753  0.4364 -1.2076 -0.9263
  175DOPC  C31721444   3.266   6.892   4.747 -0.5695  0.3150  0.1980
  175DOPC  H17X21445   3.220   6.965   4.677  1.2674  0.8936 -0.4585
  175DOPC  H17Y21446   3.198   6.869   4.832 -0.0409  1.1672  0.8692
  175DOPC  C31821447   3.399   6.955   4.794  0.2878 -0.1412  0.3493
  175DOPC  H18X21448   3.378   7.036   4.867 -2.8363  0.8965 -1.4901
  175DOPC  H18Y21449   3.460   6.877   4.846 -1.6777 -1.6661  0.4703
  175DOPC  H18Z21450   3.450   6.991   4.702  0.1208  2.1020  1.0818
  176DOPC     N21451   3.565   0.760   2.218 -0.0082  0.0752  0.0551
  176DOPC   C1221452   3.564   0.904   2.265  0.1502  0.0854 -0.0514
  176DOPC  H12A21453   3.544   0.910   2.370 -0.6914  0.7253 -0.2328
  176DOPC  H12B21454   3.476   0.948   2.219 -0.1143  0.2365  0.5957
  176DOPC   C1321455   3.568   0.748   2.069 -0.5731 -0.4110 -0.6072
  176DOPC  H13A21456   3.582   0.645   2.039  2.4384 -0.5013  0.7259
  176DOPC  H13B21457   3.473   0.781   2.030 -1.0096 -0.7675  0.1485
  176DOPC  H13C21458   3.640   0.813   2.022 -2.3629  1.2607 -1.1862
  176DOPC   C1421459   3.436   0.681   2.255 -0.1321  0.1469  0.0112
  176DOPC  H14A21460   3.434   0.677   2.363  1.8419 -1.0403  0.0614
  176DOPC  H14B21461   3.347   0.721   2.210  0.6841  0.4936 -1.3586
  176DOPC  H14C21462   3.447   0.585   2.205  1.2754  0.5889 -0.5833
  176DOPC   C1521463   3.681   0.680   2.270 -0.1380 -0.1236 -0.6467
  176DOPC  H15A21464   3.774   0.711   2.223  1.7798 -1.1875  2.1969
  176DOPC  H15B21465   3.668   0.575   2.249  1.2010 -0.8343  1.7317
  176DOPC  H15C21466   3.676   0.687   2.377  0.2351  0.3276 -0.6514
  176DOPC   C1121467   3.691   0.999   2.235 -0.2071 -0.6456  0.6991
  176DOPC  H11A21468   3.676   1.005   2.126 -2.0585  1.3904  1.0015
  176DOPC  H11B21469   3.675   1.101   2.278 -1.4596 -0.2812 -0.5667
  176DOPC     P21470   3.953   1.010   2.217  0.0979 -0.3533 -0.3413
  176DOPC   O1321471   3.927   1.154   2.202  0.0288  0.2867  0.0480
  176DOPC   O1421472   4.004   0.945   2.096  0.5909  0.0712  0.2089
  176DOPC   O1221473   3.817   0.944   2.275 -0.1195  0.1309 -0.5101
  176DOPC   O1121474   4.045   0.994   2.344 -0.7719  0.3616  0.2830
  176DOPC    C121475   4.023   0.901   2.450  0.0115  0.0716  0.1845
  176DOPC    HA21476   4.122   0.871   2.491 -0.4272 -1.0581  0.4662
  176DOPC    HB21477   3.973   0.806   2.420 -1.2081  0.4467  0.9447
  176DOPC    C221478   3.929   0.949   2.567  0.4966  0.1244  0.5863
  176DOPC    HS21479   3.836   0.970   2.512  0.6001  3.4197  1.4463
  176DOPC   O2121480   3.971   1.071   2.615 -0.0428 -0.0067  0.1514
  176DOPC   C2121481   3.884   1.143   2.689  0.3960 -0.0866 -0.1854
  176DOPC   O2221482   3.774   1.106   2.721 -0.3272 -0.2498 -0.5965
  176DOPC   C2221483   3.963   1.263   2.729  0.4588  0.1452  0.0520
  176DOPC   H2R21484   3.960   1.334   2.644  3.0584  0.4956  0.1795
  176DOPC   H2S21485   4.069   1.236   2.750  1.3600  2.3059 -1.3716
  176DOPC    C321486   3.894   0.835   2.666  0.5445 -0.3459  0.1004
  176DOPC    HX21487   3.853   0.749   2.607 -0.8871 -0.2556  0.9124
  176DOPC    HY21488   3.802   0.856   2.724 -0.5819 -2.4336 -0.7981
  176DOPC   O3121489   4.005   0.796   2.749 -0.0609  0.6200  0.4286
  176DOPC   C3121490   3.990   0.827   2.882  0.6874 -0.0634  0.6274
  176DOPC   O3221491   3.905   0.907   2.920  0.0390 -0.3525 -0.7480
  176DOPC   C3221492   4.076   0.743   2.969 -0.0177  0.5589 -0.0333
  176DOPC   H2X21493   4.016   0.723   3.061  0.1140  0.9419  0.1358
  176DOPC   H2Y21494   4.107   0.649   2.918  1.1383  1.8002 -1.7313
  176DOPC   C2321495   3.899   1.334   2.852 -0.0462  0.2368 -0.2218
  176DOPC   H3R21496   3.789   1.343   2.847 -0.0625  1.1578  1.1742
  176DOPC   H3S21497   3.932   1.441   2.859 -1.3716  0.6980 -0.7581
  176DOPC   C2421498   3.938   1.263   2.980  0.2581  0.4079 -0.3875
  176DOPC   H4R21499   4.038   1.296   3.016 -0.6761  2.5067  0.4387
  176DOPC   H4S21500   3.947   1.154   2.963 -0.1900 -0.1567  2.3780
  176DOPC   C2521501   3.819   1.272   3.083 -0.0285 -0.8598 -0.0059
  176DOPC   H5R21502   3.726   1.227   3.042 -3.5216  2.8216  3.0579
  176DOPC   H5S21503   3.804   1.382   3.081  2.3442 -0.4676 -2.2726
  176DOPC   C2621504   3.856   1.223   3.217 -0.2639  0.5239 -0.0811
  176DOPC   H6R21505   3.922   1.296   3.269 -0.2246  1.7185 -1.7491
  176DOPC   H6S21506   3.909   1.126   3.202 -0.2095  0.2914  1.3970
  176DOPC   C2721507   3.747   1.187   3.311  0.3433  0.6039 -0.9736
  176DOPC   H7R21508   3.787   1.136   3.401 -2.8757  1.7082  1.2602
  176DOPC   H7S21509   3.679   1.115   3.261 -2.1663  1.2143  1.2966
  176DOPC   C2821510   3.648   1.298   3.357  0.5679 -0.1503 -0.1308
  176DOPC   H8R21511   3.581   1.259   3.436 -1.7412  0.3041 -1.7354
  176DOPC   H8S21512   3.572   1.321   3.278 -0.7853  1.3349  1.4922
  176DOPC   C2921513   3.691   1.437   3.404  0.5656  0.2180 -0.1120
  176DOPC   H9R21514   3.696   1.519   3.331  0.1931  0.7029  0.4005
  176DOPC  C21021515   3.741   1.462   3.526 -0.1797  0.0582  1.0245
  176DOPC  H10R21516   3.783   1.561   3.552 -0.9173  0.1659  1.8166
  176DOPC  C21121517   3.753   1.361   3.634 -0.7944 -0.5790  0.1288
  176DOPC  H11R21518   3.853   1.313   3.633 -1.0986 -1.2679  1.3686
  176DOPC  H11S21519   3.688   1.273   3.617 -0.5292 -0.7668  0.0768
  176DOPC  C21221520   3.720   1.420   3.775 -0.5054 -0.8289 -0.7117
  176DOPC  H12R21521   3.615   1.455   3.778 -1.5961 -3.6144  4.0280
  176DOPC  H12S21522   3.775   1.512   3.802 -0.8322 -0.8017 -0.1190
  176DOPC  C21321523   3.735   1.315   3.884  0.1716  0.6436  0.3362
  176DOPC  H13R21524   3.836   1.274   3.901 -0.4590 -0.9887  0.2831
  176DOPC  H13S21525   3.687   1.221   3.851  3.3462 -0.2813 -2.1345
  176DOPC  C21421526   3.675   1.364   4.011  0.3963 -0.6260  0.1239
  176DOPC  H14R21527   3.569   1.394   4.003  0.2620 -0.8926  0.8138
  176DOPC  H14S21528   3.727   1.457   4.043  0.7355 -0.9708  0.5986
  176DOPC  C21521529   3.676   1.253   4.122 -0.2359  0.0109  0.6000
  176DOPC  H15R21530   3.761   1.189   4.089 -0.6866 -0.0408 -0.4933
  176DOPC  H15S21531   3.604   1.172   4.098  1.7560 -1.5308 -0.4852
  176DOPC  C21621532   3.679   1.315   4.254  0.5573  0.1634 -0.0266
  176DOPC  H16R21533   3.680   1.233   4.328 -0.9014  0.5368  0.4381
  176DOPC  H16S21534   3.589   1.380   4.263  0.8105  1.2253 -3.4937
  176DOPC  C21721535   3.800   1.412   4.278  0.0888 -0.5223  0.4326
  176DOPC  H17R21536   3.762   1.511   4.245 -2.5643 -0.3067  3.5270
  176DOPC  H17S21537   3.880   1.385   4.206 -1.3891  1.2052 -1.9824
  176DOPC  C21821538   3.835   1.415   4.428  0.1559  0.4089  0.0752
  176DOPC  H18R21539   3.764   1.480   4.483 -2.8210 -0.8664 -1.9681
  176DOPC  H18S21540   3.939   1.452   4.438  0.0456  0.4827  0.9619
  176DOPC  H18T21541   3.829   1.306   4.452 -0.6222  0.5467  0.5128
  176DOPC   C3321542   4.207   0.820   3.020  0.1770  0.9602 -0.1659
  176DOPC   H3X21543   4.166   0.905   3.077 -0.7465 -0.5847  1.6057
  176DOPC   H3Y21544   4.255   0.872   2.934  0.2467  2.0966  0.5485
  176DOPC   C3421545   4.313   0.733   3.092 -0.3623 -0.6829 -0.2611
  176DOPC   H4X21546   4.400   0.801   3.103 -1.1856  0.2429  0.7131
  176DOPC   H4Y21547   4.339   0.642   3.033  0.4139 -0.5739 -0.0978
  176DOPC   C3521548   4.288   0.700   3.237  0.3642  0.2456  0.6142
  176DOPC   H5X21549   4.369   0.628   3.263 -0.1330  0.2802  2.3807
  176DOPC   H5Y21550   4.185   0.658   3.245 -0.1228  1.4648  0.8439
  176DOPC   C3621551   4.296   0.826   3.328  0.1473  0.4523  0.7822
  176DOPC   H6X21552   4.290   0.918   3.265 -1.5598  0.8652  1.5182
  176DOPC   H6Y21553   4.210   0.837   3.397  1.3097  0.5825  2.2587
  176DOPC   C3721554   4.423   0.828   3.418  0.2812 -0.0357 -0.3315
  176DOPC   H7X21555   4.505   0.793   3.351  0.8813  0.2587  0.2430
  176DOPC   H7Y21556   4.443   0.936   3.432  0.2308 -0.1114  0.3424
  176DOPC   C3821557   4.405   0.745   3.547 -0.1024  0.0714  0.8590
  176DOPC   H8X21558   4.405   0.637   3.522  0.7492  0.2900 -0.1425
  176DOPC   H8Y21559   4.303   0.769   3.584 -0.1830  0.1941  0.5615
  176DOPC   C3921560   4.497   0.779   3.658  0.2662  0.2428  0.2202
  176DOPC   H9X21561   4.510   0.888   3.673 -1.2023  0.4112  0.3353
  176DOPC  C31021562   4.548   0.691   3.749 -0.1305 -0.3876 -0.2422
  176DOPC  H10X21563   4.615   0.742   3.820 -0.8024  2.4533 -1.5038
  176DOPC  C31121564   4.531   0.543   3.754 -0.0296 -0.2203  0.1935
  176DOPC  H11X21565   4.634   0.504   3.740  0.0775  0.2520 -0.4023
  176DOPC  H11Y21566   4.483   0.504   3.661  0.1081 -0.3445  0.1734
  176DOPC  C31221567   4.445   0.481   3.867 -0.6684  0.0097  0.1260
  176DOPC  H12X21568   4.427   0.376   3.836  0.7617 -0.7363  1.6580
  176DOPC  H12Y21569   4.339   0.516   3.872 -1.9258 -3.0997 -1.6367
  176DOPC  C31321570   4.520   0.479   4.002  0.6453 -0.3117 -0.3033
  176DOPC  H13X21571   4.610   0.418   3.982  0.7653 -0.5151  0.7864
  176DOPC  H13Y21572   4.562   0.578   4.029 -0.2220  0.1564 -0.6151
  176DOPC  C31421573   4.428   0.418   4.111  0.1354 -0.7168  0.5652
  176DOPC  H14X21574   4.348   0.491   4.135  0.2920 -0.8560  1.5662
  176DOPC  H14Y21575   4.369   0.337   4.063 -2.6328  1.4113  0.1014
  176DOPC  C31521576   4.500   0.365   4.240  0.3914  0.2799 -0.1331
  176DOPC  H15X21577   4.573   0.448   4.258  1.7263  0.1587 -4.1277
  176DOPC  H15Y21578   4.563   0.279   4.210 -1.5932  0.0603 -4.2524
  176DOPC  C31621579   4.404   0.328   4.356 -0.2324 -0.8848  0.0080
  176DOPC  H16X21580   4.327   0.407   4.369 -0.7577 -1.2175 -0.9642
  176DOPC  H16Y21581   4.351   0.234   4.330  0.2958 -1.8615  2.2852
  176DOPC  C31721582   4.479   0.287   4.487  0.1055  0.5176  0.5185
  176DOPC  H17X21583   4.548   0.205   4.459 -0.0501  0.9554 -1.2997
  176DOPC  H17Y21584   4.535   0.369   4.536 -0.8843 -0.2645  3.1541
  176DOPC  C31821585   4.387   0.236   4.602 -0.0070  0.0201  0.3937
  176DOPC  H18X21586   4.453   0.209   4.687  1.3490  4.5686  1.0884
  176DOPC  H18Y21587   4.323   0.314   4.649  0.5175  0.1495  0.8951
  176DOPC  H18Z21588   4.321   0.148   4.588 -2.3875  1.4244  1.9860
  177DOPC     N21589   4.801   5.102   2.858  0.0841  0.1644  0.0742
  177DOPC   C1221590   4.662   5.067   2.903  0.0180 -0.1915  0.5617
  177DOPC  H12A21591   4.605   5.065   2.812  1.9908  1.2187 -0.7844
  177DOPC  H12B21592   4.622   5.140   2.972  0.4570  0.3665  0.2334
  177DOPC   C1321593   4.812   5.236   2.804  0.1056 -0.2553  0.3595
  177DOPC  H13A21594   4.915   5.252   2.775  0.1513 -0.0566  0.6224
  177DOPC  H13B21595   4.748   5.244   2.718 -0.5172 -1.0098  0.7474
  177DOPC  H13C21596   4.775   5.308   2.876 -1.8666  0.0785 -0.9351
  177DOPC   C1421597   4.865   5.006   2.757  0.4654 -0.2605 -0.7602
  177DOPC  H14A21598   4.830   4.907   2.783 -0.9898  0.7628  1.4770
  177DOPC  H14B21599   4.838   5.033   2.656  0.2528  0.9871 -0.3811
  177DOPC  H14C21600   4.972   5.011   2.768  0.5456 -0.8231 -1.2429
  177DOPC   C1521601   4.885   5.105   2.983 -0.3149 -0.1228  0.3808
  177DOPC  H15A21602   4.890   5.003   3.019  0.2339 -0.3082 -0.2023
  177DOPC  H15B21603   4.828   5.156   3.060 -0.4417 -1.7464  1.4235
  177DOPC  H15C21604   4.980   5.153   2.966 -0.8610  0.8429 -0.0658
  177DOPC   C1121605   4.638   4.928   2.968  0.5736 -0.7635  0.0445
  177DOPC  H11A21606   4.696   4.912   3.061  1.3355 -1.5126 -0.5466
  177DOPC  H11B21607   4.530   4.923   2.992  0.6945  0.7605  1.0556
  177DOPC     P21608   4.575   4.778   2.764  0.3863  0.3049  0.3975
  177DOPC   O1321609   4.632   4.668   2.686 -0.0966  0.2490 -0.0646
  177DOPC   O1421610   4.513   4.888   2.693 -0.4648  0.2341  0.1219
  177DOPC   O1221611   4.680   4.836   2.867 -0.9513 -0.0841  0.1630
  177DOPC   O1121612   4.460   4.722   2.865  0.3494 -0.6090 -0.5042
  177DOPC    C121613   4.494   4.613   2.948  0.6973  0.9148  0.1454
  177DOPC    HA21614   4.603   4.593   2.961  0.1527 -3.1503 -0.3059
  177DOPC    HB21615   4.456   4.522   2.898  3.3498 -0.2758  0.1067
  177DOPC    C221616   4.438   4.625   3.088  0.3828 -0.1494 -0.0792
  177DOPC    HS21617   4.328   4.640   3.083  0.0375 -2.5753 -1.6024
  177DOPC   O2121618   4.492   4.739   3.148 -0.7857  0.8004 -0.1441
  177DOPC   C2121619   4.449   4.769   3.271  0.5829  0.3126  0.2848
  177DOPC   O2221620   4.355   4.715   3.324  0.5242 -0.2524  0.5064
  177DOPC   C2221621   4.543   4.879   3.325  0.0697 -0.0376  0.5737
  177DOPC   H2R21622   4.543   4.959   3.248  0.2608 -2.0054 -1.5864
  177DOPC   H2S21623   4.645   4.839   3.309  0.4606  1.1574  0.0455
  177DOPC    C321624   4.460   4.493   3.171 -0.5277  0.0635  0.5735
  177DOPC    HX21625   4.410   4.418   3.106 -2.1542  1.4294  0.1940
  177DOPC    HY21626   4.409   4.494   3.269 -0.8758 -0.7815  0.4079
  177DOPC   O3121627   4.599   4.454   3.183 -0.4828  0.0661 -0.1649
  177DOPC   C3121628   4.650   4.460   3.307 -0.1164  0.1140 -0.3673
  177DOPC   O3221629   4.596   4.494   3.407  0.5253  0.3150 -0.3246
  177DOPC   C3221630   4.797   4.430   3.297  0.0150 -0.5641  0.0097
  177DOPC   H2X21631   4.818   4.326   3.332  2.4854 -1.3495 -3.3146
  177DOPC   H2Y21632   4.826   4.421   3.190 -1.5493 -1.5308 -0.3683
  177DOPC   C2321633   4.507   4.931   3.467 -0.2285  0.3694 -0.2336
  177DOPC   H3R21634   4.594   4.996   3.488  0.8264 -0.7110 -1.1407
  177DOPC   H3S21635   4.495   4.851   3.543  0.2027  1.3241  0.8625
  177DOPC   C2421636   4.378   5.013   3.483 -0.2652  0.1518 -0.2889
  177DOPC   H4R21637   4.294   4.948   3.449 -0.0163  0.3928 -1.3961
  177DOPC   H4S21638   4.367   5.096   3.410 -3.9933  0.1535  0.0609
  177DOPC   C2521639   4.352   5.051   3.632 -0.4438  0.1938  0.0087
  177DOPC   H5R21640   4.433   5.122   3.661  1.7937 -2.5859  0.9730
  177DOPC   H5S21641   4.356   4.962   3.698  0.9097  0.0847 -0.2012
  177DOPC   C2621642   4.216   5.117   3.654  0.3166 -0.0385  0.1783
  177DOPC   H6R21643   4.147   5.030   3.639 -0.6941  0.6819  0.4994
  177DOPC   H6S21644   4.187   5.193   3.578 -0.8806  0.2814  0.9146
  177DOPC   C2721645   4.189   5.186   3.790 -1.1024  0.3053 -0.5544
  177DOPC   H7R21646   4.250   5.277   3.773 -0.4765 -0.3307 -1.8192
  177DOPC   H7S21647   4.230   5.124   3.873  1.6852 -0.8842 -2.6465
  177DOPC   C2821648   4.041   5.226   3.820 -0.5074 -0.5177  0.1719
  177DOPC   H8R21649   3.967   5.144   3.830 -2.1739  0.7590 -1.1137
  177DOPC   H8S21650   4.003   5.268   3.725  0.1266 -3.5383 -1.5236
  177DOPC   C2921651   4.035   5.321   3.942  0.0953 -0.0766 -0.1701
  177DOPC   H9R21652   4.105   5.405   3.948 -0.9184  0.7785 -0.0354
  177DOPC  C21021653   3.938   5.339   4.035 -0.1276  0.0763 -0.5666
  177DOPC  H10R21654   3.956   5.413   4.115 -0.3196  1.2450 -1.5770
  177DOPC  C21121655   3.830   5.243   4.068  0.2336 -0.1698  0.4465
  177DOPC  H11R21656   3.854   5.164   4.143 -0.7878 -0.6980  0.2320
  177DOPC  H11S21657   3.806   5.193   3.972  0.5463  1.6903 -0.6381
  177DOPC  C21221658   3.700   5.309   4.115  0.0177 -0.1970 -0.5037
  177DOPC  H12R21659   3.619   5.234   4.108  0.8428 -1.2383  0.7336
  177DOPC  H12S21660   3.669   5.389   4.045  0.5327  1.7292  1.3537
  177DOPC  C21321661   3.708   5.374   4.253  0.4821 -0.3929  0.2920
  177DOPC  H13R21662   3.613   5.431   4.261  1.4129  1.2945 -0.0481
  177DOPC  H13S21663   3.774   5.464   4.257 -0.7115  0.4806  1.1185
  177DOPC  C21421664   3.717   5.276   4.375  0.0433 -0.1012 -0.1981
  177DOPC  H14R21665   3.811   5.218   4.368  0.4520  0.6742 -1.4207
  177DOPC  H14S21666   3.627   5.213   4.367 -0.6778  0.6516  1.4750
  177DOPC  C21521667   3.702   5.340   4.514 -1.0435  0.4302  0.6505
  177DOPC  H15R21668   3.632   5.426   4.512 -0.7648  0.6769  1.1704
  177DOPC  H15S21669   3.797   5.389   4.545 -2.0570  1.8208  1.7195
  177DOPC  C21621670   3.670   5.238   4.619 -0.3009  0.2297 -0.2704
  177DOPC  H16R21671   3.571   5.194   4.595 -0.5317  1.5119 -1.8515
  177DOPC  H16S21672   3.664   5.292   4.716  0.5606  0.2818 -0.2348
  177DOPC  C21721673   3.774   5.131   4.631 -0.4766  0.9179  0.5495
  177DOPC  H17R21674   3.874   5.177   4.643  0.3516 -0.4272 -0.8285
  177DOPC  H17S21675   3.788   5.080   4.534  0.3779  1.6310  0.2870
  177DOPC  C21821676   3.750   5.032   4.748  0.6076  0.2786 -0.0923
  177DOPC  H18R21677   3.824   4.949   4.752  1.6601  1.1252 -1.1304
  177DOPC  H18S21678   3.646   4.994   4.738  0.8634 -0.3680 -0.3329
  177DOPC  H18T21679   3.747   5.083   4.846  0.6594 -0.9430  0.5646
  177DOPC   C3321680   4.894   4.533   3.367 -0.4694 -0.2222  0.0497
  177DOPC   H3X21681   4.834   4.623   3.397 -0.3674  0.1239 -0.7517
  177DOPC   H3Y21682   4.968   4.567   3.291 -0.3196  0.4440  0.4847
  177DOPC   C3421683   4.964   4.478   3.496  1.5154 -0.0169  0.8759
  177DOPC   H4X21684   5.019   4.552   3.558  0.8461  0.2860  1.1178
  177DOPC   H4Y21685   5.044   4.410   3.461  1.7222 -0.4884  2.1976
  177DOPC   C3521686   4.879   4.415   3.601 -0.0765  0.2566 -0.4503
  177DOPC   H5X21687   4.859   4.309   3.576 -4.2977  0.9332 -0.5847
  177DOPC   H5Y21688   4.784   4.472   3.603 -0.0460  0.4123 -2.0448
  177DOPC   C3621689   4.946   4.422   3.749  0.6915 -0.2897  0.0367
  177DOPC   H6X21690   5.030   4.351   3.762  1.1100  0.5955  2.8767
  177DOPC   H6Y21691   4.981   4.528   3.759 -2.7645  1.4020 -3.4507
  177DOPC   C3721692   4.839   4.382   3.854  0.4083 -0.0929 -0.0915
  177DOPC   H7X21693   4.742   4.428   3.826 -0.5888 -0.2890  2.6743
  177DOPC   H7Y21694   4.815   4.276   3.832 -0.9390  0.2444 -0.3196
  177DOPC   C3821695   4.880   4.392   3.996 -0.5961 -0.1698  0.3335
  177DOPC   H8X21696   4.960   4.321   4.026 -0.5613 -1.7492 -3.0110
  177DOPC   H8Y21697   4.799   4.358   4.064 -2.7154 -0.5289 -2.2045
  177DOPC   C3921698   4.918   4.536   4.034  0.3465 -0.3197 -0.5481
  177DOPC   H9X21699   4.840   4.613   4.047  1.1058 -0.0120  3.5196
  177DOPC  C31021700   5.040   4.582   4.076 -0.0490  0.0062  0.0892
  177DOPC  H10X21701   5.046   4.685   4.115  0.0128 -0.4748  1.4289
  177DOPC  C31121702   5.165   4.502   4.055 -0.0633  0.2968 -0.1222
  177DOPC  H11X21703   5.202   4.533   3.955  0.6123 -0.2921 -0.0626
  177DOPC  H11Y21704   5.151   4.392   4.069 -1.6543  0.3311 -1.1899
  177DOPC  C31221705   5.273   4.543   4.163 -0.6134  0.1806  0.5827
  177DOPC  H12X21706   5.364   4.489   4.130 -1.2663  0.6232 -2.2349
  177DOPC  H12Y21707   5.242   4.508   4.264 -0.6782  1.2502  0.9490
  177DOPC  C31321708   5.315   4.698   4.161  0.5640 -0.0327  0.0354
  177DOPC  H13X21709   5.347   4.733   4.060 -3.5452  2.0416 -0.7553
  177DOPC  H13Y21710   5.229   4.760   4.194 -0.1673 -0.5354 -0.8848
  177DOPC  C31421711   5.428   4.730   4.262 -0.7551 -0.7843  0.1550
  177DOPC  H14X21712   5.513   4.673   4.220  0.9721  2.2551 -0.8370
  177DOPC  H14Y21713   5.468   4.833   4.250 -2.9891 -0.0509 -1.7835
  177DOPC  C31521714   5.418   4.687   4.405 -0.4160 -0.1347  0.1236
  177DOPC  H15X21715   5.330   4.619   4.413 -2.2086  2.0612 -0.0077
  177DOPC  H15Y21716   5.390   4.771   4.473  1.3830 -0.3548  1.2014
  177DOPC  C31621717   5.549   4.623   4.458 -0.9934  0.3988 -0.5845
  177DOPC  H16X21718   5.570   4.524   4.412 -2.6424  0.1128 -0.7523
  177DOPC  H16Y21719   5.635   4.690   4.439  0.2512 -0.6484  1.0075
  177DOPC  C31721720   5.535   4.601   4.605  0.9764 -0.5960 -0.3178
  177DOPC  H17X21721   5.511   4.698   4.654 -3.4594 -0.2617 -2.6317
  177DOPC  H17Y21722   5.450   4.532   4.623  0.6365 -0.7140 -2.1131
  177DOPC  C31821723   5.667   4.547   4.667  0.3077  0.0627 -0.2067
  177DOPC  H18X21724   5.674   4.586   4.771 -0.5535 -0.3094  0.0009
  177DOPC  H18Y21725   5.683   4.437   4.661  0.6871  0.0227  1.2993
  177DOPC  H18Z21726   5.747   4.595   4.606  0.7174 -0.4383 -0.0692
  178DOPC     N21727   1.978   5.151   2.562  0.8076 -0.5316 -0.2608
  178DOPC   C1221728   1.994   5.204   2.703  0.7025 -0.2817  0.3940
  178DOPC  H12A21729   1.950   5.143   2.780  1.3384  0.2035  1.1613
  178DOPC  H12B21730   1.954   5.304   2.710  1.1295 -0.1196  0.5425
  178DOPC   C1321731   1.834   5.148   2.527 -0.5106 -0.3447 -1.0131
  178DOPC  H13A21732   1.819   5.106   2.429  0.3953  2.7577 -2.5940
  178DOPC  H13B21733   1.787   5.092   2.607 -0.3885  2.0876  0.8707
  178DOPC  H13C21734   1.787   5.245   2.523  0.8939  0.3238 -2.1596
  178DOPC   C1421735   2.037   5.016   2.537 -0.1858 -0.2076  0.2956
  178DOPC  H14A21736   2.002   4.968   2.447 -0.8758  1.7183 -0.5074
  178DOPC  H14B21737   2.144   5.008   2.534  0.1748  2.5273  2.2808
  178DOPC  H14C21738   2.017   4.949   2.620 -0.0352  1.5321  1.7909
  178DOPC   C1521739   2.047   5.257   2.482  0.4062  0.0638 -0.0710
  178DOPC  H15A21740   2.050   5.239   2.376  1.0672  1.4030 -0.2980
  178DOPC  H15B21741   2.150   5.246   2.511  0.6643  0.9607 -0.6150
  178DOPC  H15C21742   2.012   5.357   2.502  0.5032  0.4864 -1.8387
  178DOPC   C1121743   2.144   5.217   2.753 -0.1077  0.1061  0.0871
  178DOPC  H11A21744   2.188   5.116   2.760  0.6125  0.3546 -0.6689
  178DOPC  H11B21745   2.203   5.279   2.682  0.8611 -0.8454  0.0307
  178DOPC     P21746   2.120   5.423   2.914 -0.0848  0.1006 -0.1632
  178DOPC   O1321747   2.059   5.491   2.801 -0.1641  0.2921 -0.3958
  178DOPC   O1421748   2.246   5.484   2.970  0.2845  0.2736  0.0514
  178DOPC   O1221749   2.149   5.275   2.882  0.0404  0.5464  0.2330
  178DOPC   O1121750   2.010   5.415   3.024 -0.3014 -0.2335  0.0972
  178DOPC    C121751   2.030   5.320   3.127  0.9792 -0.3416  0.2600
  178DOPC    HA21752   2.135   5.312   3.164  0.9615 -0.0503  0.3756
  178DOPC    HB21753   2.012   5.220   3.081 -0.1150  1.0181 -2.4664
  178DOPC    C221754   1.938   5.332   3.252  0.2010  0.0155  0.2247
  178DOPC    HS21755   1.832   5.306   3.234 -0.6517  2.4624  1.2452
  178DOPC   O2121756   1.947   5.470   3.305 -0.0750 -0.5321 -0.1674
  178DOPC   C2121757   1.852   5.549   3.262  0.3610 -0.5384  0.1575
  178DOPC   O2221758   1.762   5.521   3.181 -0.3442  0.2662  0.2052
  178DOPC   C2221759   1.881   5.700   3.300  0.2452 -0.3312  0.5509
  178DOPC   H2R21760   1.928   5.752   3.214 -0.0871  0.1009  0.6221
  178DOPC   H2S21761   1.965   5.702   3.373  1.9349  0.7760 -1.3165
  178DOPC    C321762   1.986   5.232   3.354 -0.3815  0.1407 -0.1226
  178DOPC    HX21763   2.093   5.257   3.366 -0.1386  0.2435 -2.1968
  178DOPC    HY21764   1.976   5.130   3.312  0.3802 -0.5406  1.2814
  178DOPC   O3121765   1.912   5.255   3.470 -0.1312 -0.2833 -0.4654
  178DOPC   C3121766   1.797   5.191   3.496 -0.3310 -0.5049  0.9192
  178DOPC   O3221767   1.755   5.102   3.426 -0.2868 -0.0622  0.1854
  178DOPC   C3221768   1.713   5.240   3.617 -0.1256  0.4973 -0.1774
  178DOPC   H2X21769   1.744   5.342   3.650 -0.5520  1.3332 -2.1979
  178DOPC   H2Y21770   1.614   5.256   3.570 -0.1513 -0.0462 -0.3109
  178DOPC   C2321771   1.743   5.769   3.347 -0.8116  0.7490 -0.3728
  178DOPC   H3R21772   1.656   5.736   3.285  1.1485  1.3356 -3.6868
  178DOPC   H3S21773   1.742   5.880   3.338 -2.0032  0.7179 -0.8880
  178DOPC   C2421774   1.717   5.734   3.496  0.7512 -0.4255 -0.7265
  178DOPC   H4R21775   1.803   5.771   3.556 -0.7434  2.8300 -0.4109
  178DOPC   H4S21776   1.700   5.625   3.509 -0.0376 -0.2293 -0.0095
  178DOPC   C2521777   1.587   5.804   3.546 -0.3010  0.0260 -0.2593
  178DOPC   H5R21778   1.559   5.755   3.642  0.2997  2.1027  1.0403
  178DOPC   H5S21779   1.502   5.792   3.476  1.8067  1.0372 -3.1794
  178DOPC   C2621780   1.610   5.952   3.593 -0.1849  0.5367  0.6818
  178DOPC   H6R21781   1.512   5.993   3.626 -1.8615 -1.7443 -1.1085
  178DOPC   H6S21782   1.626   6.006   3.497 -1.1877  0.7568  0.6287
  178DOPC   C2721783   1.734   5.982   3.684  0.1259 -0.0891 -0.0949
  178DOPC   H7R21784   1.832   5.961   3.635  0.2940 -0.2471  0.3011
  178DOPC   H7S21785   1.732   5.915   3.773 -0.3238  0.4242  0.2856
  178DOPC   C2821786   1.721   6.134   3.726 -0.0537 -0.4527  0.3927
  178DOPC   H8R21787   1.617   6.153   3.760  0.1798  1.6561  0.0060
  178DOPC   H8S21788   1.737   6.172   3.623  0.6276  1.3552  1.1401
  178DOPC   C2921789   1.830   6.177   3.815  0.0090  0.1604 -0.5060
  178DOPC   H9R21790   1.924   6.133   3.778  0.0184 -1.1869  1.0271
  178DOPC  C21021791   1.832   6.257   3.921  0.0662 -0.3259  0.1286
  178DOPC  H10R21792   1.929   6.266   3.971 -0.6862 -0.1971  1.6308
  178DOPC  C21121793   1.717   6.321   3.995  0.6789  0.1887  0.3448
  178DOPC  H11R21794   1.620   6.267   3.992  0.2823  0.7628  1.9410
  178DOPC  H11S21795   1.691   6.420   3.952  0.5745 -0.0522 -0.1529
  178DOPC  C21221796   1.730   6.346   4.142 -0.2340 -0.6867  0.2327
  178DOPC  H12R21797   1.660   6.424   4.179 -0.3877  0.9079 -3.0826
  178DOPC  H12S21798   1.826   6.401   4.158 -2.6189  2.9142  4.1346
  178DOPC  C21321799   1.701   6.219   4.221  0.4484 -0.8483  0.3586
  178DOPC  H13R21800   1.761   6.135   4.180  1.0535  1.0737 -3.0029
  178DOPC  H13S21801   1.593   6.195   4.217 -0.1962  1.4263  2.3436
  178DOPC  C21421802   1.723   6.232   4.369 -0.2027 -0.1300 -0.3956
  178DOPC  H14R21803   1.654   6.306   4.415  1.8924  1.6008  0.1349
  178DOPC  H14S21804   1.829   6.260   4.383 -0.1830  0.2099 -1.1464
  178DOPC  C21521805   1.707   6.085   4.422  0.7719 -0.0559 -0.0878
  178DOPC  H15R21806   1.749   6.016   4.347  0.4102  0.1515 -0.4804
  178DOPC  H15S21807   1.597   6.075   4.435  0.5997  0.7548 -0.8362
  178DOPC  C21621808   1.785   6.068   4.554  0.0223  0.1770  0.3407
  178DOPC  H16R21809   1.759   6.159   4.613 -1.9967 -0.1346  0.0046
  178DOPC  H16S21810   1.894   6.074   4.537 -0.0989 -0.9273 -0.9975
  178DOPC  C21721811   1.753   5.932   4.625  0.1281  0.0779 -0.5384
  178DOPC  H17R21812   1.787   5.844   4.566 -1.2533 -1.0531  0.3003
  178DOPC  H17S21813   1.644   5.918   4.640  0.2707  1.0162  1.8552
  178DOPC  C21821814   1.814   5.914   4.770  0.1395 -0.4242 -0.2685
  178DOPC  H18R21815   1.924   5.903   4.764  0.1588 -0.6386  0.3589
  178DOPC  H18S21816   1.774   5.828   4.828  1.0769 -0.7459 -0.0785
  178DOPC  H18T21817   1.801   6.007   4.829 -0.2621  0.5445 -1.8153
  178DOPC   C3321818   1.723   5.144   3.732  0.8724 -0.5121 -0.0410
  178DOPC   H3X21819   1.830   5.119   3.750  0.9377 -0.9686 -0.9755
  178DOPC   H3Y21820   1.674   5.047   3.708  2.6796 -0.8544 -2.8180
  178DOPC   C3421821   1.653   5.190   3.856  0.1203 -0.1815  0.3328
  178DOPC   H4X21822   1.551   5.227   3.829 -0.1347  0.9480  2.6000
  178DOPC   H4Y21823   1.700   5.285   3.891 -0.5843  0.2065  0.2615
  178DOPC   C3521824   1.622   5.066   3.955 -0.1222  0.3534  0.3652
  178DOPC   H5X21825   1.720   5.029   3.992 -0.5224 -0.2096  0.9013
  178DOPC   H5Y21826   1.574   4.989   3.890  1.4791  0.5807 -1.1253
  178DOPC   C3621827   1.540   5.112   4.076  0.1403 -0.5634 -0.4768
  178DOPC   H6X21828   1.576   5.211   4.111 -0.4761 -0.6969  0.5860
  178DOPC   H6Y21829   1.434   5.130   4.048  0.2919  0.2674 -0.5128
  178DOPC   C3721830   1.545   5.020   4.200  0.6988  0.3989  0.2582
  178DOPC   H7X21831   1.489   4.929   4.170 -1.7955  1.6339  0.9321
  178DOPC   H7Y21832   1.650   4.990   4.221  0.8072  0.1969 -0.5574
  178DOPC   C3821833   1.487   5.074   4.323  0.0034  0.2704 -0.5472
  178DOPC   H8X21834   1.462   4.993   4.395 -2.5091  1.3706 -0.0878
  178DOPC   H8Y21835   1.393   5.121   4.289  1.2623  1.7538 -2.1926
  178DOPC   C3921836   1.582   5.181   4.382 -0.2913  0.0762  0.3591
  178DOPC   H9X21837   1.573   5.286   4.349  0.3991 -0.2341 -0.9150
  178DOPC  C31021838   1.689   5.161   4.461  0.1820  0.4493 -0.5702
  178DOPC  H10X21839   1.743   5.248   4.499 -2.3359  1.3751  1.1928
  178DOPC  C31121840   1.729   5.022   4.513 -0.1222  0.4567  0.1163
  178DOPC  H11X21841   1.798   4.975   4.440  1.7677 -0.0748  2.1274
  178DOPC  H11Y21842   1.659   4.936   4.516  2.4075 -1.7110  2.8001
  178DOPC  C31221843   1.811   5.025   4.639 -0.7770 -0.3460 -0.0331
  178DOPC  H12X21844   1.893   5.099   4.627 -2.2607  1.5150  0.5828
  178DOPC  H12Y21845   1.862   4.928   4.651 -0.1541  0.1283  1.4266
  178DOPC  C31321846   1.732   5.056   4.768  0.4976  0.3472  0.1019
  178DOPC  H13X21847   1.684   5.156   4.763  2.4003  1.4340  1.9618
  178DOPC  H13Y21848   1.650   4.981   4.775  2.0048 -1.2243  1.8875
  178DOPC  C31421849   1.808   5.052   4.902  0.0900 -0.4041 -0.7319
  178DOPC  H14X21850   1.725   5.047   4.976  0.7235 -0.0408  0.0180
  178DOPC  H14Y21851   1.853   4.950   4.903  0.0493 -0.4242 -0.1254
  178DOPC  C31521852   1.913   5.159   4.923 -0.1746  0.4426 -0.0503
  178DOPC  H15X21853   1.862   5.256   4.904  2.1335  2.1196  1.7736
  178DOPC  H15Y21854   1.992   5.140   4.847 -2.8426 -1.0289 -2.6875
  178DOPC  C31621855   1.974   5.164   5.064 -0.0444 -0.3206  0.1661
  178DOPC  H16X21856   2.040   5.075   5.075 -1.0401 -1.4309 -2.1469
  178DOPC  H16Y21857   2.039   5.254   5.068  0.0225 -0.3073 -0.9374
  178DOPC  C31721858   1.864   5.180   5.169 -0.2132 -0.5157  0.7635
  178DOPC  H17X21859   1.807   5.270   5.138 -1.1549 -1.9274 -1.8526
  178DOPC  H17Y21860   1.791   5.095   5.167 -0.2487 -0.4736 -0.0525
  178DOPC  C31821861   1.915   5.223   5.305  0.1153  0.0808 -0.2076
  178DOPC  H18X21862   1.831   5.261   5.367 -0.6171 -0.5161 -0.8279
  178DOPC  H18Y21863   1.931   5.130   5.364  1.0019  0.7550  0.6590
  178DOPC  H18Z21864   2.008   5.284   5.307 -0.4584  0.9491  1.2142
  179DOPC     N21865   6.270   5.006   3.278 -1.1228 -0.2524  0.3140
  179DOPC   C1221866   6.285   4.861   3.300  0.3193  0.0473 -0.0280
  179DOPC  H12A21867   6.275   4.837   3.405 -0.5417  0.2533 -0.0525
  179DOPC  H12B21868   6.377   4.814   3.271  0.4553  0.0904  0.3243
  179DOPC   C1321869   6.356   5.078   3.380 -0.0777  0.1992 -0.3555
  179DOPC  H13A21870   6.459   5.045   3.386 -1.1121 -3.5758 -1.0282
  179DOPC  H13B21871   6.359   5.182   3.352 -2.1630  1.1834  2.6149
  179DOPC  H13C21872   6.310   5.075   3.478 -0.9273  0.2016 -0.7493
  179DOPC   C1421873   6.136   5.054   3.285  0.6126 -0.2152  0.2281
  179DOPC  H14A21874   6.080   5.011   3.204  0.4068  0.9387 -0.2596
  179DOPC  H14B21875   6.093   5.015   3.376  0.0434  0.4350  0.2440
  179DOPC  H14C21876   6.141   5.161   3.275  1.9556 -0.4122 -1.8139
  179DOPC   C1521877   6.324   5.040   3.145  0.1435 -0.9287  0.0477
  179DOPC  H15A21878   6.266   4.995   3.066 -1.5480 -3.6919  2.6282
  179DOPC  H15B21879   6.426   5.004   3.136 -0.2214 -1.6499 -1.5828
  179DOPC  H15C21880   6.326   5.146   3.130  2.1517 -0.8533  0.5350
  179DOPC   C1121881   6.174   4.769   3.233  0.2962  1.1170 -0.0367
  179DOPC  H11A21882   6.180   4.797   3.126 -3.7130 -2.4814 -1.4578
  179DOPC  H11B21883   6.212   4.667   3.251 -0.5285  0.7079 -0.5853
  179DOPC     P21884   5.991   4.726   3.412 -0.0857  0.0967 -0.2104
  179DOPC   O1321885   6.040   4.593   3.455 -0.6042  0.0972  0.0223
  179DOPC   O1421886   5.845   4.738   3.419 -0.0722  0.0731 -0.5074
  179DOPC   O1221887   6.043   4.789   3.285  0.4332 -0.5581  0.3158
  179DOPC   O1121888   6.034   4.843   3.518  0.3844  0.0018  0.5335
  179DOPC    C121889   6.112   4.825   3.642  0.7864 -0.2707  0.6742
  179DOPC    HA21890   6.138   4.925   3.683 -0.6947  0.1143  0.7243
  179DOPC    HB21891   6.211   4.788   3.608  0.6694  1.3882 -1.7233
  179DOPC    C221892   6.051   4.750   3.752 -0.7636 -0.4592 -0.2563
  179DOPC    HS21893   6.020   4.649   3.717 -2.4862 -0.3247  0.7896
  179DOPC   O2121894   5.938   4.823   3.804 -0.3061 -0.3866  0.2252
  179DOPC   C2121895   5.826   4.764   3.836  0.7095 -1.5817  0.0287
  179DOPC   O2221896   5.802   4.644   3.829 -0.8763 -0.3887  0.1354
  179DOPC   C2221897   5.727   4.870   3.898 -0.0445  0.1721  0.5397
  179DOPC   H2R21898   5.628   4.828   3.870 -0.1329  0.7193  0.0176
  179DOPC   H2S21899   5.728   4.965   3.840 -1.0100 -0.0546  0.1371
  179DOPC    C321900   6.158   4.729   3.865  0.3104  0.0007  0.3340
  179DOPC    HX21901   6.191   4.824   3.910  0.1719  0.3959 -0.3841
  179DOPC    HY21902   6.243   4.683   3.808 -1.2029 -1.7373 -0.6544
  179DOPC   O3121903   6.116   4.655   3.977 -0.3238  0.4997  0.4291
  179DOPC   C3121904   6.117   4.513   3.961 -0.0500 -0.6349  0.2598
  179DOPC   O3221905   6.152   4.459   3.858 -0.2124 -0.0190  0.3011
  179DOPC   C3221906   6.047   4.450   4.077 -1.1147 -0.4764 -0.1395
  179DOPC   H2X21907   5.941   4.434   4.050 -1.1010 -2.8473  0.9277
  179DOPC   H2Y21908   6.078   4.344   4.095 -1.5844 -0.6033 -0.0842
  179DOPC   C2321909   5.758   4.931   4.037  0.3350 -0.2267 -0.0313
  179DOPC   H3R21910   5.866   4.957   4.042 -0.1877  1.8788  1.9487
  179DOPC   H3S21911   5.734   4.866   4.124  1.2463 -0.2058  0.2502
  179DOPC   C2421912   5.683   5.069   4.059  0.7537 -0.5653 -0.2382
  179DOPC   H4R21913   5.577   5.037   4.057  0.7024 -0.7630  2.4468
  179DOPC   H4S21914   5.690   5.146   3.979 -0.7086  1.9720  1.9127
  179DOPC   C2521915   5.710   5.146   4.199 -0.0030  0.7503  0.3810
  179DOPC   H5R21916   5.820   5.152   4.212  0.6848 -1.6420 -3.0685
  179DOPC   H5S21917   5.663   5.074   4.269 -1.1550  0.3077 -0.7979
  179DOPC   C2621918   5.655   5.290   4.204  0.2245 -0.1879 -0.3658
  179DOPC   H6R21919   5.547   5.280   4.179  0.5845 -1.1175 -1.6742
  179DOPC   H6S21920   5.700   5.348   4.120 -2.8429  2.5294 -0.3170
  179DOPC   C2721921   5.678   5.349   4.344 -0.7201  0.0615 -0.4755
  179DOPC   H7R21922   5.784   5.355   4.377 -0.9795  0.4803  0.3100
  179DOPC   H7S21923   5.618   5.291   4.418 -1.6076  3.0802  1.3629
  179DOPC   C2821924   5.626   5.502   4.348 -0.4982 -0.6393  0.2965
  179DOPC   H8R21925   5.614   5.524   4.456 -0.9778 -0.4354  0.2029
  179DOPC   H8S21926   5.526   5.511   4.300  0.3962  1.2733 -1.3824
  179DOPC   C2921927   5.723   5.592   4.274  0.2473  0.4474  0.2367
  179DOPC   H9R21928   5.707   5.589   4.166  0.9939 -2.1760  0.1457
  179DOPC  C21021929   5.819   5.663   4.332 -0.4770  0.2326 -0.0172
  179DOPC  H10R21930   5.882   5.727   4.269  1.5861 -1.3779  0.2977
  179DOPC  C21121931   5.855   5.652   4.483 -0.4907 -0.5361  0.3172
  179DOPC  H11R21932   5.964   5.676   4.485 -0.6738  0.4444 -0.6366
  179DOPC  H11S21933   5.849   5.547   4.520 -2.3418 -0.6047 -0.0931
  179DOPC  C21221934   5.786   5.750   4.581 -0.3212 -0.1819  0.0987
  179DOPC  H12R21935   5.678   5.727   4.591 -0.1719 -0.4734  1.0670
  179DOPC  H12S21936   5.785   5.854   4.542 -1.5635  1.3145  3.7119
  179DOPC  C21321937   5.860   5.746   4.714 -0.1033 -0.0910 -0.0212
  179DOPC  H13R21938   5.968   5.722   4.713 -0.6356 -2.6787 -0.0704
  179DOPC  H13S21939   5.820   5.651   4.755  2.2900 -1.5705 -0.9266
  179DOPC  C21421940   5.821   5.859   4.808 -0.3032 -0.3907  0.0226
  179DOPC  H14R21941   5.715   5.834   4.833 -0.8120  2.1562  0.7038
  179DOPC  H14S21942   5.821   5.955   4.751 -0.6712 -0.6106 -0.3539
  179DOPC  C21521943   5.914   5.879   4.926  0.1312 -0.2037 -0.3040
  179DOPC  H15R21944   6.013   5.906   4.885  0.2711 -2.5922 -1.7689
  179DOPC  H15S21945   5.938   5.783   4.977 -1.3795 -0.8594 -0.7549
  179DOPC  C21621946   5.866   5.980   5.032 -0.4617 -0.6528 -0.5267
  179DOPC  H16R21947   5.772   5.939   5.076 -0.9124 -0.3909 -1.2477
  179DOPC  H16S21948   5.829   6.064   4.971 -0.2928 -1.9784 -2.5484
  179DOPC  C21721949   5.973   6.024   5.127 -0.9182 -0.1164 -0.3475
  179DOPC  H17R21950   6.065   6.061   5.076 -0.0180 -0.1873  1.1344
  179DOPC  H17S21951   6.008   5.932   5.179  0.1577  0.8121  0.6419
  179DOPC  C21821952   5.924   6.108   5.251  0.6613 -0.1783 -0.1952
  179DOPC  H18R21953   5.887   6.207   5.218 -0.6277 -0.0886  1.3672
  179DOPC  H18S21954   6.007   6.107   5.324 -1.4874 -1.4251  2.4375
  179DOPC  H18T21955   5.832   6.065   5.296 -0.7463  4.0309  1.4510
  179DOPC   C3321956   6.073   4.510   4.218  0.1671  0.5249 -0.0009
  179DOPC   H3X21957   6.056   4.620   4.216 -0.0188  0.4877 -1.3926
  179DOPC   H3Y21958   6.177   4.483   4.246 -0.5760 -0.8325  1.5895
  179DOPC   C3421959   5.976   4.453   4.325 -0.6576 -0.4610 -1.5545
  179DOPC   H4X21960   5.874   4.426   4.291 -1.2347  0.5769 -0.7111
  179DOPC   H4Y21961   5.953   4.528   4.404 -0.4251 -2.1219  0.1631
  179DOPC   C3521962   6.029   4.329   4.397  0.7690  0.9693  0.6993
  179DOPC   H5X21963   6.139   4.323   4.412  0.6329 -2.4524  1.1426
  179DOPC   H5Y21964   6.008   4.247   4.325  0.5515 -0.5235  2.3916
  179DOPC   C3621965   5.959   4.296   4.532 -0.3770  0.4266 -0.0729
  179DOPC   H6X21966   5.974   4.381   4.602 -1.1830 -0.8614  1.7561
  179DOPC   H6Y21967   5.849   4.282   4.519 -0.4053 -2.8481  2.3305
  179DOPC   C3721968   6.008   4.164   4.599  0.5455 -1.1863 -0.3968
  179DOPC   H7X21969   5.994   4.092   4.516 -1.3525 -1.3991  0.0408
  179DOPC   H7Y21970   6.116   4.152   4.622  0.8378 -0.4977 -1.3701
  179DOPC   C3821971   5.910   4.103   4.709 -0.3774  0.7903  0.0377
  179DOPC   H8X21972   5.804   4.121   4.680  0.3258  0.8929 -2.7839
  179DOPC   H8Y21973   5.923   4.151   4.808  2.3881 -0.5280  0.4170
  179DOPC   C3921974   5.945   3.959   4.727  0.5631  0.2271 -0.5003
  179DOPC   H9X21975   6.043   3.951   4.777 -0.4711  1.7206  1.9960
  179DOPC  C31021976   5.857   3.861   4.723 -0.2609  0.2303 -1.2810
  179DOPC  H10X21977   5.893   3.757   4.724 -0.0230  0.3082 -0.1994
  179DOPC  C31121978   5.711   3.877   4.691  0.2278 -0.0378 -0.0215
  179DOPC  H11X21979   5.698   3.913   4.586 -1.7191  1.6647  0.7399
  179DOPC  H11Y21980   5.667   3.948   4.764  1.2889 -1.2812  1.8880
  179DOPC  C31221981   5.652   3.729   4.692  0.2577  0.1760 -0.5544
  179DOPC  H12X21982   5.697   3.667   4.611 -1.5993 -1.8922 -0.1089
  179DOPC  H12Y21983   5.547   3.735   4.656 -0.6211  2.1558  2.0355
  179DOPC  C31321984   5.657   3.656   4.834 -0.3427 -0.1856 -0.7030
  179DOPC  H13X21985   5.761   3.635   4.866 -0.2648  0.4334 -0.5363
  179DOPC  H13Y21986   5.625   3.722   4.918  1.0500 -2.4074  1.7324
  179DOPC  C31421987   5.574   3.529   4.829 -0.0127 -0.4510 -0.5399
  179DOPC  H14X21988   5.470   3.561   4.810  0.4418  1.1505 -0.4663
  179DOPC  H14Y21989   5.596   3.475   4.735  0.0492  0.9768 -1.3673
  179DOPC  C31521990   5.592   3.436   4.949 -0.0102  0.0595  0.1103
  179DOPC  H15X21991   5.566   3.502   5.035 -3.0840  2.2546 -2.2688
  179DOPC  H15Y21992   5.699   3.408   4.963  0.5105  2.5609  1.9192
  179DOPC  C31621993   5.493   3.319   4.951 -0.0683  0.1420 -0.2663
  179DOPC  H16X21994   5.393   3.365   4.934  0.2149  0.5842 -0.7647
  179DOPC  H16Y21995   5.533   3.269   4.860  1.2626  1.0116 -0.1839
  179DOPC  C31721996   5.501   3.226   5.068  0.3106  0.4675 -0.5017
  179DOPC  H17X21997   5.610   3.207   5.083  0.6385  3.0565  0.9508
  179DOPC  H17Y21998   5.464   3.278   5.159  0.4636  1.1124 -0.7973
  179DOPC  C31821999   5.439   3.090   5.056  0.3029 -0.1636  0.5700
  179DOPC  H18X22000   5.465   3.053   4.955 -1.5374 -1.1418  0.4152
  179DOPC  H18Y22001   5.480   3.010   5.122  0.6254 -0.7358 -0.3095
  179DOPC  H18Z22002   5.328   3.095   5.065  0.3243 -1.8370  2.4894
  180DOPC     N22003   6.297   3.585   2.368 -0.1042  0.1171 -0.1697
  180DOPC   C1222004   6.305   3.509   2.497  0.1543 -0.4285  0.1091
  180DOPC  H12A22005   6.408   3.517   2.527  0.0171 -0.6983  0.6631
  180DOPC  H12B22006   6.283   3.403   2.488 -1.4717 -0.0549 -0.7621
  180DOPC   C1322007   6.318   3.731   2.388  0.0398 -0.7551 -0.0725
  180DOPC  H13A22008   6.318   3.790   2.298 -0.1991 -1.5221 -0.5819
  180DOPC  H13B22009   6.233   3.758   2.449  0.1779  1.7219 -0.8644
  180DOPC  H13C22010   6.413   3.741   2.439 -0.0613  1.0785 -0.1985
  180DOPC   C1422011   6.162   3.563   2.310  0.3789 -0.2982  0.1414
  180DOPC  H14A22012   6.143   3.612   2.216  0.2945 -0.2929  0.1611
  180DOPC  H14B22013   6.136   3.458   2.300  3.5926 -1.3386  1.3553
  180DOPC  H14C22014   6.081   3.595   2.374 -0.2078  1.5926 -1.4538
  180DOPC   C1522015   6.391   3.531   2.265  0.1318 -0.1429 -0.8408
  180DOPC  H15A22016   6.360   3.547   2.163  0.3476  0.0391 -0.8802
  180DOPC  H15B22017   6.388   3.423   2.268  1.2614 -0.2090 -1.4597
  180DOPC  H15C22018   6.495   3.556   2.280  0.3003 -0.5209 -1.3519
  180DOPC   C1122019   6.212   3.563   2.620  0.4200  0.1211  0.0597
  180DOPC  H11A22020   6.109   3.575   2.578  0.7223 -0.4507 -0.8845
  180DOPC  H11B22021   6.212   3.481   2.695  0.5685  0.3448  0.3037
  180DOPC     P22022   6.371   3.719   2.766 -0.2177  0.2371 -0.0518
  180DOPC   O1322023   6.366   3.862   2.804 -0.7804  0.1659 -0.1238
  180DOPC   O1422024   6.494   3.671   2.702 -0.4707 -0.1687  0.4276
  180DOPC   O1222025   6.249   3.694   2.670 -0.3931 -0.1064  0.0224
  180DOPC   O1122026   6.345   3.623   2.891  0.2368 -0.0175  0.1102
  180DOPC    C122027   6.225   3.626   2.955 -0.1617 -0.5860 -0.0032
  180DOPC    HA22028   6.137   3.603   2.891 -1.2738  1.5245  0.6932
  180DOPC    HB22029   6.201   3.727   2.994 -1.8414 -1.2216  0.7339
  180DOPC    C222030   6.215   3.521   3.071 -0.3932 -0.7364 -0.2469
  180DOPC    HS22031   6.108   3.512   3.100 -0.2512  0.5577  0.8039
  180DOPC   O2122032   6.293   3.559   3.185  0.1090  0.2273  0.4155
  180DOPC   C2122033   6.233   3.659   3.269 -1.0467 -0.0016  0.3549
  180DOPC   O2222034   6.127   3.713   3.244 -0.3287  0.2828  0.3482
  180DOPC   C2222035   6.321   3.673   3.390 -0.6338 -0.4916  0.2912
  180DOPC   H2R22036   6.428   3.681   3.360 -0.4344 -0.9544  0.8506
  180DOPC   H2S22037   6.298   3.579   3.444  1.2640 -0.9238  0.4284
  180DOPC    C322038   6.269   3.381   3.030  0.8990  0.0232  0.3643
  180DOPC    HX22039   6.373   3.404   2.997  0.3300  0.8890 -0.9038
  180DOPC    HY22040   6.214   3.346   2.940  1.3053 -1.1937  0.5723
  180DOPC   O3122041   6.261   3.285   3.143 -0.3176  0.5855 -0.0115
  180DOPC   C3122042   6.141   3.252   3.184 -0.2202  0.0464 -0.3340
  180DOPC   O3222043   6.034   3.280   3.132 -0.2375  0.2998  0.1193
  180DOPC   C3222044   6.154   3.178   3.326 -0.4161  0.3128  0.2215
  180DOPC   H2X22045   6.255   3.139   3.348 -0.6840  0.3489  1.6116
  180DOPC   H2Y22046   6.133   3.256   3.403  1.0972  0.1480  0.8205
  180DOPC   C2322047   6.295   3.803   3.476 -0.0137 -0.2710  0.0637
  180DOPC   H3R22048   6.187   3.810   3.501 -1.2630 -3.9370 -3.1079
  180DOPC   H3S22049   6.306   3.889   3.406 -1.4903  1.2146  1.5728
  180DOPC   C2422050   6.391   3.817   3.595 -0.2066  0.6169 -0.1772
  180DOPC   H4R22051   6.385   3.734   3.669  2.3945 -1.1750 -1.8064
  180DOPC   H4S22052   6.366   3.910   3.651  0.5102  1.9479 -1.9788
  180DOPC   C2522053   6.543   3.835   3.565  0.6273 -0.1407  0.6710
  180DOPC   H5R22054   6.554   3.923   3.499  1.0015 -0.2794  0.5453
  180DOPC   H5S22055   6.587   3.750   3.509 -0.3737 -1.7514  2.2152
  180DOPC   C2622056   6.625   3.854   3.697  0.6596  0.4447 -0.1767
  180DOPC   H6R22057   6.642   3.756   3.748  2.0034  0.8525  0.2173
  180DOPC   H6S22058   6.556   3.920   3.753 -0.4824  0.2916 -1.3452
  180DOPC   C2722059   6.768   3.904   3.660  0.1099 -0.5797 -0.1725
  180DOPC   H7R22060   6.752   3.999   3.605 -0.8122 -1.0054 -0.6638
  180DOPC   H7S22061   6.809   3.826   3.593  0.0554  0.2892 -1.2374
  180DOPC   C2822062   6.859   3.931   3.781  0.1635 -0.6363 -0.3760
  180DOPC   H8R22063   6.958   3.960   3.739  0.4870  0.3563  0.9784
  180DOPC   H8S22064   6.881   3.850   3.854 -1.5685  1.4282  2.6769
  180DOPC   C2922065   6.812   4.048   3.872 -0.2849  0.2646 -0.3568
  180DOPC   H9R22066   6.811   4.143   3.815  1.6690  0.1674 -0.6271
  180DOPC  C21022067   6.765   4.037   3.997  0.1983  0.1017 -0.2214
  180DOPC  H10R22068   6.736   4.130   4.050 -1.6977  0.3865 -1.6430
  180DOPC  C21122069   6.741   3.910   4.076 -0.3881  0.6477  0.2286
  180DOPC  H11R22070   6.777   3.819   4.024  1.4089 -1.2443  4.2826
  180DOPC  H11S22071   6.634   3.883   4.087  0.2434 -1.2194  2.7273
  180DOPC  C21222072   6.822   3.915   4.201 -0.6191 -1.0059  0.0954
  180DOPC  H12R22073   6.927   3.951   4.190 -0.8078 -1.1697 -3.1536
  180DOPC  H12S22074   6.830   3.810   4.237  1.8081 -1.1625 -0.6641
  180DOPC  C21322075   6.749   4.004   4.312 -0.6048 -0.3228  0.6040
  180DOPC  H13R22076   6.641   4.006   4.289 -0.1057 -0.0192 -2.0461
  180DOPC  H13S22077   6.780   4.110   4.300 -0.8329 -0.4214 -1.1731
  180DOPC  C21422078   6.771   3.956   4.456 -0.0948  0.3485  0.1022
  180DOPC  H14R22079   6.879   3.933   4.465 -0.4209 -1.0367  0.7497
  180DOPC  H14S22080   6.708   3.865   4.464 -0.2906  0.5418  0.8614
  180DOPC  C21522081   6.732   4.055   4.571  0.0468  0.3923  0.1767
  180DOPC  H15R22082   6.780   4.154   4.555 -0.2411  0.4285 -0.5266
  180DOPC  H15S22083   6.757   4.000   4.664 -1.2554  0.4790  0.5884
  180DOPC  C21622084   6.573   4.064   4.569 -0.9771 -0.4937 -0.1266
  180DOPC  H16R22085   6.525   3.969   4.601 -0.4947 -0.7179 -0.0651
  180DOPC  H16S22086   6.533   4.100   4.472  1.3044  2.3143 -0.1452
  180DOPC  C21722087   6.520   4.170   4.675 -0.5505 -0.1350 -0.5496
  180DOPC  H17R22088   6.567   4.271   4.667 -0.6200 -0.2267 -2.7439
  180DOPC  H17S22089   6.537   4.134   4.778 -0.5608  0.4605 -0.3317
  180DOPC  C21822090   6.364   4.183   4.675 -0.6201 -0.4511 -0.4113
  180DOPC  H18R22091   6.332   4.251   4.757 -0.8878 -0.9469 -0.1003
  180DOPC  H18S22092   6.324   4.083   4.698 -4.1404  1.0180  0.5128
  180DOPC  H18T22093   6.324   4.213   4.576 -1.0295  0.1231 -0.0804
  180DOPC   C3322094   6.048   3.071   3.339 -0.0601 -0.1819  0.4820
  180DOPC   H3X22095   6.047   2.999   3.255 -2.1379  0.8596 -0.4499
  180DOPC   H3Y22096   5.947   3.116   3.328  0.1779  0.2429 -0.0017
  180DOPC   C3422097   6.071   2.987   3.467 -0.0345 -0.4672 -0.1175
  180DOPC   H4X22098   6.153   2.913   3.452  2.6701  1.9953  1.5134
  180DOPC   H4Y22099   5.980   2.923   3.481  0.6519 -1.7406 -1.2546
  180DOPC   C3522100   6.089   3.066   3.596 -0.5632 -0.5868  0.1223
  180DOPC   H5X22101   6.054   3.171   3.591 -0.1519 -0.4020  1.0248
  180DOPC   H5Y22102   6.197   3.083   3.617 -0.7141  3.1367 -1.4382
  180DOPC   C3622103   6.023   2.996   3.714 -0.1826 -0.3914  0.4533
  180DOPC   H6X22104   5.912   2.999   3.710 -0.2429 -0.7654  1.5271
  180DOPC   H6Y22105   6.054   2.890   3.703  2.7285  0.5431 -1.4913
  180DOPC   C3722106   6.071   3.039   3.857 -0.2265  0.1304  0.1518
  180DOPC   H7X22107   6.108   2.949   3.910 -1.7987 -1.0988 -0.7448
  180DOPC   H7Y22108   6.167   3.095   3.853 -0.3683  0.3418 -0.4923
  180DOPC   C3822109   5.975   3.099   3.951  0.3870  0.5427 -0.1865
  180DOPC   H8X22110   5.944   3.190   3.896 -1.3212 -1.0232 -1.9864
  180DOPC   H8Y22111   6.026   3.112   4.049  0.8584 -2.2940  0.0342
  180DOPC   C3922112   5.856   3.006   3.980  0.8192  0.0652  0.1338
  180DOPC   H9X22113   5.863   2.913   3.921 -2.1187 -0.8003  0.9982
  180DOPC  C31022114   5.763   3.017   4.073 -0.0778  0.4992 -0.2865
  180DOPC  H10X22115   5.694   2.932   4.082  0.3142  0.1587 -0.4814
  180DOPC  C31122116   5.741   3.138   4.163  0.7711 -0.3284  0.4066
  180DOPC  H11X22117   5.780   3.235   4.124 -4.1955  1.9153  0.2047
  180DOPC  H11Y22118   5.790   3.115   4.260 -0.9277 -0.8820  1.1719
  180DOPC  C31222119   5.588   3.165   4.202 -0.6624 -0.0959  0.2220
  180DOPC  H12X22120   5.535   3.202   4.112  0.5044  0.5693 -0.2216
  180DOPC  H12Y22121   5.586   3.261   4.259  0.8187  1.5086 -2.2301
  180DOPC  C31322122   5.522   3.058   4.281  0.0798 -0.2436  0.6124
  180DOPC  H13X22123   5.515   2.958   4.232 -0.7005  0.7690 -1.4425
  180DOPC  H13Y22124   5.593   3.044   4.365  1.3775 -1.0862 -0.5898
  180DOPC  C31422125   5.390   3.102   4.338 -0.9838 -0.3551  0.1876
  180DOPC  H14X22126   5.394   3.202   4.388  1.2691 -0.0806 -0.4424
  180DOPC  H14Y22127   5.309   3.117   4.263 -0.5825  0.9556 -0.0180
  180DOPC  C31522128   5.334   2.999   4.438  0.5336 -0.2136  0.6677
  180DOPC  H15X22129   5.308   2.905   4.385 -2.2527  1.4752 -1.2204
  180DOPC  H15Y22130   5.241   3.055   4.460  1.2423  1.1372  0.3610
  180DOPC  C31622131   5.405   2.985   4.565  0.2668  0.8939 -0.9053
  180DOPC  H16X22132   5.332   2.933   4.631 -0.8233  1.0630 -1.9569
  180DOPC  H16Y22133   5.491   2.915   4.558  0.7771  1.3811  0.1406
  180DOPC  C31722134   5.459   3.117   4.632  0.6076 -1.0924  0.2217
  180DOPC  H17X22135   5.491   3.077   4.731  0.1070  0.1502  0.9117
  180DOPC  H17Y22136   5.543   3.172   4.585 -1.4496  2.3226  0.1959
  180DOPC  C31822137   5.339   3.221   4.655 -0.4644 -0.1944 -0.0107
  180DOPC  H18X22138   5.305   3.261   4.557 -1.1762  0.8349  0.6305
  180DOPC  H18Y22139   5.256   3.169   4.706 -2.3793  0.2536 -2.4778
  180DOPC  H18Z22140   5.365   3.317   4.705  2.6939  0.2941 -2.2537
  181DOPC     N22141   1.619   3.915   2.959 -0.4298 -0.4380  0.7071
  181DOPC   C1222142   1.684   3.789   2.998  0.7949  0.1782 -0.2470
  181DOPC  H12A22143   1.701   3.735   2.907  1.6302 -1.3771  0.7957
  181DOPC  H12B22144   1.620   3.727   3.059  2.0559  0.3199  1.2715
  181DOPC   C1322145   1.601   4.006   3.078 -0.0103  0.0551 -0.4099
  181DOPC  H13A22146   1.585   4.110   3.052 -0.5646  0.5160  1.6258
  181DOPC  H13B22147   1.515   3.979   3.138  0.1870 -0.8252 -0.5066
  181DOPC  H13C22148   1.684   4.005   3.147  0.0769  0.8258 -0.4948
  181DOPC   C1422149   1.487   3.894   2.892  0.7349  0.1062 -0.2082
  181DOPC  H14A22150   1.453   3.992   2.863  2.8128  1.6978  2.3020
  181DOPC  H14B22151   1.504   3.843   2.798  2.0045  1.0180 -0.4989
  181DOPC  H14C22152   1.410   3.852   2.955 -0.4139  2.9088  0.3653
  181DOPC   C1522153   1.710   3.989   2.858  1.0698  0.3773 -0.2681
  181DOPC  H15A22154   1.808   3.988   2.904  0.7000 -1.8561  0.6163
  181DOPC  H15B22155   1.671   4.085   2.829  1.5324  0.6023 -0.1553
  181DOPC  H15C22156   1.712   3.929   2.768  1.2541 -0.1085  0.0579
  181DOPC   C1122157   1.815   3.792   3.078  0.0073  0.5078  0.0102
  181DOPC  H11A22158   1.864   3.693   3.061  0.2413  0.7890 -1.0144
  181DOPC  H11B22159   1.887   3.866   3.037 -0.1672  1.3346  1.1568
  181DOPC     P22160   1.734   3.673   3.291  0.2016  0.1360  0.1959
  181DOPC   O1322161   1.785   3.554   3.222 -0.3126  0.3364  0.2805
  181DOPC   O1422162   1.589   3.680   3.290 -0.0764 -0.0708 -0.5610
  181DOPC   O1222163   1.788   3.802   3.220 -0.4225 -0.1714  0.2207
  181DOPC   O1122164   1.786   3.672   3.442 -0.7011 -0.4683 -0.0586
  181DOPC    C122165   1.749   3.792   3.513  0.8534  0.0301 -0.1802
  181DOPC    HA22166   1.643   3.786   3.546  0.9310  1.2527  0.3705
  181DOPC    HB22167   1.753   3.880   3.446  0.1412 -0.2524 -0.5970
  181DOPC    C222168   1.847   3.817   3.628 -0.1061 -0.1669 -0.2776
  181DOPC    HS22169   1.943   3.773   3.593  0.3190 -0.7294  1.5216
  181DOPC   O2122170   1.798   3.749   3.738 -0.1429  0.2023  0.0943
  181DOPC   C2122171   1.886   3.750   3.840  0.7532 -0.5443  0.5662
  181DOPC   O2222172   2.006   3.767   3.831 -0.6874 -0.0682  0.4915
  181DOPC   C2222173   1.815   3.707   3.972 -0.2192  0.0895  0.1874
  181DOPC   H2R22174   1.883   3.739   4.055 -0.0334 -0.3742  0.2172
  181DOPC   H2S22175   1.819   3.596   3.978  0.4842  0.1006 -0.0356
  181DOPC    C322176   1.870   3.970   3.664  0.5062  0.1995  0.1100
  181DOPC    HX22177   1.909   4.012   3.569  1.5742  0.9798  0.8655
  181DOPC    HY22178   1.954   3.994   3.732  1.9421  2.4640 -2.2485
  181DOPC   O3122179   1.750   4.041   3.701  0.0598  0.3138  0.8681
  181DOPC   C3122180   1.737   4.107   3.810 -0.1934 -0.4053  0.4617
  181DOPC   O3222181   1.825   4.122   3.890 -0.5453 -0.0541 -0.1041
  181DOPC   C3222182   1.604   4.176   3.811  0.0438  0.1860 -0.6840
  181DOPC   H2X22183   1.592   4.232   3.716 -1.6690 -0.7758 -1.0842
  181DOPC   H2Y22184   1.524   4.099   3.821 -0.2822  0.6106  0.0824
  181DOPC   C2322185   1.669   3.772   3.989 -0.2648 -0.5851 -0.6054
  181DOPC   H3R22186   1.602   3.747   3.904 -1.2609  1.0964 -0.3451
  181DOPC   H3S22187   1.681   3.882   3.991  0.9422 -0.7151  0.3956
  181DOPC   C2422188   1.587   3.733   4.115  0.0525  0.2943  0.3050
  181DOPC   H4R22189   1.561   3.625   4.108  0.0193  0.3464 -0.4576
  181DOPC   H4S22190   1.494   3.790   4.091  0.8963  0.7179 -2.2390
  181DOPC   C2522191   1.649   3.774   4.256 -0.6128  0.3591  0.8647
  181DOPC   H5R22192   1.627   3.881   4.276 -1.2131  1.0394 -2.7934
  181DOPC   H5S22193   1.759   3.770   4.242 -1.0696 -2.2795 -3.9224
  181DOPC   C2622194   1.600   3.697   4.382 -0.4049  0.7855  0.4713
  181DOPC   H6R22195   1.665   3.736   4.463 -1.6152  3.0754  0.4469
  181DOPC   H6S22196   1.608   3.587   4.377 -1.0361  0.7955 -2.0463
  181DOPC   C2722197   1.456   3.744   4.420 -0.2786  1.0172  0.4536
  181DOPC   H7R22198   1.382   3.696   4.352  2.4174 -0.5429 -1.5941
  181DOPC   H7S22199   1.451   3.852   4.398  0.9408  0.8756 -0.6068
  181DOPC   C2822200   1.445   3.719   4.574 -0.0918  0.0352  0.3527
  181DOPC   H8R22201   1.348   3.750   4.618  0.3905 -0.4822  1.8474
  181DOPC   H8S22202   1.530   3.777   4.616  1.0331 -2.1081  1.2167
  181DOPC   C2922203   1.459   3.572   4.613 -0.1355 -0.1860  0.3610
  181DOPC   H9R22204   1.555   3.527   4.583  0.0016 -0.1503  0.7381
  181DOPC  C21022205   1.370   3.492   4.671 -0.2453  0.2563 -0.3188
  181DOPC  H10R22206   1.404   3.390   4.694 -1.2883  0.1522  0.8411
  181DOPC  C21122207   1.246   3.545   4.732  0.2667 -0.1534 -0.3205
  181DOPC  H11R22208   1.167   3.572   4.659 -0.5348  1.5609  1.1161
  181DOPC  H11S22209   1.266   3.636   4.792  1.4140 -0.3821 -0.3328
  181DOPC  C21222210   1.180   3.438   4.815  0.3617  0.1540  0.6063
  181DOPC  H12R22211   1.081   3.479   4.845 -0.8256  0.3268 -3.0639
  181DOPC  H12S22212   1.222   3.407   4.913 -0.4300 -2.0012  0.3229
  181DOPC  C21322213   1.143   3.298   4.746 -0.5845  0.1735 -0.5965
  181DOPC  H13R22214   1.231   3.232   4.727  0.7181  1.8921 -0.7950
  181DOPC  H13S22215   1.093   3.323   4.650  1.5540  1.1688 -1.5206
  181DOPC  C21422216   1.035   3.224   4.814  0.3776 -0.1916  0.0388
  181DOPC  H14R22217   0.954   3.287   4.856 -1.9679 -2.1249 -1.3314
  181DOPC  H14S22218   1.077   3.175   4.905  1.4915  1.4502  0.4450
  181DOPC  C21522219   0.966   3.131   4.717  0.0802 -0.5492  0.2893
  181DOPC  H15R22220   1.043   3.065   4.671 -0.7672 -1.4688  0.1498
  181DOPC  H15S22221   0.915   3.192   4.640 -1.2769 -0.7692  0.9979
  181DOPC  C21622222   0.858   3.057   4.800  0.2050 -0.0616  0.1754
  181DOPC  H16R22223   0.784   3.130   4.837 -0.7682 -1.3901  0.9223
  181DOPC  H16S22224   0.906   2.995   4.878  1.4259 -0.6498 -1.0070
  181DOPC  C21722225   0.779   2.953   4.712  0.2846  0.3014  0.5383
  181DOPC  H17R22226   0.721   2.883   4.777  0.9733 -0.4259  0.3823
  181DOPC  H17S22227   0.849   2.893   4.650  0.7779 -1.5496  2.7408
  181DOPC  C21822228   0.685   3.020   4.611 -0.2819  0.3203  0.4353
  181DOPC  H18R22229   0.648   2.941   4.542  0.5063  0.1628  0.1838
  181DOPC  H18S22230   0.738   3.098   4.552 -3.5777  0.6780 -2.4008
  181DOPC  H18T22231   0.603   3.068   4.669  0.2256  1.0278  0.5697
  181DOPC   C3322232   1.568   4.275   3.933  0.2250 -0.2112 -0.1764
  181DOPC   H3X22233   1.478   4.329   3.897 -0.9544 -2.2967 -0.5225
  181DOPC   H3Y22234   1.656   4.341   3.950  2.3399 -2.7908 -0.3700
  181DOPC   C3422235   1.539   4.209   4.067 -0.4751  0.0681  0.0195
  181DOPC   H4X22236   1.634   4.174   4.112 -0.8828 -0.8495  0.1856
  181DOPC   H4Y22237   1.485   4.116   4.040  1.0731 -0.5073 -1.2548
  181DOPC   C3522238   1.470   4.287   4.183  0.6754  0.4121  0.6000
  181DOPC   H5X22239   1.368   4.316   4.152  0.1240 -1.6462  0.2896
  181DOPC   H5Y22240   1.534   4.373   4.212 -0.3089  0.8884  1.3770
  181DOPC   C3622241   1.464   4.196   4.306  0.4604  0.0811 -0.8675
  181DOPC   H6X22242   1.405   4.106   4.278 -1.5209  0.0056  2.8276
  181DOPC   H6Y22243   1.568   4.158   4.318 -0.3485 -1.6725  1.2658
  181DOPC   C3722244   1.408   4.260   4.438 -0.7817  0.9630  0.4562
  181DOPC   H7X22245   1.476   4.243   4.524  2.2726  2.5325 -1.4619
  181DOPC   H7Y22246   1.414   4.371   4.434  2.3792  0.9087  0.8826
  181DOPC   C3822247   1.257   4.223   4.468 -0.2138  0.7711 -0.4210
  181DOPC   H8X22248   1.200   4.233   4.374 -1.3171  0.0620  0.1541
  181DOPC   H8Y22249   1.217   4.296   4.541  0.8605 -0.4110  1.4306
  181DOPC   C3922250   1.248   4.085   4.508 -0.4211  0.0213 -0.0906
  181DOPC   H9X22251   1.295   4.007   4.446  0.2445 -1.6287  2.3566
  181DOPC  C31022252   1.186   4.048   4.623 -1.0933 -0.5987 -0.0418
  181DOPC  H10X22253   1.187   3.943   4.653  1.2077  0.1989  3.1968
  181DOPC  C31122254   1.135   4.150   4.717 -0.6064  0.0074  0.3545
  181DOPC  H11X22255   1.078   4.223   4.656 -0.5981 -0.1909  0.1051
  181DOPC  H11Y22256   1.224   4.193   4.768  0.2485 -0.9141 -0.2988
  181DOPC  C31222257   1.037   4.076   4.818  0.0099 -0.4279  0.1863
  181DOPC  H12X22258   1.091   3.987   4.856  1.0895  0.0944 -0.0753
  181DOPC  H12Y22259   0.945   4.041   4.766  0.1269 -0.3298 -0.0938
  181DOPC  C31322260   0.995   4.174   4.937 -0.1218  0.0172  0.4581
  181DOPC  H13X22261   0.964   4.271   4.892  0.0720  0.2498  0.8327
  181DOPC  H13Y22262   0.911   4.121   4.987  0.3028  0.0166  1.1712
  181DOPC  C31422263   1.114   4.194   5.032 -0.2683 -0.2820  0.4366
  181DOPC  H14X22264   1.148   4.096   5.074  1.2672 -1.2328 -2.6892
  181DOPC  H14Y22265   1.200   4.232   4.972  0.5714 -3.7305 -0.8145
  181DOPC  C31522266   1.085   4.299   5.139 -0.1438 -0.2997  0.1795
  181DOPC  H15X22267   0.986   4.277   5.186 -0.3578 -1.3603 -0.7134
  181DOPC  H15Y22268   1.063   4.396   5.090  0.5727  0.1708  0.7650
  181DOPC  C31622269   1.189   4.324   5.247 -0.2132  0.3965 -1.0793
  181DOPC  H16X22270   1.134   4.372   5.331  0.2809 -0.4478 -0.2410
  181DOPC  H16Y22271   1.231   4.225   5.278  0.5404  1.2232  0.7071
  181DOPC  C31722272   1.308   4.413   5.216 -0.1661 -0.0830  0.2945
  181DOPC  H17X22273   1.362   4.356   5.138 -1.5038 -1.1256  0.0804
  181DOPC  H17Y22274   1.294   4.515   5.175  1.3110 -0.5049 -1.3733
  181DOPC  C31822275   1.397   4.424   5.338  0.0215  0.1203  0.5772
  181DOPC  H18X22276   1.474   4.503   5.320  0.4562 -0.1265  1.3191
  181DOPC  H18Y22277   1.354   4.459   5.434 -0.4482 -0.4268  0.5679
  181DOPC  H18Z22278   1.450   4.327   5.347  2.0700  0.3561 -4.9833
  182DOPC     N22279   2.631   1.738   2.675  0.3708 -0.6745  0.4872
  182DOPC   C1222280   2.577   1.608   2.718 -0.8865 -0.2889  0.4020
  182DOPC  H12A22281   2.471   1.605   2.697 -0.6438  1.3822 -1.3175
  182DOPC  H12B22282   2.581   1.592   2.825 -0.2310 -1.2433  0.2438
  182DOPC   C1322283   2.546   1.854   2.718  0.6800  0.3821  0.7711
  182DOPC  H13A22284   2.607   1.943   2.722  0.7416  0.4655 -1.0871
  182DOPC  H13B22285   2.466   1.870   2.648  1.2261 -2.9601 -0.8023
  182DOPC  H13C22286   2.501   1.840   2.815 -2.5165 -4.2521 -1.0579
  182DOPC   C1422287   2.648   1.739   2.524  0.3126 -0.4001  0.1376
  182DOPC  H14A22288   2.555   1.769   2.479 -1.0434  1.2082  3.5824
  182DOPC  H14B22289   2.719   1.814   2.491  1.2359 -0.6913  1.3657
  182DOPC  H14C22290   2.676   1.641   2.489  0.9326 -1.1706  2.5927
  182DOPC   C1522291   2.767   1.755   2.737  0.0579  0.3382  0.1983
  182DOPC  H15A22292   2.828   1.825   2.681 -0.7447  0.6970 -0.2581
  182DOPC  H15B22293   2.818   1.661   2.729  0.1006  0.3938 -0.2445
  182DOPC  H15C22294   2.762   1.785   2.841  2.5441 -0.2430  0.5354
  182DOPC   C1122295   2.640   1.476   2.655 -0.0714 -0.4235 -0.1393
  182DOPC  H11A22296   2.576   1.391   2.688  0.3547 -0.4254  0.7136
  182DOPC  H11B22297   2.625   1.474   2.545  0.6142  0.2807 -0.2566
  182DOPC     P22298   2.800   1.393   2.832 -0.1845 -0.3199  0.3105
  182DOPC   O1322299   2.950   1.390   2.854  0.5851  0.3153 -0.2403
  182DOPC   O1422300   2.746   1.256   2.831  0.0591  0.3392 -0.6009
  182DOPC   O1222301   2.779   1.462   2.697  0.6209  0.0551  0.1840
  182DOPC   O1122302   2.724   1.478   2.933 -0.0192  0.6336 -0.4318
  182DOPC    C122303   2.777   1.585   3.008  0.1307 -0.0983 -0.3859
  182DOPC    HA22304   2.694   1.649   3.046  2.2446  1.3881  2.0174
  182DOPC    HB22305   2.850   1.641   2.945  0.2120 -0.1441 -0.3318
  182DOPC    C222306   2.863   1.529   3.129  0.5645 -0.3401  0.2659
  182DOPC    HS22307   2.961   1.490   3.093  1.0950 -0.3755  1.6979
  182DOPC   O2122308   2.789   1.427   3.199 -0.4591 -0.4320  0.2689
  182DOPC   C2122309   2.861   1.339   3.253  0.0981 -0.1700  0.5396
  182DOPC   O2222310   2.981   1.322   3.233  0.0262  0.5674 -0.4516
  182DOPC   C2222311   2.772   1.259   3.350 -0.9050  0.1902 -0.0804
  182DOPC   H2R22312   2.784   1.152   3.320  1.1452  0.5731 -0.7727
  182DOPC   H2S22313   2.664   1.281   3.343 -0.4867  2.1519 -0.9908
  182DOPC    C322314   2.886   1.654   3.225 -0.3441 -0.1614 -0.7009
  182DOPC    HX22315   2.786   1.693   3.252 -0.7904 -1.4892 -0.3828
  182DOPC    HY22316   2.932   1.732   3.160 -0.1321 -1.6888 -2.4495
  182DOPC   O3122317   2.973   1.619   3.335 -0.5065 -0.4233 -0.1845
  182DOPC   C3122318   3.102   1.644   3.316  0.2460  0.0348 -0.4040
  182DOPC   O3222319   3.143   1.721   3.228  0.0272  0.3027 -0.1972
  182DOPC   C3222320   3.184   1.583   3.433  0.0075  0.6013 -0.0830
  182DOPC   H2X22321   3.132   1.607   3.528 -0.5554  0.4280 -0.3421
  182DOPC   H2Y22322   3.183   1.473   3.420 -0.4548  0.6781 -0.7657
  182DOPC   C2322323   2.827   1.275   3.492  0.3745 -0.4179 -0.5465
  182DOPC   H3R22324   2.804   1.378   3.527  0.4961  0.4569 -2.8687
  182DOPC   H3S22325   2.938   1.273   3.495  0.4283  1.3389 -0.3821
  182DOPC   C2422326   2.773   1.159   3.583 -0.6881 -0.2161 -0.5810
  182DOPC   H4R22327   2.790   1.063   3.528 -0.0107 -0.7543  0.5397
  182DOPC   H4S22328   2.663   1.171   3.596 -0.6779  0.1097 -0.7840
  182DOPC   C2522329   2.851   1.151   3.715 -0.4356 -0.2616 -0.0250
  182DOPC   H5R22330   2.852   1.247   3.771 -0.1964  1.0304 -2.1442
  182DOPC   H5S22331   2.961   1.146   3.704 -0.4994  2.2846 -3.1772
  182DOPC   C2622332   2.795   1.040   3.812  0.2249 -0.2868  0.4915
  182DOPC   H6R22333   2.814   0.939   3.769  1.7707 -0.5545  1.7120
  182DOPC   H6S22334   2.687   1.064   3.812 -0.0841 -1.4055 -1.5023
  182DOPC   C2722335   2.859   1.046   3.949  0.0752  0.3955  0.8017
  182DOPC   H7R22336   2.871   1.149   3.988  0.3578  0.8220 -0.3787
  182DOPC   H7S22337   2.954   0.989   3.946  0.4842  1.0974  0.0163
  182DOPC   C2822338   2.775   0.975   4.057 -0.8074 -0.8602  0.4669
  182DOPC   H8R22339   2.677   1.026   4.066 -1.1308 -1.3104 -0.4187
  182DOPC   H8S22340   2.823   0.983   4.157 -1.2742 -2.5732  0.8660
  182DOPC   C2922341   2.753   0.830   4.020  0.1428 -0.0216 -0.5224
  182DOPC   H9R22342   2.715   0.816   3.918 -0.7788  0.6061 -0.2798
  182DOPC  C21022343   2.770   0.726   4.108 -0.1519 -0.5111  0.1033
  182DOPC  H10R22344   2.744   0.633   4.055 -0.7101  0.6403 -1.7463
  182DOPC  C21122345   2.804   0.723   4.253  0.0663 -1.3069 -0.1477
  182DOPC  H11R22346   2.836   0.821   4.295 -1.1897 -0.6302 -0.7105
  182DOPC  H11S22347   2.895   0.661   4.263 -0.4847 -1.8490  2.1936
  182DOPC  C21222348   2.703   0.664   4.353  0.1921  0.5635  0.2018
  182DOPC  H12R22349   2.667   0.568   4.308  0.3666  0.7234 -0.2923
  182DOPC  H12S22350   2.619   0.736   4.353 -1.2284 -0.9514 -2.1455
  182DOPC  C21322351   2.774   0.651   4.490 -0.0988  0.1244 -0.2110
  182DOPC  H13R22352   2.829   0.743   4.517  1.0191 -0.5939  0.0079
  182DOPC  H13S22353   2.848   0.569   4.483 -0.6301 -0.2528 -2.0249
  182DOPC  C21422354   2.676   0.615   4.592 -0.1450 -0.6698  0.1282
  182DOPC  H14R22355   2.635   0.513   4.572 -2.4049 -0.0332  1.2452
  182DOPC  H14S22356   2.591   0.685   4.601 -0.6418 -1.3720  0.9398
  182DOPC  C21522357   2.732   0.603   4.731  0.0010 -0.4741  0.2024
  182DOPC  H15R22358   2.792   0.693   4.756  2.2108 -2.5245  2.9851
  182DOPC  H15S22359   2.799   0.514   4.742 -0.2349 -0.7153 -0.2768
  182DOPC  C21622360   2.624   0.585   4.841 -0.1427 -0.3666  0.2366
  182DOPC  H16R22361   2.582   0.483   4.825 -1.4611 -0.2290  2.4357
  182DOPC  H16S22362   2.545   0.662   4.830  1.3700  1.1068 -0.8321
  182DOPC  C21722363   2.679   0.604   4.981 -0.1991 -0.0345 -0.0740
  182DOPC  H17R22364   2.689   0.714   4.995 -3.2183  0.4640 -0.9803
  182DOPC  H17S22365   2.783   0.566   4.984 -1.1139 -2.6430  1.4417
  182DOPC  C21822366   2.575   0.547   5.081 -0.0369  0.9033  0.8592
  182DOPC  H18R22367   2.470   0.563   5.048 -0.4340 -2.4972  0.0247
  182DOPC  H18S22368   2.586   0.575   5.188 -0.8271  0.2325  1.1273
  182DOPC  H18T22369   2.567   0.436   5.075  0.8695  0.8548  0.4448
  182DOPC   C3322370   3.327   1.631   3.433  0.2714 -0.0530  0.2253
  182DOPC   H3X22371   3.324   1.739   3.409 -3.9417 -0.5414 -2.5575
  182DOPC   H3Y22372   3.393   1.591   3.352 -0.4119  2.2834 -1.6046
  182DOPC   C3422373   3.392   1.609   3.568  0.5342  0.5154  0.8126
  182DOPC   H4X22374   3.502   1.620   3.553  0.5981 -0.5586  0.4293
  182DOPC   H4Y22375   3.374   1.503   3.599  1.7445 -0.1621 -0.6784
  182DOPC   C3522376   3.340   1.700   3.667 -0.2012  0.4198 -0.1458
  182DOPC   H5X22377   3.230   1.694   3.677 -0.2152 -0.3828 -0.7112
  182DOPC   H5Y22378   3.360   1.804   3.633  0.3830  0.8736  1.4742
  182DOPC   C3622379   3.389   1.678   3.817 -1.0491  0.3204 -0.5774
  182DOPC   H6X22380   3.312   1.616   3.866 -1.2564  0.1907 -1.0633
  182DOPC   H6Y22381   3.485   1.623   3.806 -0.0039  1.4630  2.0252
  182DOPC   C3722382   3.425   1.807   3.889  0.2289 -0.2150  0.0365
  182DOPC   H7X22383   3.471   1.875   3.814  1.1167 -1.8475 -0.9440
  182DOPC   H7Y22384   3.329   1.851   3.922  0.0589 -0.1399 -0.5332
  182DOPC   C3822385   3.515   1.783   4.010 -0.5859  0.4773 -0.6796
  182DOPC   H8X22386   3.553   1.873   4.063  0.4338  0.5755 -1.5513
  182DOPC   H8Y22387   3.608   1.733   3.977 -0.8139  0.2479 -0.9799
  182DOPC   C3922388   3.445   1.690   4.115 -1.1869  0.4868  0.2179
  182DOPC   H9X22389   3.444   1.585   4.084 -1.1561  0.6518 -0.3565
  182DOPC  C31022390   3.408   1.721   4.243  0.3096 -0.1264  0.3541
  182DOPC  H10X22391   3.358   1.643   4.302  1.4274 -0.1503  1.3132
  182DOPC  C31122392   3.432   1.849   4.320 -0.1228 -0.0098  0.7538
  182DOPC  H11X22393   3.337   1.870   4.374  1.0444  0.5679  2.6778
  182DOPC  H11Y22394   3.477   1.932   4.261 -0.1155 -1.5797 -1.5587
  182DOPC  C31222395   3.534   1.835   4.428 -0.3366  0.1789 -0.1392
  182DOPC  H12X22396   3.508   1.749   4.493  0.0120  0.3981  0.2996
  182DOPC  H12Y22397   3.544   1.926   4.491 -0.5896 -0.8350  1.4364
  182DOPC  C31322398   3.677   1.819   4.367  0.3836  0.4113 -0.7611
  182DOPC  H13X22399   3.665   1.729   4.303 -0.9290  1.0734 -1.4904
  182DOPC  H13Y22400   3.699   1.911   4.309 -0.1741  1.3555  0.4741
  182DOPC  C31422401   3.788   1.809   4.474 -0.9039  0.3909  0.1962
  182DOPC  H14X22402   3.784   1.902   4.535  0.1250 -1.2812  2.9781
  182DOPC  H14Y22403   3.767   1.722   4.539  3.3600  0.7521  2.3815
  182DOPC  C31522404   3.927   1.796   4.407  0.6278  0.3283  0.0076
  182DOPC  H15X22405   3.944   1.879   4.335  1.1883 -0.0124 -0.2600
  182DOPC  H15Y22406   3.923   1.711   4.337 -1.6117  0.2770  0.1386
  182DOPC  C31622407   4.037   1.782   4.504 -0.4493 -0.0515  0.0635
  182DOPC  H16X22408   4.033   1.684   4.555  0.8930 -0.5568 -0.7549
  182DOPC  H16Y22409   4.137   1.796   4.458  0.3292  2.6317  2.2654
  182DOPC  C31722410   4.046   1.893   4.615 -0.2080 -1.1304  0.4207
  182DOPC  H17X22411   3.951   1.893   4.672 -0.6088 -3.3605 -0.1474
  182DOPC  H17Y22412   4.127   1.864   4.686  2.0750 -2.5047 -2.5526
  182DOPC  C31822413   4.059   2.040   4.563 -0.2165 -0.1642  0.2066
  182DOPC  H18X22414   4.096   2.108   4.643  1.5553  0.1695 -0.8441
  182DOPC  H18Y22415   4.143   2.026   4.491 -2.1884 -0.8811 -2.0678
  182DOPC  H18Z22416   3.968   2.081   4.515  0.8650  1.1961 -0.7616
  183DOPC     N22417   5.974   5.658   3.090 -0.3080 -0.6376 -0.0911
  183DOPC   C1222418   5.881   5.557   3.154  0.0025 -0.4659  0.3605
  183DOPC  H12A22419   5.928   5.460   3.159 -0.4488 -0.7000  0.1598
  183DOPC  H12B22420   5.793   5.540   3.092 -1.0332 -1.3344  1.9815
  183DOPC   C1322421   6.006   5.632   2.948  0.3966  0.4824 -0.4246
  183DOPC  H13A22422   5.923   5.599   2.887  0.0751 -2.4966  1.4360
  183DOPC  H13B22423   6.046   5.723   2.905  0.2065  1.9449  2.2976
  183DOPC  H13C22424   6.085   5.559   2.946  0.3838  0.3977  1.2330
  183DOPC   C1422425   6.101   5.658   3.160 -0.5380 -0.2990 -0.2027
  183DOPC  H14A22426   6.088   5.649   3.266 -1.3222  2.4701 -0.0008
  183DOPC  H14B22427   6.155   5.570   3.127 -0.3738 -0.8471  1.4459
  183DOPC  H14C22428   6.164   5.745   3.147 -2.3813  1.1054 -0.1015
  183DOPC   C1522429   5.914   5.791   3.084 -0.0904 -0.5251 -0.1595
  183DOPC  H15A22430   5.981   5.862   3.037  1.0060 -0.8231  0.9036
  183DOPC  H15B22431   5.896   5.821   3.186 -3.2871 -1.9106 -0.1946
  183DOPC  H15C22432   5.817   5.785   3.036 -1.2151 -3.1355  2.1369
  183DOPC   C1122433   5.813   5.584   3.295  0.3181 -0.3225 -0.2443
  183DOPC  H11A22434   5.766   5.490   3.331 -0.7538  0.0290 -0.6942
  183DOPC  H11B22435   5.896   5.601   3.367  1.3283 -2.5695 -0.7717
  183DOPC     P22436   5.574   5.657   3.215  0.0960  0.2381 -0.3057
  183DOPC   O1322437   5.595   5.553   3.112 -0.4945  0.2885  0.0835
  183DOPC   O1422438   5.514   5.783   3.166 -0.0002  0.1899  0.2372
  183DOPC   O1222439   5.712   5.683   3.297  0.4216  0.3220  0.1761
  183DOPC   O1122440   5.490   5.587   3.337  0.0690 -0.2582 -0.0301
  183DOPC    C122441   5.537   5.587   3.471  0.9683 -0.2688 -0.0527
  183DOPC    HA22442   5.552   5.688   3.513 -1.7813  1.0885 -2.0130
  183DOPC    HB22443   5.623   5.520   3.494 -0.2353 -1.6218  0.6722
  183DOPC    C222444   5.431   5.544   3.567  0.0938  0.0633  0.3359
  183DOPC    HS22445   5.403   5.439   3.541  0.6137  0.0074 -0.0016
  183DOPC   O2122446   5.320   5.626   3.554  0.3085  0.1673 -0.2185
  183DOPC   C2122447   5.210   5.577   3.617 -0.4919 -0.1082  0.2113
  183DOPC   O2222448   5.194   5.467   3.665  0.0176  0.5590  0.1220
  183DOPC   C2222449   5.104   5.685   3.608  0.1862 -0.2394 -0.0888
  183DOPC   H2R22450   5.048   5.669   3.513  0.3768  2.7639 -0.8134
  183DOPC   H2S22451   5.158   5.781   3.596  1.8057 -1.1695 -0.5005
  183DOPC    C322452   5.489   5.546   3.720  0.7660  0.1399 -0.1648
  183DOPC    HX22453   5.404   5.505   3.778 -1.0420  0.2857 -2.5426
  183DOPC    HY22454   5.507   5.648   3.759  0.9169  0.7497 -1.7539
  183DOPC   O3122455   5.607   5.458   3.735 -0.2062  0.2295  0.4447
  183DOPC   C3122456   5.680   5.473   3.846  0.1782 -0.4795  0.2247
  183DOPC   O3222457   5.647   5.547   3.938  0.1335  0.2372  0.5706
  183DOPC   C3222458   5.817   5.400   3.838 -0.4786  0.2023 -0.1307
  183DOPC   H2X22459   5.805   5.314   3.907 -1.5084 -0.9632 -1.7147
  183DOPC   H2Y22460   5.832   5.352   3.739  0.2290 -1.2948  0.6732
  183DOPC   C2322461   5.007   5.701   3.735  0.0016 -0.3180  0.2442
  183DOPC   H3R22462   4.944   5.793   3.731 -1.2874 -0.9323  3.3403
  183DOPC   H3S22463   5.069   5.719   3.825  0.1339  2.4615 -0.3122
  183DOPC   C2422464   4.893   5.599   3.736  0.1761  0.0092  0.0010
  183DOPC   H4R22465   4.939   5.500   3.758 -0.9273 -0.9805 -1.9007
  183DOPC   H4S22466   4.840   5.584   3.640  0.2477  0.0029 -0.0375
  183DOPC   C2522467   4.786   5.644   3.833 -0.0055 -0.3832 -0.6441
  183DOPC   H5R22468   4.701   5.575   3.815 -0.3763  0.2190 -1.2279
  183DOPC   H5S22469   4.756   5.744   3.796  0.4710 -0.4547 -1.2531
  183DOPC   C2622470   4.816   5.636   3.987 -0.6449 -0.5330  0.4091
  183DOPC   H6R22471   4.899   5.707   4.007 -1.7372  0.5779  1.1543
  183DOPC   H6S22472   4.848   5.536   4.023 -1.2030 -0.8426  0.0502
  183DOPC   C2722473   4.696   5.677   4.071 -0.9474 -0.0172 -0.2432
  183DOPC   H7R22474   4.615   5.607   4.044 -1.7028 -0.3539  2.5850
  183DOPC   H7S22475   4.671   5.771   4.018 -1.0167  0.3243  0.3865
  183DOPC   C2822476   4.725   5.694   4.221  0.5827 -0.7747  0.6868
  183DOPC   H8R22477   4.816   5.756   4.232 -0.7972  1.5243 -0.1900
  183DOPC   H8S22478   4.727   5.599   4.279 -0.3451  1.0271  3.9228
  183DOPC   C2922479   4.612   5.791   4.260  0.5189  1.0360 -0.0068
  183DOPC   H9R22480   4.578   5.859   4.181 -2.8440 -0.8167 -0.3705
  183DOPC  C21022481   4.540   5.786   4.377 -0.3279  0.4234  0.1517
  183DOPC  H10R22482   4.441   5.834   4.370 -0.3624  0.5079  1.1728
  183DOPC  C21122483   4.556   5.676   4.480  0.3999 -0.7196 -0.6040
  183DOPC  H11R22484   4.614   5.589   4.444 -1.1880 -2.2973  0.4852
  183DOPC  H11S22485   4.462   5.629   4.516 -0.8863  1.8633 -0.3273
  183DOPC  C21222486   4.634   5.715   4.607 -0.4762  0.1535 -0.3519
  183DOPC  H12R22487   4.603   5.652   4.693  0.2488 -1.3996 -1.1822
  183DOPC  H12S22488   4.608   5.819   4.639  1.0409  0.9070 -1.4187
  183DOPC  C21322489   4.784   5.708   4.577  0.8215  0.3939  0.0533
  183DOPC  H13R22490   4.806   5.758   4.480  1.2000 -1.8072 -1.0543
  183DOPC  H13S22491   4.812   5.601   4.567  0.6804  0.1693  1.7462
  183DOPC  C21422492   4.876   5.753   4.692  1.0816 -0.5432 -0.5973
  183DOPC  H14R22493   4.847   5.699   4.785 -1.1091  0.9950 -0.3128
  183DOPC  H14S22494   4.864   5.860   4.719  1.9841 -0.1688 -1.6358
  183DOPC  C21522495   5.026   5.724   4.653  0.7442  0.7123 -0.5065
  183DOPC  H15R22496   5.056   5.787   4.566 -1.0995  0.5685 -1.2894
  183DOPC  H15S22497   5.042   5.619   4.623  1.4178  0.8061 -0.5131
  183DOPC  C21622498   5.122   5.755   4.766 -0.1652 -0.0615  0.1207
  183DOPC  H16R22499   5.080   5.717   4.862  1.4942 -0.0678  0.8975
  183DOPC  H16S22500   5.140   5.865   4.760 -1.5580  0.1337 -0.9272
  183DOPC  C21722501   5.254   5.676   4.742 -0.9759  0.1462 -0.1582
  183DOPC  H17R22502   5.319   5.735   4.809 -0.9588  1.3362 -1.1777
  183DOPC  H17S22503   5.297   5.689   4.640 -0.1946  1.7459  0.3464
  183DOPC  C21822504   5.262   5.536   4.782 -0.2386  0.3326  0.5059
  183DOPC  H18R22505   5.190   5.467   4.734  1.5249 -0.6457 -0.8107
  183DOPC  H18S22506   5.248   5.534   4.893  0.0294  0.4169  0.5429
  183DOPC  H18T22507   5.360   5.497   4.749 -0.5488 -0.1637  0.1714
  183DOPC   C3322508   5.943   5.472   3.895  0.2464  0.0417 -0.1912
  183DOPC   H3X22509   5.948   5.477   4.006 -2.0579 -0.3520 -0.0240
  183DOPC   H3Y22510   5.933   5.574   3.854 -2.6748 -0.9136 -2.2114
  183DOPC   C3422511   6.074   5.406   3.839  0.5581  0.1339 -0.6274
  183DOPC   H4X22512   6.164   5.471   3.837 -0.9515  2.3414 -0.4332
  183DOPC   H4Y22513   6.048   5.397   3.732 -0.5145 -0.6317 -0.3115
  183DOPC   C3522514   6.111   5.268   3.903 -0.6793 -0.6442  1.0857
  183DOPC   H5X22515   6.019   5.205   3.903 -0.6009 -0.7973 -0.6049
  183DOPC   H5Y22516   6.153   5.274   4.005 -1.5287 -2.8708  1.6245
  183DOPC   C3622517   6.219   5.196   3.811 -0.3851 -0.3755 -0.0306
  183DOPC   H6X22518   6.248   5.101   3.860 -0.9868 -0.6278 -0.1517
  183DOPC   H6Y22519   6.173   5.182   3.711  0.5306  2.0408 -0.8693
  183DOPC   C3722520   6.346   5.293   3.783  0.1841  0.3719  0.6859
  183DOPC   H7X22521   6.314   5.359   3.701  0.8472 -2.6717 -2.2320
  183DOPC   H7Y22522   6.363   5.352   3.876  1.5720 -2.0336  2.0768
  183DOPC   C3822523   6.482   5.227   3.745  0.3904 -0.5530 -0.0309
  183DOPC   H8X22524   6.557   5.309   3.749 -1.8295  1.5261  2.0037
  183DOPC   H8Y22525   6.475   5.188   3.641 -1.7070  0.5309 -0.3493
  183DOPC   C3922526   6.513   5.121   3.844  0.3423  0.1608  0.5100
  183DOPC   H9X22527   6.459   5.026   3.830  0.5604 -0.0850  1.3059
  183DOPC  C31022528   6.607   5.132   3.938  0.1581  0.3489 -0.2959
  183DOPC  H10X22529   6.613   5.039   3.997  3.7081  0.2811 -0.5313
  183DOPC  C31122530   6.688   5.251   3.984  0.1880 -0.4069  0.3158
  183DOPC  H11X22531   6.655   5.347   3.940 -0.1482 -0.5314  0.2849
  183DOPC  H11Y22532   6.793   5.234   3.955 -0.0621 -0.0198 -0.8481
  183DOPC  C31222533   6.692   5.267   4.138  0.9915  0.0709 -0.0924
  183DOPC  H12X22534   6.781   5.330   4.162  1.0494 -0.4231  1.0261
  183DOPC  H12Y22535   6.700   5.167   4.185 -2.2077  1.2771  3.4400
  183DOPC  C31322536   6.560   5.330   4.203 -0.2064 -0.3495  0.1104
  183DOPC  H13X22537   6.582   5.437   4.223 -0.2203 -0.1671 -0.7896
  183DOPC  H13Y22538   6.480   5.324   4.126  0.3359 -0.9836 -0.4227
  183DOPC  C31422539   6.516   5.266   4.330  0.1550 -0.0513 -0.0160
  183DOPC  H14X22540   6.431   5.326   4.369  0.0097 -0.1662 -0.1547
  183DOPC  H14Y22541   6.476   5.171   4.291  1.1343  0.1480 -1.6008
  183DOPC  C31522542   6.626   5.258   4.436  0.9644  0.2667  0.2676
  183DOPC  H15X22543   6.675   5.357   4.452 -3.0218  2.1802  2.1100
  183DOPC  H15Y22544   6.705   5.184   4.410  0.4402 -2.1316  4.5477
  183DOPC  C31622545   6.574   5.235   4.579 -0.8423 -0.1131  0.0877
  183DOPC  H16X22546   6.543   5.338   4.610 -1.1323  0.1597 -1.0642
  183DOPC  H16Y22547   6.498   5.155   4.589 -0.6680 -0.4026 -0.8757
  183DOPC  C31722548   6.699   5.200   4.673  0.3808 -0.1666 -0.5635
  183DOPC  H17X22549   6.778   5.264   4.628  0.2468  0.5278  0.1682
  183DOPC  H17Y22550   6.683   5.246   4.773  0.8404  1.3853 -1.1740
  183DOPC  C31822551   6.751   5.053   4.672  0.5644  0.7102  0.3920
  183DOPC  H18X22552   6.731   5.011   4.571 -1.4973  1.0910  0.5947
  183DOPC  H18Y22553   6.858   5.057   4.702  0.3493  0.2033  1.2559
  183DOPC  H18Z22554   6.689   4.993   4.742  0.5458 -1.2422 -1.2065
  184DOPC     N22555   4.618   0.313   2.435 -0.0343  0.3786 -0.5306
  184DOPC   C1222556   4.716   0.426   2.415 -0.2555  0.3468  0.2255
  184DOPC  H12A22557   4.664   0.513   2.376 -1.3299  0.2165  1.3127
  184DOPC  H12B22558   4.798   0.393   2.352  0.1344 -0.3934  1.0923
  184DOPC   C1322559   4.694   0.200   2.497  0.1228  0.4866 -0.0371
  184DOPC  H13A22560   4.762   0.157   2.425 -0.2024  3.9189 -2.6737
  184DOPC  H13B22561   4.727   0.222   2.598  0.8258 -0.7321  0.0111
  184DOPC  H13C22562   4.624   0.120   2.515  1.4415 -0.4844  1.0586
  184DOPC   C1422563   4.558   0.259   2.307 -0.0047  0.4542 -0.2826
  184DOPC  H14A22564   4.643   0.229   2.248  0.7091 -1.8557  1.7845
  184DOPC  H14B22565   4.494   0.173   2.321 -0.3717  0.8176  0.3349
  184DOPC  H14C22566   4.511   0.338   2.250 -0.1545  0.0407 -0.7399
  184DOPC   C1522567   4.503   0.352   2.526  0.0113  0.0629  0.2086
  184DOPC  H15A22568   4.430   0.272   2.531 -0.9528  0.8129 -1.0168
  184DOPC  H15B22569   4.443   0.432   2.483 -0.7577  0.3296  1.7308
  184DOPC  H15C22570   4.546   0.387   2.618  0.3957 -2.6781  1.1511
  184DOPC   C1122571   4.780   0.492   2.541 -0.0128 -0.1239  0.0807
  184DOPC  H11A22572   4.823   0.590   2.515  1.7500 -0.9831 -0.3948
  184DOPC  H11B22573   4.696   0.498   2.614 -0.4914  1.4162 -0.5528
  184DOPC     P22574   4.932   0.421   2.740  0.0044  0.5731 -0.1258
  184DOPC   O1322575   4.962   0.569   2.770 -0.2785  0.5622 -0.0694
  184DOPC   O1422576   5.038   0.315   2.756 -0.1346 -0.2457  0.0153
  184DOPC   O1222577   4.886   0.413   2.592  0.0475 -0.1412  0.6433
  184DOPC   O1122578   4.805   0.365   2.824 -0.0870  0.1203  0.0349
  184DOPC    C122579   4.722   0.466   2.892  0.1391 -0.5248  0.3498
  184DOPC    HA22580   4.624   0.426   2.924  0.0061  0.6369  1.4770
  184DOPC    HB22581   4.701   0.547   2.820  0.7995 -1.2418 -0.6762
  184DOPC    C222582   4.786   0.507   3.029 -0.1840  0.2139 -0.1891
  184DOPC    HS22583   4.878   0.569   3.018  0.9772 -1.4550 -0.2243
  184DOPC   O2122584   4.814   0.387   3.104 -0.2383 -0.4584 -0.3128
  184DOPC   C2122585   4.937   0.367   3.145 -0.2137 -0.3331  0.4584
  184DOPC   O2222586   5.034   0.438   3.117  0.6164 -0.3534 -0.0881
  184DOPC   C2222587   4.940   0.244   3.241 -0.3712  0.3877  0.2385
  184DOPC   H2R22588   4.890   0.168   3.177  2.5454 -0.2526 -1.4833
  184DOPC   H2S22589   4.882   0.260   3.334 -1.4252  1.8951 -0.6354
  184DOPC    C322590   4.688   0.592   3.110 -0.1518  0.1384  0.8132
  184DOPC    HX22591   4.589   0.557   3.076 -0.9032  1.1463  1.8857
  184DOPC    HY22592   4.701   0.692   3.062  4.1569 -0.6189 -0.0595
  184DOPC   O3122593   4.699   0.596   3.252 -0.0245 -0.1909  0.3498
  184DOPC   C3122594   4.776   0.694   3.297 -0.2358 -0.3573  0.1853
  184DOPC   O3222595   4.814   0.791   3.230 -0.2453  0.6246  0.0749
  184DOPC   C3222596   4.798   0.672   3.445  0.5668 -0.1267 -0.4325
  184DOPC   H2X22597   4.834   0.769   3.486 -1.2818  1.1107 -1.5972
  184DOPC   H2Y22598   4.697   0.652   3.487  2.0974 -2.0286  2.7288
  184DOPC   C2322599   5.090   0.194   3.258  0.0381 -0.4145  1.0513
  184DOPC   H3R22600   5.156   0.232   3.177  1.0775  1.5752  2.7161
  184DOPC   H3S22601   5.095   0.084   3.269 -0.5460 -0.4861  0.6709
  184DOPC   C2422602   5.143   0.254   3.379 -0.8853  0.2801 -0.0275
  184DOPC   H4R22603   5.087   0.210   3.464 -0.9907  0.4245 -0.0219
  184DOPC   H4S22604   5.120   0.362   3.373  0.1992  0.5356  0.2538
  184DOPC   C2522605   5.299   0.242   3.399 -0.6899 -0.4577  0.0250
  184DOPC   H5R22606   5.345   0.260   3.299  2.1878 -1.0527  1.1687
  184DOPC   H5S22607   5.335   0.142   3.428 -1.6193 -0.7827  0.0915
  184DOPC   C2622608   5.353   0.356   3.493 -0.1602 -0.5515 -0.0503
  184DOPC   H6R22609   5.299   0.362   3.590  0.1935  1.0457  0.0722
  184DOPC   H6S22610   5.325   0.450   3.440  0.1529  1.2446  2.7749
  184DOPC   C2722611   5.503   0.353   3.518  0.0829  0.1840 -0.7034
  184DOPC   H7R22612   5.523   0.249   3.550 -1.6966  0.0141 -0.0427
  184DOPC   H7S22613   5.533   0.429   3.594 -2.5910 -0.9032  1.6119
  184DOPC   C2822614   5.591   0.375   3.387  0.1985  0.3746 -0.3712
  184DOPC   H8R22615   5.574   0.284   3.325  0.8310  0.6300 -0.9406
  184DOPC   H8S22616   5.698   0.353   3.410  0.2104 -1.2584 -1.7380
  184DOPC   C2922617   5.582   0.512   3.324 -0.5852 -0.2388 -0.6364
  184DOPC   H9R22618   5.481   0.553   3.306 -0.2531 -0.1909 -2.6367
  184DOPC  C21022619   5.693   0.587   3.292 -0.2614 -0.4180  0.4297
  184DOPC  H10R22620   5.665   0.684   3.249  0.6423  0.2238  1.2305
  184DOPC  C21122621   5.844   0.563   3.312  0.5699  0.6576 -0.4344
  184DOPC  H11R22622   5.892   0.535   3.215 -0.4902  0.9499 -1.0599
  184DOPC  H11S22623   5.863   0.476   3.379  0.0968  2.3185  1.9576
  184DOPC  C21222624   5.928   0.669   3.379  0.0829  0.4405  0.2155
  184DOPC  H12R22625   5.926   0.760   3.314  0.0211  0.9913  0.9697
  184DOPC  H12S22626   6.036   0.642   3.379  0.5232  2.0422  0.0008
  184DOPC  C21322627   5.894   0.726   3.516  0.2413  0.9817  0.1512
  184DOPC  H13R22628   5.787   0.752   3.529 -0.9752 -2.1452 -2.1959
  184DOPC  H13S22629   5.961   0.813   3.532  0.8073  0.6269 -0.2336
  184DOPC  C21422630   5.930   0.623   3.629 -0.8302 -0.4158 -0.4618
  184DOPC  H14R22631   6.039   0.604   3.620  0.2034  3.4703  1.5470
  184DOPC  H14S22632   5.879   0.524   3.634  0.5970 -1.1248  2.1538
  184DOPC  C21522633   5.927   0.687   3.767 -0.4794  0.5557 -0.8795
  184DOPC  H15R22634   5.959   0.793   3.760 -2.5258  1.2844  0.1217
  184DOPC  H15S22635   6.005   0.629   3.821 -0.2357  0.0352 -1.7687
  184DOPC  C21622636   5.796   0.678   3.844 -0.4656  0.0813 -0.1824
  184DOPC  H16R22637   5.766   0.572   3.861  0.0223  0.2127  1.5926
  184DOPC  H16S22638   5.710   0.716   3.785 -1.9713 -0.7520  1.3792
  184DOPC  C21722639   5.802   0.757   3.978 -0.9842 -0.1504  0.3171
  184DOPC  H17R22640   5.825   0.864   3.957  0.8355 -1.0554 -3.0531
  184DOPC  H17S22641   5.885   0.715   4.039 -1.5990  0.2317  1.4449
  184DOPC  C21822642   5.671   0.745   4.056  0.2959 -0.5942 -0.2795
  184DOPC  H18R22643   5.641   0.638   4.053  1.8946 -1.0645 -0.6445
  184DOPC  H18S22644   5.589   0.803   4.009 -0.0186 -1.2478 -0.5483
  184DOPC  H18T22645   5.683   0.784   4.159  2.2318  0.2020 -0.7507
  184DOPC   C3322646   4.891   0.562   3.486  0.1177 -0.1593  0.3707
  184DOPC   H3X22647   4.986   0.558   3.430  0.0489  0.1334  0.2300
  184DOPC   H3Y22648   4.843   0.464   3.467 -3.9486  1.3318  1.7652
  184DOPC   C3422649   4.924   0.563   3.630  0.3482 -0.0177 -1.0008
  184DOPC   H4X22650   4.834   0.542   3.691  0.1664  0.8952 -0.9369
  184DOPC   H4Y22651   4.951   0.668   3.653 -1.8669  0.4372 -0.2562
  184DOPC   C3522652   5.030   0.464   3.677  0.0681 -0.1904 -0.1937
  184DOPC   H5X22653   5.133   0.493   3.648 -0.0032  0.2874  0.0269
  184DOPC   H5Y22654   5.018   0.369   3.621  0.7657  0.2952 -1.1721
  184DOPC   C3622655   5.027   0.438   3.827  0.4845  0.0764 -0.9377
  184DOPC   H6X22656   5.127   0.397   3.852  0.2371  0.3208  0.5543
  184DOPC   H6Y22657   5.010   0.528   3.890 -1.9471 -0.7934 -0.2267
  184DOPC   C3722658   4.914   0.339   3.867 -0.5937  0.2750  0.9934
  184DOPC   H7X22659   4.821   0.382   3.826 -0.3570 -0.1766 -0.0676
  184DOPC   H7Y22660   4.937   0.247   3.809 -0.5086  0.9278 -0.0284
  184DOPC   C3822661   4.899   0.307   4.018 -0.0423  0.0703 -0.2537
  184DOPC   H8X22662   4.809   0.244   4.034 -1.3977  1.8791 -0.4328
  184DOPC   H8Y22663   4.852   0.394   4.068  1.9385 -0.2994  2.4497
  184DOPC   C3922664   5.022   0.276   4.088  0.0393 -0.0799 -0.4630
  184DOPC   H9X22665   5.109   0.341   4.067  0.1993 -0.0239  0.3212
  184DOPC  C31022666   5.036   0.184   4.182  0.2482 -0.4222 -0.5483
  184DOPC  H10X22667   5.137   0.171   4.225 -0.0177  2.7631  1.3641
  184DOPC  C31122668   4.936   0.093   4.243 -0.1967  0.2427  0.1882
  184DOPC  H11X22669   4.845   0.101   4.180 -1.9726 -1.9371  2.2944
  184DOPC  H11Y22670   4.924   0.134   4.346  0.0730  1.1014 -0.1082
  184DOPC  C31222671   4.980  -0.055   4.238  0.1053 -0.4087  0.2742
  184DOPC  H12X22672   5.088  -0.073   4.253 -0.0584 -2.1566 -0.4547
  184DOPC  H12Y22673   4.972  -0.087   4.132 -1.5382 -0.6627  0.4537
  184DOPC  C31322674   4.881  -0.145   4.312 -0.6038  0.5540  0.4202
  184DOPC  H13X22675   4.902  -0.138   4.421  1.4571  0.2070  0.0812
  184DOPC  H13Y22676   4.777  -0.113   4.287 -1.0238 -0.6404  0.5593
  184DOPC  C31422677   4.903  -0.297   4.275  0.1555  0.2404  1.1542
  184DOPC  H14X22678   4.880  -0.303   4.167  0.5340 -2.8433  1.1602
  184DOPC  H14Y22679   4.999  -0.344   4.306  1.2656  1.9046  0.3924
  184DOPC  C31522680   4.801  -0.384   4.350  0.6069  0.2316 -0.0982
  184DOPC  H15X22681   4.702  -0.334   4.342  0.7544  0.3614 -1.2690
  184DOPC  H15Y22682   4.827  -0.374   4.458  1.7524  0.7416 -0.4005
  184DOPC  C31622683   4.798  -0.531   4.301 -0.4264  0.0682  0.0369
  184DOPC  H16X22684   4.784  -0.543   4.192  0.6303  2.1052 -0.3859
  184DOPC  H16Y22685   4.891  -0.581   4.335 -0.3438  1.0521  1.3801
  184DOPC  C31722686   4.700  -0.613   4.384  0.2360  0.4355  0.1346
  184DOPC  H17X22687   4.605  -0.557   4.372  0.9572  2.0872  1.6209
  184DOPC  H17Y22688   4.686  -0.716   4.344  0.6874 -1.3831  4.1541
  184DOPC  C31822689   4.739  -0.649   4.526 -0.3785  0.6293  0.1393
  184DOPC  H18X22690   4.670  -0.727   4.566 -0.5258 -0.6220 -2.3631
  184DOPC  H18Y22691   4.838  -0.698   4.536 -0.2603  0.3043 -2.0675
  184DOPC  H18Z22692   4.731  -0.560   4.592  0.0629  0.7855 -0.0139
  185DOPC     N22693   5.982   6.245   3.204  0.2473  0.0943 -0.2044
  185DOPC   C1222694   6.113   6.232   3.276 -0.1497  0.1144  0.1740
  185DOPC  H12A22695   6.094   6.228   3.382 -1.6532  1.2421 -0.0119
  185DOPC  H12B22696   6.164   6.328   3.271 -0.5147  0.2585 -0.8908
  185DOPC   C1322697   6.008   6.259   3.053 -0.3061  0.0295  0.2927
  185DOPC  H13A22698   6.044   6.161   3.025 -1.7345 -0.9321  1.6839
  185DOPC  H13B22699   5.922   6.304   3.006 -0.2040  2.9114  2.6040
  185DOPC  H13C22700   6.090   6.329   3.041  0.2010 -0.1801  2.2241
  185DOPC   C1422701   5.903   6.365   3.248  0.2221 -0.3315 -0.1592
  185DOPC  H14A22702   5.951   6.458   3.221  0.9997 -0.7869 -0.3737
  185DOPC  H14B22703   5.805   6.368   3.204 -1.2897  1.7372  3.0272
  185DOPC  H14C22704   5.889   6.364   3.355 -0.5456  0.6238 -0.2408
  185DOPC   C1522705   5.894   6.124   3.218 -0.1306 -0.2431 -0.3888
  185DOPC  H15A22706   5.849   6.118   3.316  0.1944 -1.8920 -0.3130
  185DOPC  H15B22707   5.957   6.038   3.199 -0.5246 -1.0463  1.6793
  185DOPC  H15C22708   5.819   6.131   3.141 -0.1682 -4.5344 -0.9957
  185DOPC   C1122709   6.210   6.128   3.223  0.1957 -0.0918 -0.1086
  185DOPC  H11A22710   6.240   6.141   3.117 -0.5774  2.9983 -0.0631
  185DOPC  H11B22711   6.310   6.143   3.268 -0.8288  0.0629  2.2402
  185DOPC     P22712   6.178   5.926   3.387 -0.1234  0.2547 -0.2312
  185DOPC   O1322713   6.325   5.887   3.404  0.2701  0.4259  0.0440
  185DOPC   O1422714   6.079   5.819   3.410 -0.2989  0.0357  0.1245
  185DOPC   O1222715   6.157   5.994   3.247 -0.0980  0.2719 -0.7224
  185DOPC   O1122716   6.134   6.047   3.485  0.3763  0.0364  0.4576
  185DOPC    C122717   6.220   6.086   3.591  0.1824  0.1296  0.1077
  185DOPC    HA22718   6.210   6.195   3.614 -2.9927 -0.0792  0.2658
  185DOPC    HB22719   6.329   6.076   3.577  0.3320 -1.2311  1.9532
  185DOPC    C222720   6.170   6.006   3.721 -0.0135 -0.1019  0.1576
  185DOPC    HS22721   6.208   5.902   3.708  1.1758  0.4072 -0.5891
  185DOPC   O2122722   6.025   6.018   3.738 -0.3562 -0.0942  0.3372
  185DOPC   C2122723   5.950   5.918   3.789  0.1200  0.0802  0.2905
  185DOPC   O2222724   5.990   5.808   3.825  0.1938  0.0367 -0.3453
  185DOPC   C2222725   5.812   5.976   3.814 -0.0617 -0.3476  0.1427
  185DOPC   H2R22726   5.746   5.929   3.737 -1.8548 -1.5410  2.2734
  185DOPC   H2S22727   5.815   6.087   3.807  0.7709 -0.3840 -0.2119
  185DOPC    C322728   6.233   6.064   3.853  0.6800 -0.1391  0.2618
  185DOPC    HX22729   6.181   6.161   3.868  0.0364 -0.4075 -0.2161
  185DOPC    HY22730   6.339   6.081   3.824  0.2912 -1.5633 -2.3568
  185DOPC   O3122731   6.216   5.989   3.975 -0.0098  0.7607 -0.0083
  185DOPC   C3122732   6.267   5.867   3.971  0.3977 -0.0131 -0.5267
  185DOPC   O3222733   6.317   5.805   3.878 -0.2815 -0.0292 -0.5741
  185DOPC   C3222734   6.262   5.812   4.113 -0.4511 -0.2151  0.1641
  185DOPC   H2X22735   6.355   5.836   4.168 -0.5747 -1.5408  0.9917
  185DOPC   H2Y22736   6.173   5.861   4.160 -0.6954  0.4689 -0.9671
  185DOPC   C2322737   5.737   5.920   3.938  0.7419 -0.4359 -0.1675
  185DOPC   H3R22738   5.732   5.812   3.911  0.1661 -0.6742  0.8749
  185DOPC   H3S22739   5.631   5.951   3.930  0.8572 -0.4388 -2.5083
  185DOPC   C2422740   5.799   5.947   4.066  0.2866  0.0431 -0.7018
  185DOPC   H4R22741   5.894   5.891   4.077  0.2727  0.2939  1.0225
  185DOPC   H4S22742   5.734   5.902   4.145 -0.8816 -2.9586 -3.1941
  185DOPC   C2522743   5.815   6.096   4.103  0.7309  0.4300 -0.1658
  185DOPC   H5R22744   5.726   6.159   4.083  0.6946  0.4963  0.1992
  185DOPC   H5S22745   5.897   6.140   4.042  0.3601  1.1220 -0.1703
  185DOPC   C2622746   5.868   6.118   4.247 -0.0412 -0.3504  0.3634
  185DOPC   H6R22747   5.785   6.085   4.314  1.3468 -1.2602  1.7019
  185DOPC   H6S22748   5.873   6.228   4.261 -0.3140 -0.2047 -0.6225
  185DOPC   C2722749   6.000   6.052   4.281 -0.3976  0.0472  0.4930
  185DOPC   H7R22750   6.083   6.103   4.228 -1.0437  0.3058 -0.2876
  185DOPC   H7S22751   5.984   5.944   4.264  1.1067  0.0637 -1.4354
  185DOPC   C2822752   6.023   6.063   4.434 -0.1543 -0.2258 -0.5124
  185DOPC   H8R22753   6.110   5.998   4.459 -1.4529 -1.0893  2.1142
  185DOPC   H8S22754   5.937   6.014   4.484 -0.6048 -0.1099 -1.1606
  185DOPC   C2922755   6.032   6.193   4.499 -0.0799 -0.7668  0.0635
  185DOPC   H9R22756   6.016   6.279   4.433  1.3588 -0.3557  0.2215
  185DOPC  C21022757   6.062   6.208   4.624 -0.5133 -0.2865 -0.0110
  185DOPC  H10R22758   6.052   6.307   4.672 -2.1040  0.5839 -1.9862
  185DOPC  C21122759   6.099   6.105   4.726 -0.0597 -0.2004  0.1956
  185DOPC  H11R22760   6.057   6.003   4.708 -1.2333  0.2196  0.4703
  185DOPC  H11S22761   6.062   6.137   4.825 -0.6765  0.2380 -0.1701
  185DOPC  C21222762   6.255   6.101   4.749 -0.2218 -0.6881  0.2972
  185DOPC  H12R22763   6.310   6.166   4.678 -1.3586 -0.7010 -0.6388
  185DOPC  H12S22764   6.286   5.998   4.719  0.5226  0.2830 -2.6721
  185DOPC  C21322765   6.294   6.129   4.890  0.1237  0.1251  0.1755
  185DOPC  H13R22766   6.264   6.051   4.964  0.0518  0.7731  0.8368
  185DOPC  H13S22767   6.247   6.219   4.933 -0.9795  0.8164 -2.2968
  185DOPC  C21422768   6.445   6.139   4.895  0.0339 -0.2859 -0.2567
  185DOPC  H14R22769   6.477   6.213   4.819  0.4525  0.3398  0.5134
  185DOPC  H14S22770   6.489   6.040   4.872  0.5271  0.1770 -1.3492
  185DOPC  C21522771   6.484   6.185   5.038  0.2743  0.0996  0.4582
  185DOPC  H15R22772   6.461   6.101   5.108 -0.5754 -0.4271 -0.4202
  185DOPC  H15S22773   6.428   6.275   5.071  2.1946  1.8882 -0.8959
  185DOPC  C21622774   6.630   6.219   5.053  0.0645 -0.1003  0.3682
  185DOPC  H16R22775   6.697   6.157   4.990  1.1766  0.9807  0.4257
  185DOPC  H16S22776   6.652   6.194   5.159  0.3923 -0.6522  0.1716
  185DOPC  C21722777   6.669   6.362   5.033 -0.0303  0.1837 -0.4385
  185DOPC  H17R22778   6.628   6.409   5.124  0.0419  0.4690 -0.5538
  185DOPC  H17S22779   6.627   6.402   4.938  1.1888  0.3749 -0.9142
  185DOPC  C21822780   6.823   6.374   5.026  0.3533  0.0351  0.4104
  185DOPC  H18R22781   6.867   6.388   5.127 -0.0580 -1.3835  0.7992
  185DOPC  H18S22782   6.856   6.461   4.965  0.3698  1.4203  2.3007
  185DOPC  H18T22783   6.864   6.283   4.977  0.2914  2.4652 -4.7783
  185DOPC   C3322784   6.241   5.658   4.124  0.1287 -0.0653  0.2191
  185DOPC   H3X22785   6.319   5.611   4.060 -0.8452 -0.5120 -0.6521
  185DOPC   H3Y22786   6.140   5.640   4.082 -0.8925 -2.0979  3.2075
  185DOPC   C3422787   6.244   5.605   4.268  0.0153  0.0402  0.1391
  185DOPC   H4X22788   6.249   5.494   4.269 -0.3562  0.0168 -0.3883
  185DOPC   H4Y22789   6.150   5.635   4.319  0.1505 -0.7324  0.8670
  185DOPC   C3522790   6.361   5.661   4.346 -0.2112  0.0572 -0.2559
  185DOPC   H5X22791   6.359   5.772   4.343 -2.0483  0.0401 -2.1192
  185DOPC   H5Y22792   6.457   5.625   4.305  0.2726  0.7575  0.2400
  185DOPC   C3622793   6.365   5.615   4.494 -0.0334  0.6694  0.0563
  185DOPC   H6X22794   6.261   5.602   4.533 -0.0219 -0.8348 -0.3433
  185DOPC   H6Y22795   6.412   5.515   4.505 -1.9319 -0.4415 -1.2837
  185DOPC   C3722796   6.437   5.718   4.577  0.3379  0.1074 -0.0573
  185DOPC   H7X22797   6.541   5.732   4.543  0.8583 -1.0174  0.9651
  185DOPC   H7Y22798   6.388   5.816   4.560  2.0227  1.1445  0.7901
  185DOPC   C3822799   6.448   5.683   4.730  1.1440  0.3847 -0.3167
  185DOPC   H8X22800   6.529   5.745   4.775  1.3578  0.2848 -0.5660
  185DOPC   H8Y22801   6.477   5.576   4.728 -1.5699 -0.4570  0.7614
  185DOPC   C3922802   6.316   5.710   4.809  0.0620 -0.1595 -0.0300
  185DOPC   H9X22803   6.289   5.815   4.822  0.2370 -0.1246  0.0511
  185DOPC  C31022804   6.234   5.617   4.847  0.0958  0.3980 -0.5502
  185DOPC  H10X22805   6.137   5.643   4.892  0.4688 -0.2320  0.6561
  185DOPC  C31122806   6.233   5.472   4.819 -0.6089 -0.1189  0.9031
  185DOPC  H11X22807   6.228   5.406   4.908  0.4471 -1.0648  0.2841
  185DOPC  H11Y22808   6.330   5.444   4.773  0.2764  2.7081  0.8309
  185DOPC  C31222809   6.104   5.433   4.741  0.4779  0.0773  0.2292
  185DOPC  H12X22810   6.067   5.512   4.673  0.4912  1.7368  2.0773
  185DOPC  H12Y22811   6.028   5.438   4.823  0.9127 -0.1931  0.6540
  185DOPC  C31322812   6.099   5.301   4.664  0.1942  0.0435  0.0322
  185DOPC  H13X22813   6.138   5.217   4.725 -0.6422  0.2358  0.8744
  185DOPC  H13Y22814   5.993   5.274   4.647 -0.6496  2.2107  1.3593
  185DOPC  C31422815   6.160   5.303   4.524 -0.2033 -0.1088 -0.0259
  185DOPC  H14X22816   6.083   5.363   4.471  0.6579 -1.0714 -2.5171
  185DOPC  H14Y22817   6.257   5.357   4.518 -0.5749  0.4270 -2.8444
  185DOPC  C31522818   6.178   5.175   4.443 -0.6090  0.4021  0.2148
  185DOPC  H15X22819   6.263   5.120   4.488 -0.1520  0.2680 -0.7978
  185DOPC  H15Y22820   6.207   5.201   4.339 -0.1151 -1.3438 -0.1186
  185DOPC  C31622821   6.048   5.087   4.448 -0.3958 -0.2988 -1.0022
  185DOPC  H16X22822   6.036   5.056   4.554 -0.1774 -2.1229 -1.4865
  185DOPC  H16Y22823   5.967   5.152   4.410 -0.3811 -1.9865 -4.3110
  185DOPC  C31722824   6.057   4.962   4.365  0.1173 -0.0978 -0.0141
  185DOPC  H17X22825   6.034   4.973   4.257  0.1260  0.7592  0.0620
  185DOPC  H17Y22826   6.166   4.939   4.362  0.5113  1.5153  0.5331
  185DOPC  C31822827   5.971   4.854   4.426 -0.6119  0.0549  0.9963
  185DOPC  H18X22828   5.956   4.770   4.354 -2.6916  1.7157 -0.6693
  185DOPC  H18Y22829   6.021   4.803   4.510 -2.1236  0.1434  1.9817
  185DOPC  H18Z22830   5.877   4.902   4.462 -0.9152  0.5410 -0.3541
  186DOPC     N22831   0.250   4.027   3.132 -0.8839  0.0731 -0.4366
  186DOPC   C1222832   0.190   3.923   3.225  0.6676  0.1187 -0.3504
  186DOPC  H12A22833   0.167   3.969   3.320  1.0021  0.2846 -0.3495
  186DOPC  H12B22834   0.266   3.847   3.242 -0.0336 -0.2656  1.2776
  186DOPC   C1322835   0.381   4.080   3.189 -0.7933  0.4103  0.2714
  186DOPC  H13A22836   0.362   4.131   3.282 -0.0794 -0.2686  0.8043
  186DOPC  H13B22837   0.453   4.001   3.207 -1.3764  0.1707  1.6696
  186DOPC  H13C22838   0.421   4.151   3.118 -0.9619 -1.8822 -2.2896
  186DOPC   C1422839   0.174   4.153   3.111  0.5485  0.7171 -0.4693
  186DOPC  H14A22840   0.087   4.142   3.048 -0.3268 -2.0416  1.0488
  186DOPC  H14B22841   0.128   4.178   3.205  1.5015  2.1212 -0.3411
  186DOPC  H14C22842   0.234   4.232   3.068  1.9016  0.3223  0.6236
  186DOPC   C1522843   0.293   3.971   2.995  0.2302 -0.1095  0.3962
  186DOPC  H15A22844   0.202   3.950   2.942 -0.0440 -1.2642  1.2905
  186DOPC  H15B22845   0.337   3.874   3.010 -0.7422 -0.6093  0.0405
  186DOPC  H15C22846   0.366   4.032   2.943 -1.2564  3.1828  1.8762
  186DOPC   C1122847   0.062   3.845   3.167  0.1878  0.5070 -0.0170
  186DOPC  H11A22848   0.028   3.798   3.261 -0.1706 -0.2629 -0.5232
  186DOPC  H11B22849  -0.020   3.906   3.124 -1.3739 -1.7759 -0.4367
  186DOPC     P22850   0.156   3.609   3.101  0.0546 -0.0186 -0.1367
  186DOPC   O1322851   0.301   3.614   3.092  0.6358 -0.1308 -0.1298
  186DOPC   O1422852   0.089   3.519   3.005  0.0327  0.0956 -0.0859
  186DOPC   O1222853   0.097   3.752   3.071 -0.3026  0.1440 -0.2522
  186DOPC   O1122854   0.123   3.579   3.252  0.0592 -0.1775  0.0191
  186DOPC    C122855  -0.000   3.537   3.306  0.5087  0.3349  0.3458
  186DOPC    HA22856  -0.061   3.492   3.225  1.3809 -0.1192 -0.0733
  186DOPC    HB22857  -0.061   3.624   3.338 -0.8525  0.2297 -1.7267
  186DOPC    C222858   0.011   3.433   3.413 -0.3266 -0.3230  0.1508
  186DOPC    HS22859  -0.092   3.407   3.445 -0.2541 -0.8545 -0.0303
  186DOPC   O2122860   0.087   3.498   3.519 -0.1252  0.1573  0.1358
  186DOPC   C2122861   0.006   3.543   3.616 -0.1818  0.4870  0.0561
  186DOPC   O2222862  -0.116   3.522   3.623 -0.2965 -0.2826 -0.0853
  186DOPC   C2222863   0.087   3.640   3.702 -0.0706  0.3609 -0.5430
  186DOPC   H2R22864   0.070   3.736   3.648 -0.8518 -0.9396 -2.7582
  186DOPC   H2S22865   0.196   3.620   3.695 -0.3723 -1.0743 -1.7987
  186DOPC    C322866   0.083   3.305   3.367  0.0698  0.8616 -0.2249
  186DOPC    HX22867   0.181   3.329   3.321 -0.4115 -0.5291 -2.1129
  186DOPC    HY22868   0.019   3.263   3.286 -0.1245  0.0676  0.3254
  186DOPC   O3122869   0.086   3.199   3.463 -0.1439 -0.4820 -0.2071
  186DOPC   C3122870   0.187   3.199   3.546  0.6895  0.0359 -0.1868
  186DOPC   O3222871   0.272   3.283   3.550 -0.0748  1.0612 -0.2973
  186DOPC   C3222872   0.189   3.075   3.634 -0.2634 -0.4907  0.2062
  186DOPC   H2X22873   0.092   3.025   3.617  0.0104 -0.3121 -2.2265
  186DOPC   H2Y22874   0.269   3.007   3.597 -1.4722 -1.0781 -1.4509
  186DOPC   C2322875   0.029   3.653   3.845 -0.3993 -0.3497 -0.3184
  186DOPC   H3R22876  -0.080   3.633   3.840 -0.2517 -0.9743 -1.3462
  186DOPC   H3S22877   0.044   3.758   3.877  1.9544 -1.3401  2.2898
  186DOPC   C2422878   0.088   3.555   3.947  0.3085  0.5716  0.1126
  186DOPC   H4R22879   0.198   3.569   3.957  0.3952 -0.8993  1.6964
  186DOPC   H4S22880   0.070   3.449   3.919  0.8150  0.5470 -0.1461
  186DOPC   C2522881   0.010   3.577   4.078 -0.4827 -0.4059  0.4463
  186DOPC   H5R22882  -0.096   3.545   4.065 -0.0290 -0.9529 -2.4028
  186DOPC   H5S22883  -0.002   3.682   4.111 -0.1478 -0.4605  0.7446
  186DOPC   C2622884   0.071   3.495   4.197 -0.1057 -0.1998 -0.4311
  186DOPC   H6R22885   0.182   3.504   4.189 -0.2042  2.9592  0.5397
  186DOPC   H6S22886   0.027   3.393   4.185  0.7525 -0.5524 -0.7177
  186DOPC   C2722887   0.014   3.553   4.329 -0.8151 -0.5239 -0.7705
  186DOPC   H7R22888  -0.096   3.535   4.324 -1.0238  0.8069 -1.5689
  186DOPC   H7S22889   0.040   3.661   4.335  2.3636 -0.9061 -4.1090
  186DOPC   C2822890   0.075   3.472   4.443 -0.2411  0.0382 -0.1325
  186DOPC   H8R22891   0.185   3.458   4.436 -0.3152 -1.2274  0.7075
  186DOPC   H8S22892   0.054   3.365   4.420 -2.3280  0.0819  1.3419
  186DOPC   C2922893   0.035   3.501   4.590 -0.1906 -0.0084 -0.2086
  186DOPC   H9R22894  -0.019   3.415   4.632  1.9417 -1.4531 -0.2218
  186DOPC  C21022895   0.058   3.608   4.662  0.2459 -0.4525 -0.0910
  186DOPC  H10R22896   0.043   3.614   4.771  0.2768 -0.0369 -0.1067
  186DOPC  C21122897   0.133   3.730   4.613  0.0476 -0.1973 -0.2781
  186DOPC  H11R22898   0.062   3.783   4.546 -0.2275 -1.3734 -0.9263
  186DOPC  H11S22899   0.213   3.693   4.546  1.1388  0.3122  0.7041
  186DOPC  C21222900   0.199   3.833   4.708 -0.3865  0.8551 -0.1094
  186DOPC  H12R22901   0.122   3.896   4.757 -0.2194  0.7814  0.2438
  186DOPC  H12S22902   0.258   3.885   4.629 -0.3880 -0.4369 -0.9982
  186DOPC  C21322903   0.288   3.769   4.818 -0.2413  0.7070 -0.8708
  186DOPC  H13R22904   0.349   3.696   4.760  0.7707  0.4056  0.5156
  186DOPC  H13S22905   0.222   3.710   4.886 -1.2374  1.5845 -1.0503
  186DOPC  C21422906   0.374   3.876   4.897 -0.0825 -0.2729 -0.2345
  186DOPC  H14R22907   0.451   3.829   4.961 -0.5715 -0.1349  0.4569
  186DOPC  H14S22908   0.315   3.938   4.968 -1.0983  0.0727 -1.3473
  186DOPC  C21522909   0.454   3.952   4.790  0.5050  0.2793  0.4413
  186DOPC  H15R22910   0.380   4.014   4.736  1.0563  0.1104 -0.5263
  186DOPC  H15S22911   0.498   3.880   4.718  1.0254  0.3036  0.7271
  186DOPC  C21622912   0.554   4.042   4.857  0.3326 -0.4121 -0.2250
  186DOPC  H16R22913   0.601   3.990   4.943  0.2095 -2.0032 -1.0620
  186DOPC  H16S22914   0.499   4.135   4.879 -1.5576 -1.1302 -1.5932
  186DOPC  C21722915   0.673   4.067   4.764  0.0156 -0.0148  0.5560
  186DOPC  H17R22916   0.720   3.971   4.735  1.6588  0.9672 -0.1871
  186DOPC  H17S22917   0.742   4.136   4.818 -0.4341  1.2287 -0.4004
  186DOPC  C21822918   0.638   4.140   4.633  0.2283  0.2292  0.3005
  186DOPC  H18R22919   0.721   4.145   4.559  0.5352  0.1033  0.6333
  186DOPC  H18S22920   0.613   4.248   4.646 -0.9961  0.3188 -2.3201
  186DOPC  H18T22921   0.556   4.091   4.578  0.7110 -1.7887  1.3070
  186DOPC   C3322922   0.240   3.097   3.780  0.0817  0.4347  0.2261
  186DOPC   H3X22923   0.338   3.149   3.776 -0.2147  1.1284  1.6261
  186DOPC   H3Y22924   0.245   2.992   3.818 -2.2398  0.1187 -0.1973
  186DOPC   C3422925   0.143   3.182   3.857 -0.1884 -0.1655 -0.1292
  186DOPC   H4X22926   0.044   3.132   3.862  0.5926 -1.7762  0.1724
  186DOPC   H4Y22927   0.135   3.283   3.811  0.8901  0.9767  2.0301
  186DOPC   C3522928   0.198   3.201   3.999  0.0105  0.3952 -0.4740
  186DOPC   H5X22929   0.142   3.287   4.041  0.8037  1.1884 -0.9904
  186DOPC   H5Y22930   0.305   3.231   3.995 -0.0673  0.9479  1.0189
  186DOPC   C3622931   0.185   3.071   4.087 -0.5443 -0.8951 -0.5848
  186DOPC   H6X22932   0.261   3.000   4.048 -1.0869 -3.0361  1.9556
  186DOPC   H6Y22933   0.216   3.095   4.191 -1.6686  1.5145 -0.7317
  186DOPC   C3722934   0.047   3.004   4.098  0.1249 -0.6085  0.3483
  186DOPC   H7X22935  -0.025   3.086   4.122  1.3606  0.8485 -0.7490
  186DOPC   H7Y22936   0.015   2.963   4.000 -0.1110 -3.4366  1.5273
  186DOPC   C3822937   0.037   2.889   4.199 -0.4448  0.0874 -0.1055
  186DOPC   H8X22938   0.070   2.930   4.297  4.0117 -1.0702 -0.9282
  186DOPC   H8Y22939   0.124   2.831   4.162  0.7310  2.4524 -1.2596
  186DOPC   C3922940  -0.084   2.808   4.202 -0.4632  0.4118 -0.5220
  186DOPC   H9X22941  -0.098   2.732   4.123  0.2203 -1.4788  1.0892
  186DOPC  C31022942  -0.167   2.798   4.309 -0.2666 -0.5174  0.0969
  186DOPC  H10X22943  -0.262   2.742   4.312 -1.8178  1.9943  2.4417
  186DOPC  C31122944  -0.148   2.890   4.435  0.7564  0.5204  0.3789
  186DOPC  H11X22945  -0.239   2.938   4.478  0.7567  0.6229  0.2669
  186DOPC  H11Y22946  -0.083   2.975   4.407  1.1482 -0.3376 -1.4045
  186DOPC  C31222947  -0.056   2.814   4.533 -0.3822  0.6530  0.3571
  186DOPC  H12X22948   0.029   2.773   4.474  0.0071  0.7584  0.8335
  186DOPC  H12Y22949  -0.112   2.727   4.574 -0.2854  0.3687 -0.1052
  186DOPC  C31322950   0.010   2.898   4.646  0.4244  0.1827 -0.5167
  186DOPC  H13X22951   0.065   2.984   4.601  0.1971  1.2928  1.2380
  186DOPC  H13Y22952  -0.073   2.942   4.705  2.1088  0.9673  1.3545
  186DOPC  C31422953   0.128   2.825   4.724  0.2771 -0.4320  0.4988
  186DOPC  H14X22954   0.076   2.735   4.764  0.4490 -0.7009  0.1235
  186DOPC  H14Y22955   0.201   2.808   4.642 -1.7210 -1.0257 -1.2605
  186DOPC  C31522956   0.186   2.904   4.847 -0.5825 -0.7880 -0.1092
  186DOPC  H15X22957   0.129   2.912   4.942  0.8474  0.6137  0.6860
  186DOPC  H15Y22958   0.184   3.012   4.821  1.1971 -0.7397 -0.1503
  186DOPC  C31622959   0.337   2.864   4.874  0.5950 -0.5005 -0.2499
  186DOPC  H16X22960   0.339   2.753   4.872  0.6286 -0.5275 -3.1867
  186DOPC  H16Y22961   0.393   2.895   4.783  0.1604  0.7106 -0.1209
  186DOPC  C31722962   0.400   2.908   5.005 -0.4765 -0.4698 -0.5854
  186DOPC  H17X22963   0.507   2.875   5.005  0.2148  1.6363 -0.2559
  186DOPC  H17Y22964   0.396   3.018   4.997  1.0239 -0.2259  1.1338
  186DOPC  C31822965   0.331   2.865   5.135 -0.3171 -0.2390  0.3486
  186DOPC  H18X22966   0.226   2.902   5.131 -0.8089 -1.7038 -1.5617
  186DOPC  H18Y22967   0.329   2.755   5.144 -1.8478 -0.2981 -0.4322
  186DOPC  H18Z22968   0.368   2.915   5.228 -1.6840  3.0448 -0.7059
  187DOPC     N22969   7.409   1.931   2.613 -0.0683  0.4136  0.4071
  187DOPC   C1222970   7.498   1.896   2.728  0.3127  0.7317  0.4953
  187DOPC  H12A22971   7.564   1.975   2.763  0.5291  0.0160  1.7812
  187DOPC  H12B22972   7.581   1.831   2.705 -0.0532  0.3493  0.2545
  187DOPC   C1322973   7.340   1.811   2.556  0.1120  0.4064  0.1768
  187DOPC  H13A22974   7.407   1.777   2.478 -1.7840  1.4202 -1.9860
  187DOPC  H13B22975   7.329   1.735   2.632 -2.0253 -0.2484 -0.7263
  187DOPC  H13C22976   7.242   1.825   2.514  0.2739  0.4361 -0.2011
  187DOPC   C1422977   7.488   2.003   2.508 -0.4022  0.3450 -0.0947
  187DOPC  H14A22978   7.423   2.014   2.423 -2.6739  0.8418  1.6021
  187DOPC  H14B22979   7.506   2.107   2.531  0.2419  0.5328 -1.3755
  187DOPC  H14C22980   7.578   1.954   2.477  0.7022  2.1488  0.1210
  187DOPC   C1522981   7.312   2.027   2.669 -0.4079 -0.4023  0.4299
  187DOPC  H15A22982   7.356   2.120   2.701 -1.8133  0.8773 -1.1615
  187DOPC  H15B22983   7.265   1.993   2.760 -0.9706 -0.5776  0.0749
  187DOPC  H15C22984   7.232   2.059   2.604 -1.1441 -0.3752  1.3341
  187DOPC   C1122985   7.427   1.833   2.851  0.1161 -0.5068  0.3326
  187DOPC  H11A22986   7.504   1.824   2.930  0.8174  1.2262 -0.1038
  187DOPC  H11B22987   7.356   1.900   2.903  0.0985  0.2734 -0.6581
  187DOPC     P22988   7.426   1.569   2.853  0.1779 -0.1367  0.0549
  187DOPC   O1322989   7.557   1.555   2.786  0.0195  0.0952  0.1100
  187DOPC   O1422990   7.326   1.464   2.825  0.2563 -0.5858  0.0726
  187DOPC   O1222991   7.359   1.708   2.827  0.6795 -0.6821 -0.9110
  187DOPC   O1122992   7.459   1.577   3.004  0.1704  0.0144 -0.1769
  187DOPC    C122993   7.368   1.602   3.108  0.1050  0.8887 -0.1912
  187DOPC    HA22994   7.264   1.604   3.067 -0.0174 -1.8007 -0.2139
  187DOPC    HB22995   7.394   1.699   3.156 -0.1816  1.3313 -0.9166
  187DOPC    C222996   7.366   1.484   3.220 -0.9149 -0.6999 -0.1623
  187DOPC    HS22997   7.307   1.514   3.310  0.8091 -0.8996  1.0972
  187DOPC   O2122998   7.498   1.437   3.254 -0.4122  0.8326 -0.2681
  187DOPC   C2122999   7.578   1.529   3.310 -0.2788  0.3991 -0.0504
  187DOPC   O2223000   7.560   1.646   3.332 -0.3690  0.6048  0.5439
  187DOPC   C2223001   7.698   1.453   3.352  0.2073 -0.8745 -0.2732
  187DOPC   H2R23002   7.715   1.397   3.257 -2.7702  0.3910 -1.6729
  187DOPC   H2S23003   7.664   1.386   3.433 -0.1914 -0.8728 -0.4373
  187DOPC    C323004   7.279   1.367   3.163  0.2183 -0.4197 -0.4949
  187DOPC    HX23005   7.343   1.332   3.079  2.5733  2.7265 -0.1529
  187DOPC    HY23006   7.184   1.409   3.123 -0.0687  0.2330  0.8330
  187DOPC   O3123007   7.248   1.270   3.263 -0.7684 -0.7033  0.1290
  187DOPC   C3123008   7.312   1.158   3.261  0.2163  0.0868  0.4643
  187DOPC   O3223009   7.399   1.125   3.182 -0.5620  0.0604 -0.3181
  187DOPC   C3223010   7.278   1.074   3.383 -0.0613  0.4008 -0.1518
  187DOPC   H2X23011   7.173   1.039   3.387  0.0248  0.2503  2.0415
  187DOPC   H2Y23012   7.331   0.977   3.373 -1.1218 -0.2572  0.3609
  187DOPC   C2323013   7.818   1.526   3.409  0.0268 -0.2375 -0.1803
  187DOPC   H3R23014   7.852   1.605   3.339  2.8574 -2.6367 -1.7349
  187DOPC   H3S23015   7.908   1.465   3.430  0.5071  0.8318  0.9683
  187DOPC   C2423016   7.796   1.596   3.542  1.3057 -0.3558 -0.9121
  187DOPC   H4R23017   7.765   1.515   3.612 -0.0802 -1.9864 -3.2939
  187DOPC   H4S23018   7.714   1.671   3.535 -0.0532 -1.7231 -0.1800
  187DOPC   C2523019   7.917   1.662   3.610 -0.5357 -0.5860 -0.2936
  187DOPC   H5R23020   7.913   1.766   3.573  1.9903 -0.5610 -0.6830
  187DOPC   H5S23021   8.010   1.625   3.561  0.7928  3.5498 -1.2961
  187DOPC   C2623022   7.899   1.686   3.762 -0.0583 -0.1553  0.2194
  187DOPC   H6R23023   7.790   1.706   3.769 -0.0876 -0.3728  0.3896
  187DOPC   H6S23024   7.965   1.769   3.798  1.0381 -0.3499 -1.2404
  187DOPC   C2723025   7.943   1.560   3.844 -0.5055 -0.1085  0.3063
  187DOPC   H7R23026   8.053   1.554   3.835 -0.3002  1.3494  1.4380
  187DOPC   H7S23027   7.898   1.474   3.789  1.4645  0.7388 -2.9212
  187DOPC   C2823028   7.904   1.573   3.997 -0.0027  0.4150  0.8786
  187DOPC   H8R23029   7.794   1.586   4.000  0.0563  0.7988  1.6378
  187DOPC   H8S23030   7.943   1.672   4.029 -0.6547  0.2949  2.0859
  187DOPC   C2923031   7.957   1.461   4.084  0.7424 -0.5747  0.4204
  187DOPC   H9R23032   8.066   1.469   4.082  0.7264 -0.1100  0.9879
  187DOPC  C21023033   7.896   1.385   4.179  0.0926  0.4347  0.2045
  187DOPC  H10R23034   7.948   1.299   4.223 -1.9998 -1.6988 -1.2758
  187DOPC  C21123035   7.747   1.376   4.199 -0.2236  0.4567  0.0959
  187DOPC  H11R23036   7.710   1.272   4.204 -0.1889  0.4997  3.8610
  187DOPC  H11S23037   7.692   1.436   4.124 -0.6339  1.3594  1.0913
  187DOPC  C21223038   7.721   1.451   4.337 -0.2396  0.0566  0.0682
  187DOPC  H12R23039   7.726   1.560   4.318  1.1177 -0.1314 -0.8246
  187DOPC  H12S23040   7.795   1.420   4.414  0.0733  0.0408 -0.2377
  187DOPC  C21323041   7.593   1.420   4.413  0.0203 -0.8781 -0.0247
  187DOPC  H13R23042   7.518   1.410   4.330  0.4891  1.3848 -0.7897
  187DOPC  H13S23043   7.567   1.499   4.486  2.3563 -0.8787  0.8825
  187DOPC  C21423044   7.594   1.285   4.488  0.1778  0.0642 -0.2915
  187DOPC  H14R23045   7.670   1.290   4.569  0.1412 -3.4518  0.1359
  187DOPC  H14S23046   7.640   1.205   4.425 -0.4831 -1.1175  0.7087
  187DOPC  C21523047   7.464   1.255   4.561 -0.5655 -0.1016 -0.3944
  187DOPC  H15R23048   7.380   1.295   4.500 -1.2013  2.0903  1.7749
  187DOPC  H15S23049   7.472   1.316   4.653  1.3275 -1.1494  0.1955
  187DOPC  C21623050   7.431   1.109   4.596 -0.5549  0.0955  0.6312
  187DOPC  H16R23051   7.531   1.066   4.617 -0.8897 -0.7344  0.5544
  187DOPC  H16S23052   7.400   1.052   4.506  1.5867  0.2453 -0.2626
  187DOPC  C21723053   7.334   1.089   4.711  0.0039 -0.6776 -0.0571
  187DOPC  H17R23054   7.233   1.122   4.679  1.6788  2.5055 -2.5920
  187DOPC  H17S23055   7.362   1.165   4.787 -0.2624 -0.9522  0.3223
  187DOPC  C21823056   7.332   0.941   4.754  0.5558 -0.3925 -0.3592
  187DOPC  H18R23057   7.260   0.919   4.835  0.2678 -2.5493 -1.1365
  187DOPC  H18S23058   7.433   0.913   4.791  1.4241 -0.0674 -2.3699
  187DOPC  H18T23059   7.312   0.872   4.670 -0.4171 -0.1286 -0.3553
  187DOPC   C3323060   7.302   1.146   3.514  0.1619 -0.3832 -0.0429
  187DOPC   H3X23061   7.257   1.084   3.595 -0.9808  1.0686  0.4708
  187DOPC   H3Y23062   7.250   1.244   3.512  1.1014  0.1204 -0.7003
  187DOPC   C3423063   7.451   1.177   3.558 -0.3455  0.4164 -0.1181
  187DOPC   H4X23064   7.492   1.248   3.483  0.1023 -1.3632 -1.6105
  187DOPC   H4Y23065   7.521   1.093   3.546 -0.7196  0.1378 -0.3808
  187DOPC   C3523066   7.460   1.233   3.698  0.3022 -0.4911  0.2563
  187DOPC   H5X23067   7.568   1.255   3.717  0.6271 -1.1217 -0.7953
  187DOPC   H5Y23068   7.432   1.159   3.776  3.0015 -0.4402  1.3998
  187DOPC   C3623069   7.375   1.362   3.708 -0.9442 -0.0993 -0.3352
  187DOPC   H6X23070   7.387   1.423   3.616 -2.7628 -0.1742 -0.6586
  187DOPC   H6Y23071   7.268   1.342   3.730 -0.7101  1.4407  2.7584
  187DOPC   C3723072   7.427   1.455   3.817 -0.1730  0.3606 -0.5987
  187DOPC   H7X23073   7.429   1.407   3.917 -0.3668 -1.1049 -1.2789
  187DOPC   H7Y23074   7.536   1.473   3.806  0.2776 -0.8679  1.2800
  187DOPC   C3823075   7.342   1.582   3.825  0.1523 -0.4085 -0.5044
  187DOPC   H8X23076   7.362   1.626   3.925 -0.7177 -0.5877 -0.2510
  187DOPC   H8Y23077   7.232   1.568   3.820 -0.0713  1.1803 -0.4425
  187DOPC   C3923078   7.378   1.679   3.718 -0.5788 -0.5063  0.1411
  187DOPC   H9X23079   7.436   1.643   3.632 -2.5627  0.8568 -1.8967
  187DOPC  C31023080   7.366   1.816   3.725 -0.9870 -0.0118  0.2602
  187DOPC  H10X23081   7.407   1.872   3.639 -1.4797 -1.9871 -1.3458
  187DOPC  C31123082   7.320   1.899   3.840  0.5399  0.6625 -0.4062
  187DOPC  H11X23083   7.247   1.971   3.799  0.7952  0.4100 -1.3348
  187DOPC  H11Y23084   7.406   1.948   3.891  0.2111  0.6018  0.2184
  187DOPC  C31223085   7.230   1.846   3.954  0.2330  0.1443  0.2422
  187DOPC  H12X23086   7.284   1.785   4.031 -2.3435  1.9318  3.7628
  187DOPC  H12Y23087   7.144   1.784   3.922  0.1920  1.1771 -1.7649
  187DOPC  C31323088   7.170   1.952   4.054 -0.6877 -0.0477  0.2238
  187DOPC  H13X23089   7.254   2.007   4.103 -0.6360  0.9538 -0.9576
  187DOPC  H13Y23090   7.101   2.025   4.007 -0.4726  1.0137  1.5073
  187DOPC  C31423091   7.087   1.877   4.163  0.2155 -0.0164 -0.4151
  187DOPC  H14X23092   7.016   1.815   4.104 -0.8390 -0.4541  1.2613
  187DOPC  H14Y23093   7.149   1.809   4.225 -1.0168 -2.0045 -1.2761
  187DOPC  C31523094   7.003   1.974   4.260 -0.1597  0.0538  0.0948
  187DOPC  H15X23095   6.946   2.040   4.191 -1.4262 -1.7531 -0.6654
  187DOPC  H15Y23096   7.087   2.034   4.301  0.7814  0.7900 -2.6596
  187DOPC  C31623097   6.918   1.918   4.373 -0.4743  0.5614 -0.2183
  187DOPC  H16X23098   6.824   1.875   4.332 -0.5984  0.9642 -0.3633
  187DOPC  H16Y23099   6.981   1.842   4.422  0.7972  0.6722 -1.6066
  187DOPC  C31723100   6.881   2.029   4.474  0.6058 -0.3726 -0.5300
  187DOPC  H17X23101   6.972   2.079   4.514 -0.8413  1.5669  0.5151
  187DOPC  H17Y23102   6.822   2.112   4.430 -0.3586  1.1190  3.1272
  187DOPC  C31823103   6.794   1.986   4.590 -0.1639 -0.1141 -0.3121
  187DOPC  H18X23104   6.757   2.076   4.643  2.3267  1.1242 -0.5108
  187DOPC  H18Y23105   6.703   1.927   4.567 -0.7160 -0.3103  2.1042
  187DOPC  H18Z23106   6.851   1.937   4.672 -0.4708  0.3243  0.1683
  188DOPC     N23107   1.103   1.248   2.939 -0.2397  0.0799  0.6167
  188DOPC   C1223108   1.162   1.385   2.889  0.4467 -0.4482  0.5729
  188DOPC  H12A23109   1.086   1.443   2.838  2.0474  1.5568  0.3016
  188DOPC  H12B23110   1.226   1.366   2.803 -0.1928  2.3919 -0.6675
  188DOPC   C1323111   1.202   1.152   2.980 -0.0502 -0.2727 -0.0527
  188DOPC  H13A23112   1.155   1.073   3.037 -2.0355  1.5377  0.9753
  188DOPC  H13B23113   1.257   1.101   2.902 -0.1373 -1.4642  0.6345
  188DOPC  H13C23114   1.273   1.192   3.050  1.1231 -0.6743 -0.9869
  188DOPC   C1423115   1.008   1.196   2.830  0.2245  0.2720 -0.3221
  188DOPC  H14A23116   1.047   1.159   2.737 -0.2439 -2.3694  0.4710
  188DOPC  H14B23117   0.933   1.126   2.862  0.3220 -0.3613 -1.4272
  188DOPC  H14C23118   0.943   1.276   2.796 -1.4733 -0.9835 -0.1348
  188DOPC   C1523119   1.010   1.270   3.052 -0.1855 -0.5322 -0.2616
  188DOPC  H15A23120   1.057   1.340   3.119 -1.4838  0.5115 -0.3863
  188DOPC  H15B23121   0.984   1.178   3.102 -2.4255  0.1478 -0.0595
  188DOPC  H15C23122   0.924   1.323   3.014 -0.2287 -0.9798 -0.8024
  188DOPC   C1123123   1.240   1.479   2.985 -0.1619 -0.6521  0.3144
  188DOPC  H11A23124   1.237   1.583   2.945 -0.3351 -1.3211 -1.5253
  188DOPC  H11B23125   1.199   1.489   3.087  0.5686  2.4567  0.3968
  188DOPC     P23126   1.472   1.379   3.073  0.1856 -0.5513 -0.0995
  188DOPC   O1323127   1.594   1.330   3.002 -0.1890 -0.4214 -0.6771
  188DOPC   O1423128   1.396   1.286   3.167  0.0145 -0.0384  0.2984
  188DOPC   O1223129   1.380   1.445   2.975 -0.4969 -0.6849 -0.3260
  188DOPC   O1123130   1.511   1.506   3.161  0.1423  0.4356  0.0756
  188DOPC    C123131   1.644   1.547   3.187 -0.2076 -0.2818 -0.0271
  188DOPC    HA23132   1.635   1.655   3.214  0.3568  0.4427 -2.4939
  188DOPC    HB23133   1.699   1.547   3.091  1.0941 -1.3104  0.6963
  188DOPC    C223134   1.721   1.471   3.294  0.2054 -0.3240 -0.5486
  188DOPC    HS23135   1.735   1.373   3.243  0.3905 -0.5041 -0.1554
  188DOPC   O2123136   1.640   1.458   3.415 -0.4453  0.3910  0.5407
  188DOPC   C2123137   1.618   1.325   3.452  0.6639  0.2045  0.0525
  188DOPC   O2223138   1.686   1.235   3.408  0.0868  0.8886  0.1945
  188DOPC   C2223139   1.487   1.310   3.538 -0.6691  0.0266 -0.0711
  188DOPC   H2R23140   1.519   1.248   3.625 -1.5129 -1.2045 -0.6095
  188DOPC   H2S23141   1.425   1.246   3.472  3.3703 -1.8917 -2.3586
  188DOPC    C323142   1.853   1.548   3.320 -0.4602 -0.3469 -0.4955
  188DOPC    HX23143   1.825   1.648   3.359 -1.4722 -0.4871 -0.8488
  188DOPC    HY23144   1.915   1.565   3.229  1.5175  0.7900  0.9960
  188DOPC   O3123145   1.943   1.489   3.418  0.2118 -0.0051 -0.1802
  188DOPC   C3123146   1.999   1.372   3.383 -0.9736  0.1850 -0.9077
  188DOPC   O3223147   1.983   1.312   3.281  0.6747  0.2080  0.4139
  188DOPC   C3223148   2.081   1.318   3.501  0.3938  0.0857  0.7961
  188DOPC   H2X23149   2.116   1.404   3.562  2.1321  0.4431 -0.6245
  188DOPC   H2Y23150   2.014   1.257   3.566 -2.0163  2.2600  0.4981
  188DOPC   C2323151   1.419   1.437   3.597 -0.7859 -0.1763 -0.2420
  188DOPC   H3R23152   1.364   1.491   3.516 -0.7954  0.3954  0.1397
  188DOPC   H3S23153   1.495   1.511   3.629 -3.1844  2.1002  0.5925
  188DOPC   C2423154   1.314   1.419   3.693 -0.2107  0.4484 -0.1446
  188DOPC   H4R23155   1.349   1.357   3.777  0.1734  0.8149 -0.0328
  188DOPC   H4S23156   1.238   1.352   3.646  1.7413 -3.5992  1.9742
  188DOPC   C2523157   1.249   1.544   3.746  0.2375  0.1741  0.6434
  188DOPC   H5R23158   1.164   1.583   3.686  1.6363  1.5574 -0.5193
  188DOPC   H5S23159   1.321   1.629   3.742 -1.0808  1.3160  0.3803
  188DOPC   C2623160   1.197   1.537   3.890 -0.0468  0.5046  0.1206
  188DOPC   H6R23161   1.126   1.457   3.920 -0.7879  1.5532  1.2349
  188DOPC   H6S23162   1.141   1.631   3.904 -2.6471 -0.9329 -0.1178
  188DOPC   C2723163   1.312   1.540   3.991 -0.6657 -0.3642  0.3336
  188DOPC   H7R23164   1.391   1.612   3.960  0.6908 -2.4703 -1.2971
  188DOPC   H7S23165   1.351   1.437   4.002 -0.2889 -0.2315  0.2580
  188DOPC   C2823166   1.265   1.590   4.131 -0.1960  0.2460  0.6784
  188DOPC   H8R23167   1.185   1.524   4.170  0.9102 -1.7793 -0.3155
  188DOPC   H8S23168   1.225   1.693   4.117 -0.2441  0.4395  2.1081
  188DOPC   C2923169   1.380   1.583   4.226  0.3333  0.0449  0.3811
  188DOPC   H9R23170   1.477   1.606   4.180 -0.4847  1.7895 -0.5323
  188DOPC  C21023171   1.375   1.531   4.353 -0.1004  0.1327  0.3621
  188DOPC  H10R23172   1.464   1.532   4.418  0.3384 -0.5440 -0.2222
  188DOPC  C21123173   1.256   1.502   4.441  0.1874  0.0229  0.8693
  188DOPC  H11R23174   1.231   1.394   4.454  0.6968 -0.3270 -0.8335
  188DOPC  H11S23175   1.173   1.559   4.394  1.8025  1.2087 -0.6572
  188DOPC  C21223176   1.266   1.560   4.588 -0.0954  0.2704  0.8548
  188DOPC  H12R23177   1.164   1.557   4.632 -0.2261 -2.0985  0.5261
  188DOPC  H12S23178   1.299   1.666   4.590  1.7099 -0.2042 -0.8439
  188DOPC  C21323179   1.353   1.477   4.674  0.0879 -0.9819 -0.1110
  188DOPC  H13R23180   1.454   1.470   4.628  0.6225  3.4277 -0.0344
  188DOPC  H13S23181   1.309   1.376   4.685  0.2097 -0.8824  1.5979
  188DOPC  C21423182   1.378   1.538   4.816 -0.2694 -0.4321  0.6410
  188DOPC  H14R23183   1.345   1.644   4.827  3.1314  0.6614  1.6934
  188DOPC  H14S23184   1.487   1.554   4.835 -0.5669  1.7244  0.8086
  188DOPC  C21523185   1.308   1.462   4.927  0.2753  0.2811 -0.3712
  188DOPC  H15R23186   1.365   1.368   4.945  0.2750  0.4651  0.6866
  188DOPC  H15S23187   1.204   1.432   4.906  0.7669 -2.1608  0.3473
  188DOPC  C21623188   1.311   1.551   5.056 -0.4839 -0.1989 -0.5126
  188DOPC  H16R23189   1.260   1.649   5.041 -0.5288 -0.0779  0.3700
  188DOPC  H16S23190   1.417   1.567   5.087 -0.2947  0.2309 -1.3543
  188DOPC  C21723191   1.235   1.484   5.169  0.9807  0.1578 -0.4457
  188DOPC  H17R23192   1.166   1.407   5.130  0.1379  0.5867  0.1767
  188DOPC  H17S23193   1.178   1.558   5.229 -2.3525  1.1025 -4.3368
  188DOPC  C21823194   1.338   1.417   5.269 -0.0415  0.9076  0.0310
  188DOPC  H18R23195   1.388   1.503   5.318  1.2726  0.3507 -0.2986
  188DOPC  H18S23196   1.413   1.369   5.203 -2.2150  0.3277 -2.1768
  188DOPC  H18T23197   1.292   1.355   5.350  1.4067  2.6606  2.3083
  188DOPC   C3323198   2.206   1.245   3.439  0.1289 -0.1621 -0.3500
  188DOPC   H3X23199   2.235   1.308   3.352  0.5824  1.3657  0.8528
  188DOPC   H3Y23200   2.170   1.148   3.400  0.8050 -0.9974  1.0491
  188DOPC   C3423201   2.334   1.229   3.529 -0.1109  1.0143  0.0170
  188DOPC   H4X23202   2.410   1.175   3.468 -0.0188  0.3872  0.6755
  188DOPC   H4Y23203   2.303   1.167   3.616  0.0348  0.4261 -0.3367
  188DOPC   C3523204   2.399   1.354   3.589  0.3386  0.2360 -0.0514
  188DOPC   H5X23205   2.339   1.447   3.581  2.9755  1.8769 -3.0967
  188DOPC   H5Y23206   2.501   1.372   3.548  0.5612 -2.1000 -0.6376
  188DOPC   C3623207   2.427   1.335   3.744  0.5901 -0.7160 -0.4327
  188DOPC   H6X23208   2.327   1.322   3.792  1.0863  0.6035  1.0675
  188DOPC   H6Y23209   2.486   1.244   3.768 -0.2671 -0.6543  2.2473
  188DOPC   C3723210   2.488   1.461   3.793 -0.1104 -0.4931 -0.4830
  188DOPC   H7X23211   2.592   1.473   3.755  0.2714  1.6581  1.0277
  188DOPC   H7Y23212   2.442   1.552   3.749  0.2818  0.3222  0.7265
  188DOPC   C3823213   2.492   1.477   3.941 -0.7615  0.0526 -0.2752
  188DOPC   H8X23214   2.394   1.450   3.987  0.2334 -0.0609  1.8874
  188DOPC   H8Y23215   2.522   1.582   3.964  1.0321 -0.7501  1.2656
  188DOPC   C3923216   2.608   1.396   3.996  0.8707 -0.1862  0.3084
  188DOPC   H9X23217   2.699   1.390   3.933  1.6750 -0.2335  1.4433
  188DOPC  C31023218   2.608   1.317   4.102  0.1293  0.6386 -0.0836
  188DOPC  H10X23219   2.701   1.270   4.137  0.1172 -0.1213 -1.0109
  188DOPC  C31123220   2.509   1.313   4.209  0.3066  0.4172  0.8565
  188DOPC  H11X23221   2.426   1.247   4.175  0.6349  0.3625  0.1497
  188DOPC  H11Y23222   2.472   1.417   4.227 -0.9232  0.4773 -1.6553
  188DOPC  C31223223   2.553   1.255   4.344 -0.2248  0.0258 -0.5580
  188DOPC  H12X23224   2.473   1.284   4.415 -0.2503 -0.9460 -0.1590
  188DOPC  H12Y23225   2.632   1.322   4.384 -0.7195  0.1267  0.2866
  188DOPC  C31323226   2.586   1.105   4.344 -0.4429  0.2539 -0.0537
  188DOPC  H13X23227   2.506   1.057   4.284  0.1911  0.8676 -1.4343
  188DOPC  H13Y23228   2.678   1.086   4.285  2.2117 -0.5919  3.9298
  188DOPC  C31423229   2.604   1.042   4.480 -0.1322  0.2330 -0.4204
  188DOPC  H14X23230   2.599   0.931   4.482 -0.6222  0.2632  0.6573
  188DOPC  H14Y23231   2.708   1.062   4.513  0.7978 -0.9353 -2.4126
  188DOPC  C31523232   2.515   1.088   4.589 -0.3964  0.1224 -0.2636
  188DOPC  H15X23233   2.409   1.064   4.567  0.1065 -1.4495 -1.1390
  188DOPC  H15Y23234   2.524   1.198   4.606 -1.4841  0.0720  0.7762
  188DOPC  C31623235   2.543   1.018   4.731  0.2783 -0.0186 -0.7625
  188DOPC  H16X23236   2.538   0.907   4.720 -0.5044 -0.0851  0.1686
  188DOPC  H16Y23237   2.641   1.060   4.762  0.3844 -0.8668  0.1098
  188DOPC  C31723238   2.447   1.069   4.850 -0.2244  0.3520 -0.7898
  188DOPC  H17X23239   2.442   1.179   4.862 -1.5503  0.2151  0.0822
  188DOPC  H17Y23240   2.345   1.031   4.829  0.3878 -0.8794 -1.6589
  188DOPC  C31823241   2.491   1.009   4.986 -0.0403  0.0548 -0.4937
  188DOPC  H18X23242   2.577   1.054   5.040  0.0412  0.1408 -0.6926
  188DOPC  H18Y23243   2.404   1.016   5.054  0.8127 -1.0096  0.7567
  188DOPC  H18Z23244   2.510   0.900   4.972 -2.0370 -0.2720 -1.0263
  189DOPC     N23245   3.095   0.068   2.700  0.2538 -0.1246 -0.2548
  189DOPC   C1223246   2.967   0.017   2.759 -0.1502 -0.3467 -0.1484
  189DOPC  H12A23247   2.937  -0.070   2.703 -0.2736 -0.3548 -0.0687
  189DOPC  H12B23248   2.891   0.089   2.731  0.0364 -0.0375  0.1239
  189DOPC   C1323249   3.079   0.104   2.560  0.4985 -0.3854  0.6179
  189DOPC  H13A23250   3.062   0.014   2.503 -1.9922 -1.1876  2.4465
  189DOPC  H13B23251   2.996   0.173   2.549  0.9623  0.4512  2.0383
  189DOPC  H13C23252   3.164   0.156   2.520  0.7147 -1.8370 -0.9177
  189DOPC   C1423253   3.196  -0.039   2.705  0.0291 -0.9694  0.5967
  189DOPC  H14A23254   3.289   0.001   2.669 -1.2490  0.8849 -0.8865
  189DOPC  H14B23255   3.206  -0.071   2.807  0.7557 -0.4481  0.6991
  189DOPC  H14C23256   3.175  -0.127   2.645  1.6522 -0.2350 -1.1591
  189DOPC   C1523257   3.143   0.197   2.765  1.2411  0.2304  0.3762
  189DOPC  H15A23258   3.140   0.190   2.872 -0.9674 -0.3539  0.3330
  189DOPC  H15B23259   3.075   0.278   2.741  0.9044 -0.3907 -0.8743
  189DOPC  H15C23260   3.238   0.223   2.720  0.5155  1.0687 -0.7459
  189DOPC   C1123261   2.959  -0.002   2.913 -0.2444 -0.2467  0.2322
  189DOPC  H11A23262   2.877  -0.072   2.940 -0.9483 -0.4781 -2.2903
  189DOPC  H11B23263   3.046  -0.065   2.941 -0.1868 -0.0369  0.5336
  189DOPC     P23264   2.868   0.234   2.984 -0.0701 -0.1155  0.0351
  189DOPC   O1323265   2.735   0.174   2.999  0.6787  0.6372  1.1357
  189DOPC   O1423266   2.900   0.306   2.863 -0.4718  0.2268 -0.3809
  189DOPC   O1223267   2.969   0.115   2.995 -0.0472 -0.5556  0.3013
  189DOPC   O1123268   2.893   0.317   3.116 -0.3350  0.4237  0.2481
  189DOPC    C123269   3.023   0.371   3.138  0.0414 -0.0981 -0.4014
  189DOPC    HA23270   3.030   0.470   3.088  1.1374  0.5458  0.9633
  189DOPC    HB23271   3.107   0.304   3.110  0.1632 -0.4604  0.7826
  189DOPC    C223272   3.050   0.377   3.297  0.4682  0.4221  0.5945
  189DOPC    HS23273   3.021   0.480   3.326 -0.5058  0.6626 -1.0814
  189DOPC   O2123274   3.184   0.356   3.331 -0.2935 -0.4760 -0.6741
  189DOPC   C2123275   3.269   0.445   3.293  1.8085  0.3557 -0.3190
  189DOPC   O2223276   3.243   0.552   3.237  0.4524 -0.3155  0.4584
  189DOPC   C2223277   3.407   0.404   3.338  0.2133 -0.6741 -0.2243
  189DOPC   H2R23278   3.461   0.395   3.241  0.2676  2.5275 -0.6133
  189DOPC   H2S23279   3.408   0.307   3.392  1.0271 -2.4137 -3.1349
  189DOPC    C323280   2.966   0.277   3.379  0.4302  0.2975  0.3977
  189DOPC    HX23281   2.958   0.174   3.339 -0.2681  0.9091 -1.1493
  189DOPC    HY23282   2.860   0.298   3.353  0.2004 -1.2773 -0.0251
  189DOPC   O3123283   2.981   0.285   3.523  0.5318 -0.0052  0.3463
  189DOPC   C3123284   3.042   0.185   3.578 -0.4618 -0.0811 -0.0853
  189DOPC   O3223285   3.099   0.093   3.519 -0.0662  0.6873  0.2959
  189DOPC   C3223286   3.047   0.205   3.731 -0.2277  0.0698 -0.4120
  189DOPC   H2X23287   3.126   0.274   3.769 -1.3692  0.3918  1.4830
  189DOPC   H2Y23288   2.954   0.261   3.755 -0.4622 -0.4499 -0.1103
  189DOPC   C2323289   3.467   0.522   3.414 -0.5358  0.5773  0.2580
  189DOPC   H3R23290   3.481   0.594   3.331 -0.2125 -0.7485 -0.8714
  189DOPC   H3S23291   3.571   0.495   3.442 -0.3809  1.5879  0.7092
  189DOPC   C2423292   3.386   0.579   3.528 -0.8377 -0.3253  0.5719
  189DOPC   H4R23293   3.298   0.633   3.486 -1.5718 -1.2105  0.9374
  189DOPC   H4S23294   3.450   0.653   3.581  0.6455 -0.0645 -1.4708
  189DOPC   C2523295   3.326   0.479   3.624 -0.3673  0.0624  0.0298
  189DOPC   H5R23296   3.406   0.406   3.648  0.8008  1.2286 -0.1743
  189DOPC   H5S23297   3.238   0.427   3.580  0.6622 -2.6534  0.9898
  189DOPC   C2623298   3.276   0.544   3.756 -0.3936  0.1920  0.4639
  189DOPC   H6R23299   3.363   0.582   3.813  1.2358 -0.9132 -1.1529
  189DOPC   H6S23300   3.228   0.460   3.810  0.9845  0.2543  1.8418
  189DOPC   C2723301   3.170   0.658   3.747 -0.6929 -0.1933 -0.6889
  189DOPC   H7R23302   3.074   0.642   3.693 -1.9549  2.0359  0.7285
  189DOPC   H7S23303   3.205   0.752   3.698  3.3280 -1.8402 -1.3399
  189DOPC   C2823304   3.136   0.705   3.897 -0.8660 -0.3878  0.0433
  189DOPC   H8R23305   3.073   0.796   3.896 -2.2915 -1.3411 -0.4177
  189DOPC   H8S23306   3.231   0.727   3.950 -0.5295 -1.6902  0.0224
  189DOPC   C2923307   3.052   0.607   3.970  0.3351 -0.7074  0.1850
  189DOPC   H9R23308   2.951   0.600   3.927  0.0348  1.3982  0.4714
  189DOPC  C21023309   3.088   0.532   4.076 -0.5213  0.1975  0.4289
  189DOPC  H10R23310   3.013   0.470   4.126 -2.6745  2.1946 -0.1582
  189DOPC  C21123311   3.228   0.538   4.139  0.4302  0.0833  0.3982
  189DOPC  H11R23312   3.305   0.592   4.080  0.7773  0.7214  1.4036
  189DOPC  H11S23313   3.263   0.433   4.149 -0.5828 -0.1493  1.8881
  189DOPC  C21223314   3.223   0.587   4.278 -0.3153  0.0271 -0.6702
  189DOPC  H12R23315   3.161   0.679   4.280 -0.9406 -0.3706 -1.1676
  189DOPC  H12S23316   3.325   0.613   4.312 -0.0802 -1.4290 -0.1921
  189DOPC  C21323317   3.156   0.477   4.366 -0.2048 -0.3038  0.7895
  189DOPC  H13R23318   3.203   0.379   4.340 -0.5138 -0.0118 -0.9438
  189DOPC  H13S23319   3.048   0.463   4.348 -0.5914  1.2782  1.6294
  189DOPC  C21423320   3.173   0.494   4.515  0.7145  0.0936 -0.6994
  189DOPC  H14R23321   3.120   0.590   4.529  0.8525  0.1139 -0.2682
  189DOPC  H14S23322   3.280   0.518   4.537  0.9180 -0.9012 -0.5524
  189DOPC  C21523323   3.086   0.411   4.609 -0.7120  0.0902 -0.3144
  189DOPC  H15R23324   3.139   0.314   4.619 -1.7440 -0.4288  0.3647
  189DOPC  H15S23325   2.984   0.400   4.567 -1.0270  3.7697 -0.7786
  189DOPC  C21623326   3.081   0.478   4.751 -0.0541 -0.2372  0.4109
  189DOPC  H16R23327   3.015   0.417   4.816 -0.7535  0.7400  0.6532
  189DOPC  H16S23328   3.052   0.584   4.736  1.9916  0.4699  1.0959
  189DOPC  C21723329   3.223   0.484   4.818  0.0276  0.3659  0.3509
  189DOPC  H17R23330   3.300   0.535   4.755 -1.4087  0.7645 -1.1516
  189DOPC  H17S23331   3.256   0.380   4.839  0.0627  0.6064  1.5460
  189DOPC  C21823332   3.211   0.562   4.950  0.3047  0.2713  0.0820
  189DOPC  H18R23333   3.308   0.556   5.003  1.5786 -0.3166 -2.1955
  189DOPC  H18S23334   3.131   0.521   5.015 -0.0402  0.1954 -0.3872
  189DOPC  H18T23335   3.184   0.669   4.931  1.3991  0.8895  1.7434
  189DOPC   C3323336   3.069   0.073   3.800 -0.8134  0.2190 -0.5401
  189DOPC   H3X23337   3.173   0.034   3.794 -1.7660 -2.8544  0.5605
  189DOPC   H3Y23338   3.002  -0.004   3.757 -1.2318  0.1761  0.1712
  189DOPC   C3423339   3.031   0.073   3.947 -0.2284  1.2630 -0.5443
  189DOPC   H4X23340   3.035  -0.029   3.990  0.9913  0.9586 -1.3467
  189DOPC   H4Y23341   2.929   0.116   3.964 -0.1742  0.2009  3.6993
  189DOPC   C3523342   3.133   0.149   4.039  0.6193 -0.0113  0.5627
  189DOPC   H5X23343   3.122   0.257   4.012  3.6653  0.0145 -1.0453
  189DOPC   H5Y23344   3.237   0.119   4.011  0.3351  1.3053 -2.3376
  189DOPC   C3623345   3.115   0.128   4.191  0.4288 -0.3224 -0.2091
  189DOPC   H6X23346   3.128   0.018   4.196 -0.8315 -0.4452  0.8288
  189DOPC   H6Y23347   3.205   0.175   4.236  0.8476 -2.9393  1.9322
  189DOPC   C3723348   2.974   0.170   4.234  0.0375 -1.3031 -0.7527
  189DOPC   H7X23349   2.963   0.280   4.223 -0.6374 -1.1355  1.1913
  189DOPC   H7Y23350   2.895   0.118   4.175 -0.6741  0.2238 -1.1794
  189DOPC   C3823351   2.942   0.147   4.391 -1.2863 -0.8634 -0.1211
  189DOPC   H8X23352   3.031   0.184   4.448  0.7448 -1.2126 -2.8439
  189DOPC   H8Y23353   2.930   0.039   4.412  0.5370 -1.2474 -0.8811
  189DOPC   C3923354   2.817   0.224   4.430 -0.5661  0.0904 -0.4011
  189DOPC   H9X23355   2.759   0.253   4.341  0.9282  0.0604 -1.4207
  189DOPC  C31023356   2.772   0.232   4.555 -0.2176 -0.4881 -0.5103
  189DOPC  H10X23357   2.670   0.270   4.569 -0.5569 -1.0247 -1.4239
  189DOPC  C31123358   2.843   0.182   4.673  0.0089 -0.4353 -0.7459
  189DOPC  H11X23359   2.843   0.260   4.751 -0.3157 -2.3329  1.2573
  189DOPC  H11Y23360   2.951   0.160   4.656  0.3651 -0.6832  1.5424
  189DOPC  C31223361   2.774   0.059   4.733  0.3141  0.1958  0.6378
  189DOPC  H12X23362   2.769  -0.025   4.661 -1.5650  0.7921  0.0233
  189DOPC  H12Y23363   2.668   0.078   4.761 -0.4036  0.3594 -1.9080
  189DOPC  C31323364   2.825   0.006   4.867 -1.3155 -0.0585 -0.0094
  189DOPC  H13X23365   2.927  -0.034   4.850 -1.8110 -1.8277  0.9427
  189DOPC  H13Y23366   2.834   0.093   4.935 -0.7789  0.6487 -0.9522
  189DOPC  C31423367   2.740  -0.110   4.921 -0.0316  0.4444 -0.1364
  189DOPC  H14X23368   2.638  -0.069   4.932 -0.6157 -0.7388 -0.9484
  189DOPC  H14Y23369   2.721  -0.188   4.845  0.1127  0.8297 -0.5725
  189DOPC  C31523370   2.779  -0.178   5.052 -1.2458 -0.0433  0.0159
  189DOPC  H15X23371   2.823  -0.106   5.125  2.6653 -2.0291 -0.1153
  189DOPC  H15Y23372   2.867  -0.232   5.011 -0.1143  1.5258  0.2793
  189DOPC  C31623373   2.676  -0.282   5.114 -0.2596 -0.4317  1.0569
  189DOPC  H16X23374   2.619  -0.321   5.027 -0.1938  0.4748  0.5893
  189DOPC  H16Y23375   2.737  -0.364   5.158  1.3330 -0.3681 -0.9031
  189DOPC  C31723376   2.574  -0.233   5.216 -0.5420 -0.1929  0.1418
  189DOPC  H17X23377   2.517  -0.141   5.189 -0.5537 -0.7432 -1.8388
  189DOPC  H17Y23378   2.494  -0.310   5.229 -1.6768  0.7572 -0.9336
  189DOPC  C31823379   2.647  -0.191   5.344 -0.2652 -0.0609  0.7298
  189DOPC  H18X23380   2.579  -0.149   5.421 -0.2171 -3.2271  2.6875
  189DOPC  H18Y23381   2.695  -0.276   5.398  3.7525  1.6878  0.2281
  189DOPC  H18Z23382   2.726  -0.117   5.319  0.0226 -0.0707  1.5939
  190DOPC     N23383   2.755   7.170   3.014  0.0454  0.3323  0.0971
  190DOPC   C1223384   2.623   7.167   3.097 -0.1438 -0.2610  0.2731
  190DOPC  H12A23385   2.564   7.086   3.057 -0.7633 -0.1847  1.0140
  190DOPC  H12B23386   2.568   7.259   3.081 -1.3745 -0.6361  2.0779
  190DOPC   C1323387   2.711   7.164   2.874 -0.7838 -0.0995  1.2429
  190DOPC  H13A23388   2.646   7.244   2.841  0.1303  0.7163  1.3645
  190DOPC  H13B23389   2.797   7.183   2.811 -1.8715 -1.3737 -0.7222
  190DOPC  H13C23390   2.667   7.069   2.850 -1.7923  0.4365  0.9157
  190DOPC   C1423391   2.834   7.048   3.039  0.1884 -0.3536  0.6055
  190DOPC  H14A23392   2.852   7.021   3.141  0.9258  3.4319  1.6540
  190DOPC  H14B23393   2.784   6.966   2.990  0.4565  0.8101 -1.7922
  190DOPC  H14C23394   2.930   7.060   2.991  0.8656 -1.0616  1.7695
  190DOPC   C1523395   2.832   7.286   3.054 -0.5771 -0.3919 -0.3046
  190DOPC  H15A23396   2.830   7.296   3.162 -0.1379 -0.0001 -0.3287
  190DOPC  H15B23397   2.794   7.379   3.015 -0.0450 -0.9483 -2.2316
  190DOPC  H15C23398   2.933   7.281   3.015 -1.0774  1.1245 -1.9311
  190DOPC   C1123399   2.624   7.146   3.254  0.1050 -0.6056 -0.5066
  190DOPC  H11A23400   2.519   7.119   3.277  0.8244 -4.7646 -1.4277
  190DOPC  H11B23401   2.688   7.058   3.275  1.2153  0.1315 -0.6607
  190DOPC     P23402   2.781   7.241   3.439 -0.3377 -1.0154  0.2015
  190DOPC   O1323403   2.827   7.377   3.473  0.0748  0.0903  0.8355
  190DOPC   O1423404   2.890   7.152   3.396 -0.3637  0.1301 -0.3555
  190DOPC   O1223405   2.677   7.259   3.321  0.2331  0.0618 -0.1455
  190DOPC   O1123406   2.707   7.179   3.560  0.2802 -0.2495  0.7783
  190DOPC    C123407   2.578   7.232   3.592 -0.1988  0.3489  0.0247
  190DOPC    HA23408   2.528   7.142   3.632 -0.3528 -0.5914 -2.1691
  190DOPC    HB23409   2.524   7.262   3.500 -0.1517 -1.7724 -0.7497
  190DOPC    C223410   2.575   7.356   3.684  0.6426 -0.4207 -0.4298
  190DOPC    HS23411   2.614   7.441   3.624 -2.1973  0.5906 -1.0034
  190DOPC   O2123412   2.654   7.336   3.805  0.2497  0.0035  0.2393
  190DOPC   C2123413   2.686   7.453   3.862 -0.4788  0.1912 -0.1527
  190DOPC   O2223414   2.663   7.565   3.822  0.1792 -0.1950  0.8119
  190DOPC   C2223415   2.764   7.427   3.991  0.0736  1.0871  0.7828
  190DOPC   H2R23416   2.869   7.412   3.961 -0.8805 -0.2916 -2.1772
  190DOPC   H2S23417   2.728   7.331   4.033 -0.9243  1.4413  0.7654
  190DOPC    C323418   2.431   7.390   3.724  0.1981  0.2175  0.3332
  190DOPC    HX23419   2.377   7.422   3.632 -0.5640  0.6494  0.9182
  190DOPC    HY23420   2.424   7.476   3.794  1.3925 -1.4853  2.6967
  190DOPC   O3123421   2.354   7.274   3.776  0.2616  0.5079  0.5078
  190DOPC   C3123422   2.358   7.249   3.901 -0.5639 -0.1963  0.0738
  190DOPC   O3223423   2.408   7.322   3.987 -0.0057 -0.5400  0.2487
  190DOPC   C3223424   2.276   7.122   3.923 -0.2783  0.3078 -0.4166
  190DOPC   H2X23425   2.170   7.145   3.900 -1.2443 -2.0547  1.2628
  190DOPC   H2Y23426   2.317   7.050   3.850 -0.9704  0.1206 -0.6301
  190DOPC   C2323427   2.759   7.542   4.088 -0.8177 -0.2948 -0.2260
  190DOPC   H3R23428   2.774   7.636   4.031 -0.4042 -0.0051  0.3537
  190DOPC   H3S23429   2.834   7.526   4.168 -2.6233 -2.8718  1.1246
  190DOPC   C2423430   2.617   7.555   4.164  0.2748  0.8028  0.2961
  190DOPC   H4R23431   2.531   7.559   4.093 -0.8377 -1.1447  1.4413
  190DOPC   H4S23432   2.622   7.658   4.204  0.1949  0.6150  0.7904
  190DOPC   C2523433   2.591   7.464   4.287 -0.5635 -0.2174  0.2949
  190DOPC   H5R23434   2.654   7.473   4.378 -1.9544  0.2449  1.2548
  190DOPC   H5S23435   2.608   7.356   4.266 -0.6231  0.0656 -1.3635
  190DOPC   C2623436   2.455   7.485   4.340 -0.1885 -0.2415  0.0886
  190DOPC   H6R23437   2.434   7.390   4.393  0.0230 -0.3000  0.0704
  190DOPC   H6S23438   2.386   7.499   4.254 -0.3466  2.5050  0.5964
  190DOPC   C2723439   2.454   7.606   4.439 -0.0737 -0.3531  0.1180
  190DOPC   H7R23440   2.375   7.676   4.406 -0.1388 -0.4595  0.0472
  190DOPC   H7S23441   2.548   7.660   4.414 -1.3277  0.8754 -2.2489
  190DOPC   C2823442   2.431   7.574   4.586  0.1624 -0.5721  1.0227
  190DOPC   H8R23443   2.523   7.526   4.627  1.3339  0.4144 -0.3364
  190DOPC   H8S23444   2.345   7.505   4.596 -0.6957  0.0493 -1.3781
  190DOPC   C2923445   2.409   7.703   4.656  1.2006  0.2371 -0.0630
  190DOPC   H9R23446   2.417   7.792   4.592 -1.8438 -0.6122 -1.8271
  190DOPC  C21023447   2.371   7.719   4.784 -0.3160  0.3634  0.0295
  190DOPC  H10R23448   2.341   7.818   4.822 -1.7210 -0.9891  2.7112
  190DOPC  C21123449   2.356   7.602   4.879  0.0249  0.4753  0.2169
  190DOPC  H11R23450   2.422   7.617   4.968 -1.1082 -0.9672  1.3495
  190DOPC  H11S23451   2.375   7.503   4.835  0.4209 -0.7966  3.0169
  190DOPC  C21223452   2.217   7.599   4.950 -0.6495  0.8594 -0.3950
  190DOPC  H12R23453   2.147   7.555   4.876  0.0508 -1.9388  0.4711
  190DOPC  H12S23454   2.186   7.700   4.982 -0.6544  0.4740  0.8892
  190DOPC  C21323455   2.223   7.503   5.076 -0.0830  0.7137  0.5414
  190DOPC  H13R23456   2.275   7.561   5.155 -1.4050  1.4072  0.9293
  190DOPC  H13S23457   2.280   7.409   5.060  1.0260  1.7505 -2.0433
  190DOPC  C21423458   2.091   7.448   5.132  0.4620  0.3694 -0.2702
  190DOPC  H14R23459   2.097   7.373   5.214 -0.9698  1.5225  0.9580
  190DOPC  H14S23460   2.037   7.403   5.047 -1.9467  1.3471  0.6560
  190DOPC  C21523461   1.997   7.561   5.180  0.0410 -0.4794 -0.1690
  190DOPC  H15R23462   1.992   7.648   5.111  0.0894  0.3589  0.8563
  190DOPC  H15S23463   2.037   7.597   5.278 -1.8143  0.3037  0.3337
  190DOPC  C21623464   1.859   7.496   5.225  0.0490 -0.2349 -0.4127
  190DOPC  H16R23465   1.820   7.572   5.296  1.1858 -0.1746  0.1794
  190DOPC  H16S23466   1.887   7.405   5.283  0.5607  1.1471  1.6200
  190DOPC  C21723467   1.758   7.485   5.111 -0.4189 -0.1382  0.8868
  190DOPC  H17R23468   1.808   7.421   5.035 -0.9274  0.3995  0.0797
  190DOPC  H17S23469   1.742   7.590   5.078 -0.1775  0.1454  1.6731
  190DOPC  C21823470   1.623   7.425   5.150  0.3181  0.2674  0.2544
  190DOPC  H18R23471   1.559   7.508   5.188  1.4343  1.1283  0.3150
  190DOPC  H18S23472   1.627   7.338   5.218  0.1509  0.0498 -0.0071
  190DOPC  H18T23473   1.574   7.378   5.062 -2.3463  0.0559  1.7476
  190DOPC   C3323474   2.283   7.069   4.069  0.2727 -0.3735  0.0804
  190DOPC   H3X23475   2.377   7.075   4.128 -0.8483  0.9248  1.8620
  190DOPC   H3Y23476   2.260   6.960   4.070  0.3452 -0.3912 -0.2460
  190DOPC   C3423477   2.190   7.146   4.163 -0.1359  0.4064  0.1520
  190DOPC   H4X23478   2.083   7.121   4.143 -0.2143  0.4881  0.4664
  190DOPC   H4Y23479   2.207   7.251   4.133  1.1315  0.7919  2.0683
  190DOPC   C3523480   2.218   7.130   4.315 -0.0928  0.1119 -0.4459
  190DOPC   H5X23481   2.326   7.133   4.339  0.2263  0.8085 -1.8849
  190DOPC   H5Y23482   2.186   7.029   4.348  1.7849 -0.5081 -0.4270
  190DOPC   C3623483   2.147   7.244   4.403 -0.3503  0.0574 -0.3011
  190DOPC   H6X23484   2.205   7.337   4.392  0.1787  0.4869  4.1462
  190DOPC   H6Y23485   2.041   7.250   4.370 -1.3223  0.9127  2.6705
  190DOPC   C3723486   2.134   7.216   4.556  0.1490 -0.4128  0.6639
  190DOPC   H7X23487   2.071   7.125   4.566  1.4753 -1.5100 -0.3532
  190DOPC   H7Y23488   2.234   7.195   4.601  0.8376  1.3963  0.0421
  190DOPC   C3823489   2.067   7.341   4.616 -1.3522  0.0672  0.6087
  190DOPC   H8X23490   1.991   7.389   4.551 -0.1390 -0.4101 -1.2473
  190DOPC   H8Y23491   2.136   7.423   4.643 -0.1633 -0.9792  0.8463
  190DOPC   C3923492   2.004   7.292   4.744  0.0622 -0.8798 -0.5831
  190DOPC   H9X23493   2.075   7.295   4.828  2.0863 -0.4158 -2.2217
  190DOPC  C31023494   1.874   7.251   4.771  0.0399  0.2425  0.1451
  190DOPC  H10X23495   1.846   7.222   4.874 -0.8068  1.8740  0.4129
  190DOPC  C31123496   1.751   7.242   4.682 -0.8102  0.1376 -0.5630
  190DOPC  H11X23497   1.678   7.179   4.738  3.3905 -2.8193  2.2150
  190DOPC  H11Y23498   1.777   7.176   4.597 -1.9193 -0.1357 -0.7050
  190DOPC  C31223499   1.697   7.376   4.639 -0.2419  0.0884 -0.1191
  190DOPC  H12X23500   1.615   7.355   4.567 -0.2377  0.2118 -0.1582
  190DOPC  H12Y23501   1.773   7.438   4.587  1.6764 -1.9000  0.1478
  190DOPC  C31323502   1.636   7.450   4.755 -0.1104  0.6209 -0.4319
  190DOPC  H13X23503   1.552   7.385   4.789 -0.6949  2.4327  1.8336
  190DOPC  H13Y23504   1.710   7.470   4.835 -1.2829  0.5917  0.7027
  190DOPC  C31423505   1.572   7.585   4.714 -0.7825  0.1366  0.1702
  190DOPC  H14X23506   1.650   7.650   4.670 -0.7547 -0.6643 -0.9899
  190DOPC  H14Y23507   1.502   7.568   4.630 -1.6463  0.2193  0.8488
  190DOPC  C31523508   1.495   7.657   4.827 -0.0193 -0.4321  0.0125
  190DOPC  H15X23509   1.493   7.767   4.807 -1.0413 -0.6775 -1.4197
  190DOPC  H15Y23510   1.544   7.638   4.924 -1.8936 -1.4034  0.8130
  190DOPC  C31623511   1.356   7.595   4.849 -0.2020 -0.1447  0.0126
  190DOPC  H16X23512   1.362   7.488   4.820  0.5108  0.3569 -1.8173
  190DOPC  H16Y23513   1.332   7.585   4.957 -1.5504 -1.2902 -0.3668
  190DOPC  C31723514   1.235   7.666   4.788 -0.3461  0.4531  0.3367
  190DOPC  H17X23515   1.230   7.776   4.807  1.8495  0.4133  1.4818
  190DOPC  H17Y23516   1.224   7.641   4.681  0.3768  0.1998  0.3186
  190DOPC  C31823517   1.115   7.600   4.851  0.3014 -0.3364  0.4941
  190DOPC  H18X23518   1.104   7.491   4.834 -0.6527 -0.5606  2.2731
  190DOPC  H18Y23519   1.111   7.622   4.960  0.8558  0.1018  0.4320
  190DOPC  H18Z23520   1.027   7.644   4.800  0.7686 -2.0197 -1.9764
  191DOPC     N23521   4.872   6.629   2.644 -0.7507  0.0436  0.8055
  191DOPC   C1223522   4.972   6.612   2.761 -0.0949  0.4498  0.1054
  191DOPC  H12A23523   5.064   6.569   2.724 -0.5661 -0.4816  0.0037
  191DOPC  H12B23524   4.929   6.548   2.836 -0.8073  0.3239 -0.3935
  191DOPC   C1323525   4.877   6.499   2.568  0.1263  0.0212 -0.0841
  191DOPC  H13A23526   4.975   6.481   2.525  0.5365 -1.2948  1.3330
  191DOPC  H13B23527   4.868   6.410   2.629 -0.2511 -0.7082 -1.1714
  191DOPC  H13C23528   4.809   6.492   2.484 -1.0357  1.1815  0.7318
  191DOPC   C1423529   4.918   6.735   2.549 -0.0319 -0.3460  0.5026
  191DOPC  H14A23530   4.957   6.816   2.610 -0.0935  0.3884 -0.4085
  191DOPC  H14B23531   5.007   6.718   2.491 -0.4298  1.1571 -0.5999
  191DOPC  H14C23532   4.846   6.762   2.473  1.2397  1.9294  0.0093
  191DOPC   C1523533   4.740   6.659   2.692 -0.7793 -0.1373  0.1574
  191DOPC  H15A23534   4.740   6.745   2.758  2.3398  0.0796  0.0583
  191DOPC  H15B23535   4.706   6.569   2.739  0.3741 -0.2361  0.8563
  191DOPC  H15C23536   4.666   6.677   2.616 -0.9523 -1.5515 -0.0301
  191DOPC   C1123537   5.001   6.746   2.830  0.1172 -0.8719  0.6561
  191DOPC  H11A23538   4.909   6.805   2.847  0.4095 -0.7189  1.8072
  191DOPC  H11B23539   5.039   6.721   2.932 -0.0802 -3.8896  0.0915
  191DOPC     P23540   5.197   6.914   2.811 -0.3642 -0.0540 -0.3889
  191DOPC   O1323541   5.199   7.051   2.764  0.6065  0.0568 -0.1207
  191DOPC   O1423542   5.326   6.842   2.796  0.0775 -0.6609  0.4880
  191DOPC   O1223543   5.089   6.822   2.746  0.3411  0.7024 -0.4131
  191DOPC   O1123544   5.159   6.921   2.962  0.1318  0.0489 -0.3061
  191DOPC    C123545   5.053   7.008   3.001 -0.1189 -0.7549  0.5811
  191DOPC    HA23546   4.960   6.949   3.013  0.1167 -1.4849 -0.9872
  191DOPC    HB23547   5.019   7.088   2.932  0.0413 -1.3745 -0.2289
  191DOPC    C223548   5.080   7.074   3.142  0.2007  0.6895 -0.8540
  191DOPC    HS23549   5.184   7.112   3.150  1.1850 -2.0973  1.0193
  191DOPC   O2123550   5.056   6.965   3.240 -0.1828  0.0483  0.2018
  191DOPC   C2123551   5.098   6.992   3.364 -0.7769  0.1988  0.6180
  191DOPC   O2223552   5.180   7.077   3.393 -0.3854 -0.1067  0.6953
  191DOPC   C2223553   5.042   6.886   3.456 -0.1103 -0.3354 -0.0702
  191DOPC   H2R23554   5.090   6.789   3.430  2.0593  0.6879 -0.0488
  191DOPC   H2S23555   4.933   6.884   3.436 -0.0162 -1.4761 -0.5632
  191DOPC    C323556   4.978   7.189   3.161 -0.6088  0.1671  0.7774
  191DOPC    HX23557   4.878   7.165   3.119 -0.6441 -1.4503  1.7195
  191DOPC    HY23558   5.025   7.275   3.109  1.1619  0.2207  2.3769
  191DOPC   O3123559   4.951   7.228   3.298  0.5432  0.5480  0.4448
  191DOPC   C3123560   4.999   7.348   3.328  0.7998 -0.6413 -0.2701
  191DOPC   O3223561   5.070   7.419   3.260  0.4601  0.0134 -0.5656
  191DOPC   C3223562   4.919   7.391   3.453  0.3169  0.2289  0.1552
  191DOPC   H2X23563   4.824   7.435   3.414 -0.9921 -0.8901  1.9559
  191DOPC   H2Y23564   4.889   7.300   3.508 -0.3184 -0.8248 -1.8138
  191DOPC   C2323565   5.080   6.920   3.602 -0.0589 -0.4894 -0.1906
  191DOPC   H3R23566   5.012   6.859   3.666  1.1406 -1.0666  0.5561
  191DOPC   H3S23567   5.045   7.025   3.619  0.3388 -0.0381 -2.0019
  191DOPC   C2423568   5.229   6.888   3.627  0.0672 -0.3457 -0.6160
  191DOPC   H4R23569   5.266   6.955   3.708  0.0524 -1.7565  0.6023
  191DOPC   H4S23570   5.291   6.908   3.537  1.5615  0.0045  0.4523
  191DOPC   C2523571   5.251   6.741   3.667 -0.5033  0.2848 -0.6655
  191DOPC   H5R23572   5.199   6.675   3.594 -1.2237 -0.5205  0.5296
  191DOPC   H5S23573   5.205   6.723   3.767 -0.1345 -0.4823 -0.6302
  191DOPC   C2623574   5.400   6.708   3.670  0.6044 -0.4208 -0.3697
  191DOPC   H6R23575   5.446   6.753   3.761 -1.7654  1.0681  0.1755
  191DOPC   H6S23576   5.466   6.726   3.582  3.2794 -2.4102  1.0522
  191DOPC   C2723577   5.417   6.558   3.718 -0.1416  0.0340  0.5229
  191DOPC   H7R23578   5.375   6.488   3.642  0.8709 -1.4847  1.3033
  191DOPC   H7S23579   5.377   6.540   3.820  2.8128  0.4530  1.8846
  191DOPC   C2823580   5.566   6.529   3.738  0.2756 -0.5855 -0.0802
  191DOPC   H8R23581   5.611   6.599   3.811 -0.0305  0.0185 -0.4657
  191DOPC   H8S23582   5.613   6.562   3.642  0.4274 -1.7624 -0.4309
  191DOPC   C2923583   5.616   6.398   3.766 -0.7679  0.4152 -0.2238
  191DOPC   H9R23584   5.633   6.342   3.673 -1.4264  1.6834 -1.1407
  191DOPC  C21023585   5.645   6.344   3.885  0.2306  0.4241  0.1648
  191DOPC  H10R23586   5.694   6.245   3.890 -1.2534 -0.3322  0.3295
  191DOPC  C21123587   5.615   6.404   4.023  0.3473  0.0905  0.4908
  191DOPC  H11R23588   5.593   6.328   4.101 -1.7696 -0.5309 -0.6218
  191DOPC  H11S23589   5.526   6.469   4.019  1.9044  2.4209  1.7995
  191DOPC  C21223590   5.730   6.489   4.081  0.2922  0.0555  0.4237
  191DOPC  H12R23591   5.746   6.587   4.031  1.9037  0.1702  1.1045
  191DOPC  H12S23592   5.827   6.436   4.077  1.5742  2.3340 -1.0254
  191DOPC  C21323593   5.712   6.524   4.231  0.1814 -0.3632 -0.0065
  191DOPC  H13R23594   5.796   6.594   4.251 -1.2950  1.3564  0.4533
  191DOPC  H13S23595   5.735   6.435   4.292 -0.3492 -0.5032 -0.0083
  191DOPC  C21423596   5.580   6.600   4.268 -0.3926  0.1153  0.4691
  191DOPC  H14R23597   5.509   6.519   4.240  1.1164 -0.8068 -0.8295
  191DOPC  H14S23598   5.570   6.686   4.199  1.5917 -0.4627 -0.6189
  191DOPC  C21523599   5.565   6.643   4.411  0.7424 -0.2096  0.6590
  191DOPC  H15R23600   5.644   6.714   4.443  0.3192 -0.4736  2.4325
  191DOPC  H15S23601   5.571   6.552   4.475 -0.6589 -0.6546  0.1800
  191DOPC  C21623602   5.427   6.718   4.440 -0.5400  0.2577  0.5879
  191DOPC  H16R23603   5.424   6.821   4.400 -0.7044  0.4888  1.1864
  191DOPC  H16S23604   5.420   6.719   4.551  0.2733  0.0373  0.6538
  191DOPC  C21723605   5.307   6.641   4.399  0.4694  0.5527 -0.7622
  191DOPC  H17R23606   5.295   6.645   4.288 -0.9677  1.7248 -0.5994
  191DOPC  H17S23607   5.222   6.695   4.445 -0.1527  0.5530 -1.8736
  191DOPC  C21823608   5.309   6.507   4.466  0.3635 -0.0693 -0.2599
  191DOPC  H18R23609   5.302   6.514   4.577  0.9811  2.4122 -0.3108
  191DOPC  H18S23610   5.402   6.452   4.439  0.0162 -0.4223 -0.7484
  191DOPC  H18T23611   5.231   6.438   4.429  0.7337 -1.2136  1.0194
  191DOPC   C3323612   5.011   7.487   3.535 -0.0284 -0.7376  0.8338
  191DOPC   H3X23613   5.033   7.574   3.470  0.4685  0.0429  2.0040
  191DOPC   H3Y23614   5.113   7.446   3.553  0.7182 -0.0666 -1.4997
  191DOPC   C3423615   4.940   7.543   3.665  0.0215  0.4022 -0.4445
  191DOPC   H4X23616   4.936   7.470   3.748 -3.0432 -1.2061 -1.8531
  191DOPC   H4Y23617   4.832   7.555   3.643 -0.3038 -3.2243 -1.4744
  191DOPC   C3523618   5.000   7.679   3.718 -0.1076 -0.5396 -0.4969
  191DOPC   H5X23619   4.959   7.704   3.818 -0.8345 -0.9677 -0.6882
  191DOPC   H5Y23620   4.964   7.757   3.647 -1.1404 -0.9549 -0.4436
  191DOPC   C3623621   5.157   7.669   3.731 -0.3044 -0.1989 -0.1085
  191DOPC   H6X23622   5.178   7.584   3.799  0.2559 -0.7186 -0.9165
  191DOPC   H6Y23623   5.203   7.642   3.633 -1.0010  1.9679 -1.1066
  191DOPC   C3723624   5.217   7.799   3.796  0.2234  0.4902  0.0317
  191DOPC   H7X23625   5.179   7.896   3.757  1.5796  1.1011  0.1535
  191DOPC   H7Y23626   5.179   7.797   3.900  0.7742  0.6295  0.2419
  191DOPC   C3823627   5.371   7.796   3.790 -0.1605  0.4438  0.4353
  191DOPC   H8X23628   5.395   7.825   3.686  0.6685 -0.0003  0.4895
  191DOPC   H8Y23629   5.402   7.689   3.794 -1.1786  0.0564 -1.2404
  191DOPC   C3923630   5.448   7.875   3.886  0.0453  0.0374  0.2706
  191DOPC   H9X23631   5.440   7.984   3.875  0.4582  0.1506  1.0396
  191DOPC  C31023632   5.527   7.829   3.989 -0.7328  0.2988 -0.1861
  191DOPC  H10X23633   5.571   7.904   4.056 -0.7176 -0.8588  1.1481
  191DOPC  C31123634   5.543   7.686   4.037 -0.3458  0.5722 -0.3416
  191DOPC  H11X23635   5.645   7.644   4.021 -0.3901  0.3513 -0.0670
  191DOPC  H11Y23636   5.481   7.623   3.971 -0.0704  2.8628 -2.9789
  191DOPC  C31223637   5.504   7.668   4.191  0.0294  0.4279  0.4157
  191DOPC  H12X23638   5.403   7.712   4.205  0.3214  1.4556 -0.5879
  191DOPC  H12Y23639   5.578   7.720   4.255  1.3058 -1.7426  0.8225
  191DOPC  C31323640   5.475   7.524   4.237 -0.1374 -0.2277 -0.4481
  191DOPC  H13X23641   5.424   7.473   4.153  1.1676 -2.4038 -0.0072
  191DOPC  H13Y23642   5.566   7.463   4.258 -0.8270 -0.4000  2.5347
  191DOPC  C31423643   5.380   7.505   4.362  0.5014 -0.2450 -0.0917
  191DOPC  H14X23644   5.423   7.556   4.451  1.2542 -0.5943 -0.2478
  191DOPC  H14Y23645   5.282   7.548   4.331  1.4661  0.8174 -1.8447
  191DOPC  C31523646   5.348   7.351   4.385 -0.2513 -0.4255  0.3681
  191DOPC  H15X23647   5.447   7.306   4.407 -0.1715 -0.8436 -0.7523
  191DOPC  H15Y23648   5.313   7.300   4.293 -0.3218  1.7051 -0.8690
  191DOPC  C31623649   5.248   7.328   4.497 -0.2279 -0.1139  0.4500
  191DOPC  H16X23650   5.291   7.344   4.598 -0.5059  0.1804  0.5222
  191DOPC  H16Y23651   5.165   7.398   4.475  0.5043  0.0615 -2.0276
  191DOPC  C31723652   5.194   7.180   4.495  0.9431  0.1632  0.0807
  191DOPC  H17X23653   5.114   7.173   4.571  1.1915 -1.4611  0.2306
  191DOPC  H17Y23654   5.138   7.166   4.400 -2.0873 -0.2042  1.8088
  191DOPC  C31823655   5.296   7.076   4.525 -0.4835  0.4133 -0.1163
  191DOPC  H18X23656   5.331   7.025   4.434  1.3985  1.9408 -0.3220
  191DOPC  H18Y23657   5.394   7.097   4.575 -0.3446  0.5239 -0.4348
  191DOPC  H18Z23658   5.251   6.996   4.587  1.9507 -0.3210  0.8379
  192DOPC     N23659   7.068   5.717   2.884  0.2788 -0.4807 -0.2538
  192DOPC   C1223660   7.190   5.799   2.926 -0.1113 -0.1964 -0.3600
  192DOPC  H12A23661   7.193   5.890   2.867  0.8350 -0.8379 -1.3142
  192DOPC  H12B23662   7.278   5.744   2.898 -0.9658 -1.3234 -0.8840
  192DOPC   C1323663   7.065   5.694   2.741  0.1015  0.0228  0.3931
  192DOPC  H13A23664   7.162   5.660   2.708  0.0201  1.8714 -1.9929
  192DOPC  H13B23665   6.992   5.620   2.711 -0.8573  1.6516 -1.5224
  192DOPC  H13C23666   7.045   5.784   2.685 -0.8912 -0.1908  0.3944
  192DOPC   C1423667   6.939   5.782   2.924 -0.5868 -0.1396 -0.1999
  192DOPC  H14A23668   6.933   5.872   2.863 -2.3470 -1.3475 -1.9380
  192DOPC  H14B23669   6.856   5.719   2.894 -0.9157  1.0019 -1.8570
  192DOPC  H14C23670   6.941   5.815   3.027 -0.2236  2.7226 -1.0181
  192DOPC   C1523671   7.076   5.590   2.961 -0.5770 -0.2730  0.3674
  192DOPC  H15A23672   6.993   5.521   2.953  0.0733 -1.0522  0.3313
  192DOPC  H15B23673   7.106   5.611   3.062 -0.6873  1.6253  0.0568
  192DOPC  H15C23674   7.165   5.539   2.928 -1.0206  0.1530 -1.6442
  192DOPC   C1123675   7.195   5.841   3.073 -0.7532  0.0961  0.5207
  192DOPC  H11A23676   7.198   5.754   3.142  0.9350 -1.0935 -0.9855
  192DOPC  H11B23677   7.292   5.892   3.087 -0.4468 -0.3123 -0.0666
  192DOPC     P23678   7.009   5.923   3.237 -0.0102 -0.4830 -0.3512
  192DOPC   O1323679   6.934   5.796   3.240 -0.0110  0.0094 -0.2659
  192DOPC   O1423680   6.936   6.048   3.252 -0.7061 -0.1684 -0.1864
  192DOPC   O1223681   7.089   5.938   3.100 -0.4123 -0.1058  0.1653
  192DOPC   O1123682   7.126   5.905   3.343  0.6444 -0.1032  0.0637
  192DOPC    C123683   7.226   6.009   3.362  0.1608 -0.6259  0.3794
  192DOPC    HA23684   7.189   6.095   3.421 -0.9369 -0.7400 -0.1133
  192DOPC    HB23685   7.271   6.042   3.266 -1.7804  1.6995  0.1688
  192DOPC    C223686   7.347   5.964   3.441  0.2777  0.7574 -0.6410
  192DOPC    HS23687   7.393   5.883   3.381 -0.0777  0.5289 -0.6064
  192DOPC   O2123688   7.297   5.907   3.572  0.6750  0.0581 -0.2278
  192DOPC   C2123689   7.391   5.834   3.636 -0.5276 -0.3896  0.2123
  192DOPC   O2223690   7.496   5.801   3.585  0.3928 -0.6390 -0.1763
  192DOPC   C2223691   7.336   5.813   3.777  0.2682  0.4883 -0.1865
  192DOPC   H2R23692   7.253   5.740   3.767  0.1100  0.6203  0.1484
  192DOPC   H2S23693   7.297   5.914   3.804 -0.4962  1.4086 -4.0549
  192DOPC    C323694   7.448   6.076   3.466 -0.3198 -0.4839  0.3322
  192DOPC    HX23695   7.472   6.128   3.371  2.3096 -1.2253  0.5038
  192DOPC    HY23696   7.546   6.023   3.470 -0.3633 -0.5758  0.2257
  192DOPC   O3123697   7.438   6.159   3.583  0.2177 -0.0654 -0.0430
  192DOPC   C3123698   7.367   6.261   3.567  0.7070  0.0203  0.1967
  192DOPC   O3223699   7.317   6.296   3.461  0.3325 -0.2082  0.1087
  192DOPC   C3223700   7.351   6.336   3.700 -0.6261 -0.1073  0.7914
  192DOPC   H2X23701   7.243   6.333   3.728 -0.4755 -0.2163  1.3746
  192DOPC   H2Y23702   7.416   6.285   3.773  2.1746  1.8424 -0.1594
  192DOPC   C2323703   7.450   5.762   3.871 -0.0493  0.3293 -0.0644
  192DOPC   H3R23704   7.525   5.842   3.890 -0.0508  0.0252  1.3617
  192DOPC   H3S23705   7.513   5.682   3.827  3.9016  3.2936 -0.3468
  192DOPC   C2423706   7.383   5.689   3.989 -0.0806  0.3648  0.3785
  192DOPC   H4R23707   7.449   5.605   4.020  0.9637  0.3455 -1.7183
  192DOPC   H4S23708   7.288   5.645   3.952 -0.3566  0.1900  1.2801
  192DOPC   C2523709   7.340   5.794   4.097  0.4350  0.2211  0.4261
  192DOPC   H5R23710   7.256   5.855   4.057 -0.9558 -0.9795  1.4228
  192DOPC   H5S23711   7.424   5.866   4.104 -0.9304  2.2438 -2.0916
  192DOPC   C2623712   7.299   5.742   4.236  0.0481 -0.3186  0.2591
  192DOPC   H6R23713   7.400   5.712   4.271  0.8959  1.7512 -0.2783
  192DOPC   H6S23714   7.237   5.650   4.238  0.7015 -0.8855 -2.1186
  192DOPC   C2723715   7.229   5.850   4.319 -0.0196 -0.7573 -0.3876
  192DOPC   H7R23716   7.134   5.875   4.266 -0.5212 -0.0818  0.7918
  192DOPC   H7S23717   7.305   5.931   4.316  0.2978 -1.0204  0.3730
  192DOPC   C2823718   7.192   5.812   4.464  0.7187  0.3532  0.3160
  192DOPC   H8R23719   7.148   5.710   4.463 -0.7500  0.9620  0.1318
  192DOPC   H8S23720   7.111   5.877   4.503  0.6812  0.8400 -0.5444
  192DOPC   C2923721   7.316   5.816   4.552 -0.4444  0.1679 -0.2637
  192DOPC   H9R23722   7.390   5.735   4.540 -2.3202 -1.6312 -0.2376
  192DOPC  C21023723   7.351   5.910   4.638 -0.2886  0.3591  0.0747
  192DOPC  H10R23724   7.429   5.876   4.708 -2.7460 -1.8963  1.9327
  192DOPC  C21123725   7.282   6.032   4.684 -0.4953 -0.4376  0.5642
  192DOPC  H11R23726   7.173   6.030   4.660 -0.4409  2.9241 -0.5086
  192DOPC  H11S23727   7.317   6.118   4.622 -2.2764  0.1356  0.2946
  192DOPC  C21223728   7.303   6.057   4.832  0.5856 -0.0406  0.2225
  192DOPC  H12R23729   7.410   6.054   4.860  0.3284 -1.9912  1.1597
  192DOPC  H12S23730   7.255   5.978   4.894 -1.0697  1.1469  0.5434
  192DOPC  C21323731   7.225   6.178   4.893 -0.0809  0.5262  0.3982
  192DOPC  H13R23732   7.232   6.171   5.003 -0.6031  0.6948  0.4464
  192DOPC  H13S23733   7.117   6.169   4.867  0.3951 -0.1286 -1.4766
  192DOPC  C21423734   7.275   6.318   4.842 -0.0388 -0.2639 -0.2608
  192DOPC  H14R23735   7.246   6.330   4.736 -0.5147  0.7083 -0.0341
  192DOPC  H14S23736   7.384   6.329   4.861 -0.0898 -0.1212 -0.0433
  192DOPC  C21523737   7.205   6.433   4.919 -0.2536 -0.6662 -0.1537
  192DOPC  H15R23738   7.224   6.422   5.029 -1.6713  1.4744  0.3641
  192DOPC  H15S23739   7.097   6.444   4.898 -0.0237 -0.8148 -1.5049
  192DOPC  C21623740   7.259   6.578   4.890  0.2620  0.0447  0.4086
  192DOPC  H16R23741   7.207   6.632   4.808  1.7798  1.6395  0.4437
  192DOPC  H16S23742   7.367   6.573   4.863  0.3402  1.0947  0.4789
  192DOPC  C21723743   7.252   6.661   5.018 -0.0124  0.8296 -0.2646
  192DOPC  H17R23744   7.319   6.750   5.012  1.3528 -0.1974 -0.6359
  192DOPC  H17S23745   7.294   6.608   5.106  0.3830  0.4655 -0.6708
  192DOPC  C21823746   7.112   6.691   5.056 -0.0003 -1.3779  0.1085
  192DOPC  H18R23747   7.038   6.705   4.974  0.5462 -0.4497 -0.2437
  192DOPC  H18S23748   7.117   6.788   5.110  0.9776  0.6360 -3.2875
  192DOPC  H18T23749   7.066   6.607   5.111 -0.0566 -2.5434 -1.6465
  192DOPC   C3323750   7.405   6.481   3.693 -0.0180 -0.2531  0.0055
  192DOPC   H3X23751   7.358   6.549   3.618  0.9342  1.0020  0.5269
  192DOPC   H3Y23752   7.513   6.482   3.668 -0.3297 -0.5720 -1.4946
  192DOPC   C3423753   7.375   6.552   3.826  0.0014  0.5739 -0.1871
  192DOPC   H4X23754   7.435   6.500   3.904  0.5499  0.7018 -0.5214
  192DOPC   H4Y23755   7.268   6.538   3.853  0.5427 -0.9077  1.4517
  192DOPC   C3523756   7.410   6.699   3.823  0.2067  0.2656  0.8364
  192DOPC   H5X23757   7.332   6.754   3.766 -1.4139 -0.8787  1.8639
  192DOPC   H5Y23758   7.510   6.698   3.773  0.2104 -2.6242  0.7457
  192DOPC   C3623759   7.417   6.764   3.966  0.3698  0.1570  0.1104
  192DOPC   H6X23760   7.505   6.713   4.011  1.8183  0.2834 -2.4114
  192DOPC   H6Y23761   7.450   6.870   3.960  1.3399 -0.1389  0.0316
  192DOPC   C3723762   7.292   6.756   4.051 -0.3316 -0.1666 -0.0036
  192DOPC   H7X23763   7.274   6.648   4.069  1.0201  0.0088  3.1585
  192DOPC   H7Y23764   7.307   6.798   4.153  0.3549  1.3162 -0.6853
  192DOPC   C3823765   7.173   6.836   4.003  0.1398  0.5053  0.6011
  192DOPC   H8X23766   7.083   6.816   4.064 -0.5514  0.1843 -0.5074
  192DOPC   H8Y23767   7.133   6.798   3.907  0.0500 -1.0560  1.2257
  192DOPC   C3923768   7.198   6.987   3.992 -0.5945  0.1535  0.1083
  192DOPC   H9X23769   7.253   7.025   3.904 -0.1144  1.1351  0.8145
  192DOPC  C31023770   7.165   7.077   4.089  0.0512 -0.3794  0.4523
  192DOPC  H10X23771   7.206   7.176   4.063 -0.5622  0.2954  1.9125
  192DOPC  C31123772   7.098   7.059   4.228 -0.4402  0.0478  0.0660
  192DOPC  H11X23773   7.058   6.956   4.221 -0.7480  0.1743 -0.0296
  192DOPC  H11Y23774   7.011   7.126   4.243  1.1729  2.0986  0.7870
  192DOPC  C31223775   7.200   7.074   4.349 -0.2990 -0.0034 -0.0703
  192DOPC  H12X23776   7.244   7.176   4.342 -0.4390  0.1845  1.3893
  192DOPC  H12Y23777   7.277   6.994   4.348 -1.8400 -1.5490 -0.1842
  192DOPC  C31323778   7.119   7.077   4.486  0.3067 -0.6873  0.2920
  192DOPC  H13X23779   7.187   7.106   4.570 -0.1115  0.9090  0.1164
  192DOPC  H13Y23780   7.040   7.155   4.488 -0.2881 -1.2410  2.9949
  192DOPC  C31423781   7.057   6.948   4.527 -0.4697 -0.1082 -0.4153
  192DOPC  H14X23782   6.986   6.966   4.610  1.1773 -0.7629  1.2224
  192DOPC  H14Y23783   6.991   6.911   4.447 -2.2439  0.4340  0.7446
  192DOPC  C31523784   7.166   6.845   4.569 -0.8399 -0.2254  0.1499
  192DOPC  H15X23785   7.102   6.779   4.631  0.6024  0.1874  2.1360
  192DOPC  H15Y23786   7.237   6.899   4.635 -0.5510 -0.1564 -0.2150
  192DOPC  C31623787   7.224   6.770   4.456 -0.7596  0.3739  0.3014
  192DOPC  H16X23788   7.152   6.747   4.375  1.1493  0.9057 -1.6368
  192DOPC  H16Y23789   7.308   6.829   4.412 -1.5328  0.2122 -1.4521
  192DOPC  C31723790   7.280   6.637   4.510 -0.5492 -0.7282 -0.9768
  192DOPC  H17X23791   7.345   6.654   4.598 -0.2207 -2.7576 -0.7859
  192DOPC  H17Y23792   7.196   6.585   4.559  0.0095  1.7800  3.0837
  192DOPC  C31823793   7.352   6.551   4.406  0.1729 -0.5639 -0.1825
  192DOPC  H18X23794   7.364   6.449   4.447 -0.8967 -0.9331 -0.7528
  192DOPC  H18Y23795   7.299   6.550   4.308 -0.2532  0.5736  0.0226
  192DOPC  H18Z23796   7.450   6.597   4.379 -0.5113  0.4130 -1.0928
  193DOPC     N23797   7.395   3.538   2.890  0.0407 -0.0416 -0.2563
  193DOPC   C1223798   7.478   3.414   2.867  0.0150  0.2319  0.5022
  193DOPC  H12A23799   7.537   3.394   2.954 -0.3377 -2.5587  0.1902
  193DOPC  H12B23800   7.543   3.427   2.781  1.6982 -0.7106  1.5806
  193DOPC   C1323801   7.308   3.536   3.013  0.5270  0.6730 -0.0019
  193DOPC  H13A23802   7.224   3.470   2.996  0.4487  1.2498 -2.2167
  193DOPC  H13B23803   7.367   3.498   3.095 -1.1087  1.2722  1.5139
  193DOPC  H13C23804   7.282   3.639   3.031  0.8153  0.4074  2.2092
  193DOPC   C1423805   7.309   3.567   2.770 -0.3327 -0.1786 -0.0999
  193DOPC  H14A23806   7.251   3.656   2.791 -1.9425 -1.6038  1.9564
  193DOPC  H14B23807   7.373   3.604   2.691  0.9466 -0.3502  0.8219
  193DOPC  H14C23808   7.230   3.503   2.734  1.4329 -0.0409 -4.9045
  193DOPC   C1523809   7.492   3.651   2.902 -0.6840 -0.1102 -0.2544
  193DOPC  H15A23810   7.447   3.745   2.931  0.1943  0.0426  0.6694
  193DOPC  H15B23811   7.548   3.665   2.811 -0.6636 -0.1146 -0.2425
  193DOPC  H15C23812   7.555   3.635   2.988 -0.8704  0.3569 -0.0249
  193DOPC   C1123813   7.402   3.277   2.849 -0.6740  0.2944 -0.0189
  193DOPC  H11A23814   7.323   3.284   2.772 -1.2809  0.4980  0.6133
  193DOPC  H11B23815   7.468   3.199   2.805 -1.3754  0.8071 -2.0638
  193DOPC     P23816   7.435   3.216   3.100 -0.1444 -0.1629 -0.2295
  193DOPC   O1323817   7.404   3.312   3.204 -0.1565  0.2560  0.2861
  193DOPC   O1423818   7.571   3.213   3.050 -0.1456 -0.3210 -0.5177
  193DOPC   O1223819   7.342   3.236   2.973 -0.0162 -0.3139 -0.0819
  193DOPC   O1123820   7.391   3.075   3.147 -0.3638 -0.6106 -0.2750
  193DOPC    C123821   7.264   3.040   3.178  0.3378  0.0301  0.0534
  193DOPC    HA23822   7.260   2.930   3.197 -1.0178 -0.0146 -0.3673
  193DOPC    HB23823   7.193   3.071   3.098 -0.1987  0.2118  0.5940
  193DOPC    C223824   7.213   3.101   3.316 -0.8082 -0.4123  0.4694
  193DOPC    HS23825   7.204   3.211   3.302 -2.5645 -0.5711  0.0695
  193DOPC   O2123826   7.322   3.072   3.413  0.4888 -0.4870 -0.0694
  193DOPC   C2123827   7.346   3.172   3.502  0.7592  1.2817  0.5623
  193DOPC   O2223828   7.297   3.281   3.497  0.5221 -0.1599 -0.3068
  193DOPC   C2223829   7.442   3.122   3.600  0.6623  0.4815  0.1521
  193DOPC   H2R23830   7.533   3.107   3.537 -0.5270 -0.5178 -1.3881
  193DOPC   H2S23831   7.407   3.037   3.661  2.3978  0.6225  1.4083
  193DOPC    C323832   7.081   3.044   3.357  0.1882  0.4874  0.3669
  193DOPC    HX23833   7.102   2.935   3.349  1.9805  0.4628  3.4478
  193DOPC    HY23834   7.005   3.087   3.288 -0.2446 -0.6226  0.1432
  193DOPC   O3123835   7.054   3.070   3.499  0.3857 -0.4588  0.0948
  193DOPC   C3123836   6.983   3.178   3.525 -0.3877 -0.5543  0.3023
  193DOPC   O3223837   6.941   3.256   3.439 -0.6014  0.1365  0.4879
  193DOPC   C3223838   6.986   3.205   3.668  0.0473  0.5885 -0.0962
  193DOPC   H2X23839   6.978   3.104   3.714  2.3660 -0.2582 -1.3866
  193DOPC   H2Y23840   7.093   3.231   3.682  0.4148 -0.5139 -0.7920
  193DOPC   C2323841   7.454   3.212   3.723  0.2696 -0.2766 -0.1752
  193DOPC   H3R23842   7.433   3.321   3.713  1.0444  0.3280  3.2616
  193DOPC   H3S23843   7.562   3.213   3.751  0.4727  2.7609 -0.7174
  193DOPC   C2423844   7.385   3.148   3.841  0.0008  0.5020 -1.1155
  193DOPC   H4R23845   7.437   3.057   3.876  0.3477  1.0550 -0.1613
  193DOPC   H4S23846   7.278   3.122   3.829  0.6801 -2.5357 -1.3418
  193DOPC   C2523847   7.402   3.249   3.959  0.7541  0.2627 -0.3431
  193DOPC   H5R23848   7.359   3.347   3.932 -0.2207  0.0690  0.4528
  193DOPC   H5S23849   7.511   3.261   3.976  0.3264  2.5514  1.2542
  193DOPC   C2623850   7.348   3.191   4.094  0.6433 -0.4727 -0.4852
  193DOPC   H6R23851   7.390   3.088   4.097  1.2991 -0.2050  0.0061
  193DOPC   H6S23852   7.238   3.194   4.079  0.5406 -1.2869  0.0334
  193DOPC   C2723853   7.401   3.266   4.220  0.3540 -0.9553  0.0863
  193DOPC   H7R23854   7.407   3.367   4.174  0.3228 -1.3335 -0.7712
  193DOPC   H7S23855   7.499   3.231   4.257 -0.2266  0.4421  3.2978
  193DOPC   C2823856   7.311   3.276   4.343  0.4288 -0.2998 -0.1279
  193DOPC   H8R23857   7.284   3.171   4.367  0.2664 -0.2686 -0.1738
  193DOPC   H8S23858   7.222   3.331   4.306  2.6297  2.6923 -1.3685
  193DOPC   C2923859   7.369   3.351   4.463 -0.0296  0.1737 -0.7237
  193DOPC   H9R23860   7.392   3.457   4.446  3.2012 -0.0745  1.1801
  193DOPC  C21023861   7.374   3.307   4.591 -0.4551  0.5257  0.3710
  193DOPC  H10R23862   7.419   3.381   4.658 -0.8349  0.8387  0.2856
  193DOPC  C21123863   7.333   3.173   4.646 -0.6224 -0.4353  0.6057
  193DOPC  H11R23864   7.407   3.096   4.615 -0.5128  0.1342 -0.6038
  193DOPC  H11S23865   7.237   3.149   4.594 -1.2525  3.6480 -0.4705
  193DOPC  C21223866   7.313   3.175   4.799 -0.3162 -0.7491  0.0437
  193DOPC  H12R23867   7.405   3.210   4.851 -0.7225  0.2448  0.1160
  193DOPC  H12S23868   7.299   3.073   4.841 -1.5923  0.0660  1.7283
  193DOPC  C21323869   7.209   3.274   4.856 -0.8141 -0.5568  0.3452
  193DOPC  H13R23870   7.109   3.239   4.824 -0.3624 -0.9517 -0.6793
  193DOPC  H13S23871   7.219   3.370   4.802  1.5865 -1.4808 -0.9984
  193DOPC  C21423872   7.225   3.293   5.010 -0.0239  0.4086  0.5081
  193DOPC  H14R23873   7.325   3.335   5.033  0.5835 -0.4129 -0.5241
  193DOPC  H14S23874   7.225   3.198   5.067 -0.6979  0.4755  0.6226
  193DOPC  C21523875   7.111   3.364   5.078  0.3401 -0.8775 -0.0677
  193DOPC  H15R23876   7.030   3.291   5.102 -0.9502  0.3450 -0.5875
  193DOPC  H15S23877   7.067   3.441   5.011  0.4649 -1.8593 -1.3335
  193DOPC  C21623878   7.155   3.434   5.209 -0.2317 -0.2616 -0.1461
  193DOPC  H16R23879   7.247   3.493   5.185 -0.8909  0.0791 -2.0789
  193DOPC  H16S23880   7.179   3.360   5.288  0.6453  0.2220  0.0574
  193DOPC  C21723881   7.038   3.517   5.264 -0.8215 -0.2333 -0.1214
  193DOPC  H17R23882   6.957   3.448   5.297 -0.3947 -0.3182  0.7630
  193DOPC  H17S23883   6.986   3.579   5.188  0.8213 -0.0455 -1.1249
  193DOPC  C21823884   7.078   3.595   5.383 -0.7416  0.0468 -0.0626
  193DOPC  H18R23885   7.133   3.689   5.362 -1.8908  0.8604  0.4454
  193DOPC  H18S23886   7.137   3.525   5.446 -1.4685  0.4612  1.1212
  193DOPC  H18T23887   6.987   3.622   5.441  0.2364 -0.3155  1.6938
  193DOPC   C3323888   6.878   3.298   3.730 -0.0454  0.0275  0.0329
  193DOPC   H3X23889   6.780   3.246   3.718  0.0631 -0.3645  0.8058
  193DOPC   H3Y23890   6.868   3.399   3.684 -1.8647 -0.3708 -0.5515
  193DOPC   C3423891   6.906   3.324   3.879  0.5853  0.4729  0.3947
  193DOPC   H4X23892   7.007   3.370   3.890  1.6137 -2.0261  2.2468
  193DOPC   H4Y23893   6.906   3.233   3.941 -2.2407  0.3000  0.2758
  193DOPC   C3523894   6.820   3.436   3.940  0.4432 -0.6679  0.1878
  193DOPC   H5X23895   6.725   3.447   3.882  0.4375  0.0134  0.3245
  193DOPC   H5Y23896   6.879   3.529   3.928 -1.1669  0.6583  1.8964
  193DOPC   C3623897   6.794   3.414   4.092  0.2445 -0.4713  0.5904
  193DOPC   H6X23898   6.734   3.498   4.134  0.9159 -0.3727  1.3780
  193DOPC   H6Y23899   6.731   3.323   4.096 -3.2301  1.6864 -0.6453
  193DOPC   C3723900   6.915   3.372   4.181 -0.4831  0.2110  0.6804
  193DOPC   H7X23901   6.973   3.289   4.135 -0.3615  0.0061  1.1886
  193DOPC   H7Y23902   7.004   3.439   4.174  0.1736 -0.7112 -0.0335
  193DOPC   C3823903   6.876   3.346   4.329 -0.2041 -0.4475 -0.8941
  193DOPC   H8X23904   6.968   3.314   4.383 -1.8664  0.4532  2.7558
  193DOPC   H8Y23905   6.804   3.262   4.337  0.7167 -1.3732 -1.8657
  193DOPC   C3923906   6.830   3.467   4.401  1.1637 -0.2307  0.1230
  193DOPC   H9X23907   6.723   3.488   4.386  0.4752 -2.3893  1.5740
  193DOPC  C31023908   6.897   3.554   4.485  0.8948  0.3065  0.0290
  193DOPC  H10X23909   6.847   3.635   4.540  0.5668  0.1447 -0.0318
  193DOPC  C31123910   7.045   3.547   4.513  0.3261  0.5145  0.3887
  193DOPC  H11X23911   7.095   3.606   4.433  1.5378  0.9617  1.4409
  193DOPC  H11Y23912   7.087   3.445   4.502  0.6324  0.8201 -1.9207
  193DOPC  C31223913   7.079   3.616   4.643 -0.1483  0.4738  0.4848
  193DOPC  H12X23914   7.049   3.550   4.726 -0.7497  0.4158  0.2279
  193DOPC  H12Y23915   7.016   3.707   4.657 -0.8243  0.1746 -0.4796
  193DOPC  C31323916   7.223   3.658   4.668 -0.2293 -0.4786  0.2696
  193DOPC  H13X23917   7.284   3.576   4.625 -0.5899 -0.0994 -0.9865
  193DOPC  H13Y23918   7.246   3.749   4.609 -0.2680 -0.2529  0.5950
  193DOPC  C31423919   7.254   3.686   4.819 -0.4865 -0.3951  0.3502
  193DOPC  H14X23920   7.213   3.782   4.857 -0.6997 -0.2921 -0.1368
  193DOPC  H14Y23921   7.217   3.602   4.882  2.1293 -1.8546  0.0949
  193DOPC  C31523922   7.414   3.703   4.839 -0.0118  0.3133 -0.8186
  193DOPC  H15X23923   7.457   3.790   4.785  0.7454  0.8216  0.5497
  193DOPC  H15Y23924   7.466   3.619   4.788  2.3315  2.2624 -1.8231
  193DOPC  C31623925   7.459   3.709   4.985 -0.6549 -0.3277 -0.0748
  193DOPC  H16X23926   7.421   3.622   5.043 -0.5563  1.3213  2.6273
  193DOPC  H16Y23927   7.570   3.701   4.984 -0.4729  1.2070  1.8716
  193DOPC  C31723928   7.405   3.838   5.058  0.0482  0.7247 -0.1330
  193DOPC  H17X23929   7.438   3.931   5.006  0.9618 -0.5551 -1.9480
  193DOPC  H17Y23930   7.294   3.838   5.066  0.1731  1.8504  2.4185
  193DOPC  C31823931   7.456   3.845   5.204 -0.3495 -0.1618 -0.2547
  193DOPC  H18X23932   7.469   3.953   5.227  1.6927  0.2696 -2.8996
  193DOPC  H18Y23933   7.390   3.789   5.274  2.6259 -1.4239  1.7634
  193DOPC  H18Z23934   7.551   3.788   5.211  0.7171  1.5412 -0.2615
  194DOPC     N23935   2.875   0.975   2.471 -0.2560  0.0426 -0.0591
  194DOPC   C1223936   2.902   0.949   2.619  0.0142 -0.0364  0.3995
  194DOPC  H12A23937   2.811   0.914   2.667 -0.8488 -0.9037 -1.7271
  194DOPC  H12B23938   2.938   1.040   2.664  1.4017 -1.1480  1.6396
  194DOPC   C1323939   2.763   1.074   2.453 -0.9110  1.0092 -0.1885
  194DOPC  H13A23940   2.731   1.069   2.350 -0.9153  0.8258 -0.1782
  194DOPC  H13B23941   2.683   1.055   2.523 -0.6371 -0.4771 -0.2540
  194DOPC  H13C23942   2.812   1.168   2.474  0.8638  0.0749 -0.0239
  194DOPC   C1423943   2.826   0.844   2.413 -0.0851 -0.0592 -0.0900
  194DOPC  H14A23944   2.891   0.764   2.445  0.7134  0.5771 -0.0675
  194DOPC  H14B23945   2.727   0.833   2.454 -0.0845  1.5441  0.4323
  194DOPC  H14C23946   2.809   0.852   2.307 -0.2014  1.4404  0.0199
  194DOPC   C1523947   3.001   1.011   2.394 -0.3135  0.0451  0.3158
  194DOPC  H15A23948   3.033   1.114   2.403 -0.9824  0.1800  1.2900
  194DOPC  H15B23949   2.985   0.988   2.290  0.4852 -2.1559  0.6219
  194DOPC  H15C23950   3.084   0.947   2.418 -0.5460 -0.8877 -1.2808
  194DOPC   C1123951   3.017   0.851   2.642  0.1385  0.3287  0.1876
  194DOPC  H11A23952   3.005   0.810   2.744 -0.7287  0.7147  0.2417
  194DOPC  H11B23953   2.993   0.756   2.588 -1.3323 -1.5329  3.8007
  194DOPC     P23954   3.200   1.018   2.702 -0.4206 -0.4971 -0.0056
  194DOPC   O1323955   3.219   1.139   2.620 -0.4311  0.5057  0.0164
  194DOPC   O1423956   3.320   0.974   2.778  0.3564 -0.3762 -0.2260
  194DOPC   O1223957   3.140   0.902   2.615 -0.0577  0.1942  0.0776
  194DOPC   O1123958   3.087   1.046   2.803 -0.8900 -0.0956 -0.2852
  194DOPC    C123959   3.117   1.119   2.924  0.0709  0.0083  0.2533
  194DOPC    HA23960   3.051   1.209   2.924 -2.2057 -1.5697  1.7806
  194DOPC    HB23961   3.220   1.160   2.929  1.0502 -1.9615 -1.7745
  194DOPC    C223962   3.081   1.043   3.050 -0.2493  0.4770 -0.9050
  194DOPC    HS23963   3.059   1.121   3.126  1.0194 -0.3850  0.4059
  194DOPC   O2123964   3.180   0.962   3.104  0.0403  0.8272  0.3040
  194DOPC   C2123965   3.279   1.022   3.166 -0.1270 -0.0277 -0.2124
  194DOPC   O2223966   3.303   1.145   3.164 -0.0439  0.5194  0.1060
  194DOPC   C2223967   3.361   0.923   3.250 -0.3787  0.0015 -0.3415
  194DOPC   H2R23968   3.462   0.921   3.203 -0.1431 -1.6301  0.1712
  194DOPC   H2S23969   3.314   0.823   3.248  1.8718 -1.1376 -2.9040
  194DOPC    C323970   2.959   0.959   3.037  0.0492 -0.1679 -0.8803
  194DOPC    HX23971   2.970   0.874   2.966  1.6567 -1.1997  0.4950
  194DOPC    HY23972   2.871   1.021   3.012 -0.3278  0.0346  0.7891
  194DOPC   O3123973   2.936   0.894   3.167 -0.7907  0.2295  0.2413
  194DOPC   C3123974   2.811   0.838   3.174 -0.4278 -1.3362  0.3012
  194DOPC   O3223975   2.725   0.850   3.090  0.3566 -0.2888 -0.5603
  194DOPC   C3223976   2.792   0.750   3.295 -0.6778  0.3490 -0.2495
  194DOPC   H2X23977   2.691   0.780   3.328  0.1441 -0.0881  3.0549
  194DOPC   H2Y23978   2.799   0.643   3.265 -0.8275  0.5730 -1.1132
  194DOPC   C2323979   3.389   0.967   3.395 -0.0685 -0.4899  0.2850
  194DOPC   H3R23980   3.438   1.066   3.387 -0.1812 -0.4998 -0.7168
  194DOPC   H3S23981   3.457   0.901   3.453 -0.5737 -0.6203  0.7390
  194DOPC   C2423982   3.262   0.970   3.472 -0.3179  0.5509 -0.8100
  194DOPC   H4R23983   3.215   0.869   3.469 -1.1830  0.8988  0.3715
  194DOPC   H4S23984   3.190   1.043   3.429 -1.2666 -0.0267 -0.2381
  194DOPC   C2523985   3.301   1.003   3.612  0.8165 -0.7555 -0.5088
  194DOPC   H5R23986   3.383   0.951   3.665 -0.9114 -0.6250  2.5449
  194DOPC   H5S23987   3.214   0.974   3.676  0.8630 -0.8947 -0.5086
  194DOPC   C2623988   3.335   1.158   3.627  0.0333  0.5618 -0.3518
  194DOPC   H6R23989   3.243   1.218   3.608 -0.4801  0.6667  2.0854
  194DOPC   H6S23990   3.419   1.181   3.559 -0.6519  0.8042 -1.1324
  194DOPC   C2723991   3.381   1.203   3.772 -0.4998  0.2427  0.0582
  194DOPC   H7R23992   3.427   1.303   3.763  1.9954 -0.7776  0.5983
  194DOPC   H7S23993   3.450   1.120   3.800 -0.3284  0.5899  0.6925
  194DOPC   C2823994   3.250   1.192   3.865 -0.3455  0.0754  0.1665
  194DOPC   H8R23995   3.239   1.087   3.899  0.0138 -0.0850 -0.2016
  194DOPC   H8S23996   3.168   1.221   3.796  0.8568  0.1197 -1.2795
  194DOPC   C2923997   3.255   1.282   3.990  0.6692  0.4575  0.6964
  194DOPC   H9R23998   3.204   1.379   3.977 -0.6426 -0.2974  0.0711
  194DOPC  C21023999   3.273   1.242   4.112 -0.0265  0.3131 -0.2161
  194DOPC  H10R24000   3.262   1.312   4.196  2.6532 -1.0084  1.3774
  194DOPC  C21124001   3.312   1.109   4.172 -0.7593 -0.2843 -0.3083
  194DOPC  H11R24002   3.412   1.119   4.220 -0.8885 -0.3517 -0.0253
  194DOPC  H11S24003   3.323   1.030   4.095  1.8616  1.3166 -1.7363
  194DOPC  C21224004   3.211   1.075   4.280 -0.2147  0.4834 -0.0837
  194DOPC  H12R24005   3.113   1.047   4.235 -0.0131  0.1253 -0.3014
  194DOPC  H12S24006   3.206   1.161   4.350 -1.1008 -0.7312  1.4222
  194DOPC  C21324007   3.261   0.948   4.360  0.6392 -0.1105  1.0682
  194DOPC  H13R24008   3.365   0.962   4.396  1.1444  0.3915 -0.4906
  194DOPC  H13S24009   3.274   0.869   4.283 -1.0062 -0.2351  0.8876
  194DOPC  C21424010   3.168   0.891   4.465  0.1065  0.3083 -0.6020
  194DOPC  H14R24011   3.217   0.802   4.508 -0.7940  0.4228  0.7094
  194DOPC  H14S24012   3.082   0.853   4.406 -0.3955  2.9392 -1.7342
  194DOPC  C21524013   3.128   0.992   4.572  1.0994  0.6463 -0.0334
  194DOPC  H15R24014   3.047   1.058   4.537  0.2618 -0.7777 -0.8981
  194DOPC  H15S24015   3.214   1.058   4.594 -0.4549  1.7117  3.5112
  194DOPC  C21624016   3.094   0.920   4.706 -0.4903 -0.2931  0.4905
  194DOPC  H16R24017   3.145   0.821   4.708  0.7094  0.3034  0.7846
  194DOPC  H16S24018   2.986   0.895   4.710 -0.8315  0.9916  0.0190
  194DOPC  C21724019   3.134   0.997   4.835 -0.4299 -0.4986  0.8177
  194DOPC  H17R24020   3.119   0.932   4.924 -0.2793 -0.3218  0.9737
  194DOPC  H17S24021   3.067   1.085   4.849  0.3094 -0.0193  1.4064
  194DOPC  C21824022   3.274   1.053   4.841  0.0600  0.2373 -0.0348
  194DOPC  H18R24023   3.338   0.962   4.836 -0.8030 -0.5185  1.7550
  194DOPC  H18S24024   3.290   1.101   4.940 -0.1196  1.9832 -0.8218
  194DOPC  H18T24025   3.302   1.124   4.761 -1.9924  1.6931  0.4466
  194DOPC   C3324026   2.884   0.774   3.426  0.0965 -0.3579  0.3263
  194DOPC   H3X24027   2.924   0.875   3.449  0.8352 -0.5728 -0.0121
  194DOPC   H3Y24028   2.967   0.704   3.406 -0.2420 -0.8350  0.5533
  194DOPC   C3424029   2.817   0.719   3.558 -0.1759 -0.6550  0.5017
  194DOPC   H4X24030   2.712   0.755   3.553  0.1815  0.4601  0.7209
  194DOPC   H4Y24031   2.871   0.757   3.647 -3.0705  1.2523  1.5750
  194DOPC   C3524032   2.830   0.562   3.553 -0.7267  0.3207 -0.1965
  194DOPC   H5X24033   2.935   0.529   3.542 -0.5112  1.2914 -1.1249
  194DOPC   H5Y24034   2.776   0.517   3.467 -3.8525 -0.8888  2.1663
  194DOPC   C3624035   2.772   0.499   3.684  0.3138  1.1525  0.0347
  194DOPC   H6X24036   2.764   0.391   3.661 -0.9233  1.2530 -0.0429
  194DOPC   H6Y24037   2.835   0.506   3.776  0.0848  1.1869  0.1883
  194DOPC   C3724038   2.623   0.527   3.708  0.1221 -0.3583  0.0804
  194DOPC   H7X24039   2.619   0.638   3.721 -2.1129 -0.6370  2.7165
  194DOPC   H7Y24040   2.575   0.503   3.611  0.7513  0.2251 -0.3869
  194DOPC   C3824041   2.543   0.467   3.825  0.4328 -0.3402  0.5003
  194DOPC   H8X24042   2.439   0.506   3.826  0.2240 -0.8849  0.3775
  194DOPC   H8Y24043   2.578   0.514   3.919  0.3062  0.4678  0.1475
  194DOPC   C3924044   2.539   0.314   3.823 -0.1157 -0.7341 -0.0035
  194DOPC   H9X24045   2.497   0.273   3.730 -1.7106 -0.1011  0.3993
  194DOPC  C31024046   2.566   0.234   3.927 -0.3678  0.3952  0.1342
  194DOPC  H10X24047   2.570   0.125   3.911 -0.7676 -0.2011  3.4768
  194DOPC  C31124048   2.612   0.283   4.061  0.2532 -0.5146  0.4287
  194DOPC  H11X24049   2.690   0.362   4.055  0.0298 -0.3498 -0.6468
  194DOPC  H11Y24050   2.664   0.198   4.110  2.5712  0.2876 -0.4649
  194DOPC  C31224051   2.502   0.333   4.157 -0.0865  0.4253 -0.2431
  194DOPC  H12X24052   2.450   0.422   4.116 -1.1650  0.6895  1.6069
  194DOPC  H12Y24053   2.555   0.359   4.251  1.6606 -1.9586 -0.4676
  194DOPC  C31324054   2.395   0.229   4.194 -0.3115 -0.7975  0.4832
  194DOPC  H13X24055   2.339   0.216   4.099 -1.1350 -0.3852  0.8954
  194DOPC  H13Y24056   2.430   0.132   4.236  0.3132 -0.9404 -0.3562
  194DOPC  C31424057   2.288   0.276   4.300 -0.3785 -0.4540  0.1227
  194DOPC  H14X24058   2.211   0.343   4.257 -0.3386 -0.0378  0.6829
  194DOPC  H14Y24059   2.240   0.180   4.328  0.3205 -1.0146 -0.5462
  194DOPC  C31524060   2.342   0.360   4.419 -0.0402 -0.3185  0.2337
  194DOPC  H15X24061   2.377   0.460   4.387 -0.7059  0.4035  1.6720
  194DOPC  H15Y24062   2.430   0.313   4.467 -0.8549 -0.3430  1.7602
  194DOPC  C31624063   2.237   0.396   4.530 -0.7317  0.2645 -0.0714
  194DOPC  H16X24064   2.154   0.451   4.480  0.2217  0.9735 -0.9122
  194DOPC  H16Y24065   2.191   0.300   4.561 -0.1228  0.3779  1.2723
  194DOPC  C31724066   2.306   0.467   4.640 -0.1889  0.1676  0.0003
  194DOPC  H17X24067   2.401   0.413   4.662 -1.1689 -1.6402  0.0484
  194DOPC  H17Y24068   2.332   0.567   4.600  0.2675 -0.3571 -1.0459
  194DOPC  C31824069   2.228   0.471   4.775 -0.2914 -0.1545 -0.5035
  194DOPC  H18X24070   2.272   0.391   4.839  0.2937  0.8395  0.3595
  194DOPC  H18Y24071   2.255   0.573   4.807  0.5260 -0.5653  0.1486
  194DOPC  H18Z24072   2.118   0.461   4.762  0.0258 -1.1608 -3.1883
  195DOPC     N24073   6.085   7.080   3.125 -0.6094  0.0963  0.6895
  195DOPC   C1224074   6.091   7.070   3.274 -0.2036 -0.0755 -0.8097
  195DOPC  H12A24075   5.994   7.064   3.320  0.4514  1.7924  0.9739
  195DOPC  H12B24076   6.129   7.161   3.318  0.7433 -1.1921  0.7560
  195DOPC   C1324077   6.222   7.093   3.058 -0.6743  0.4461  0.4309
  195DOPC  H13A24078   6.263   7.191   3.078 -0.4138  0.2276  0.9846
  195DOPC  H13B24079   6.290   7.015   3.090 -0.3433  2.2926  4.9726
  195DOPC  H13C24080   6.204   7.091   2.951 -0.9071 -0.7058  0.4867
  195DOPC   C1424081   6.006   7.199   3.074  0.3228  0.0149 -0.0935
  195DOPC  H14A24082   5.997   7.202   2.967  2.4340 -0.5587 -0.3365
  195DOPC  H14B24083   5.915   7.220   3.129  0.5605 -0.0568  0.3317
  195DOPC  H14C24084   6.048   7.294   3.102 -2.9139  1.5610  0.0213
  195DOPC   C1524085   6.018   6.957   3.070 -0.3566  0.3463 -0.2355
  195DOPC  H15A24086   5.996   6.960   2.965  1.2764 -0.4139 -0.6382
  195DOPC  H15B24087   5.923   6.941   3.118  0.3152  1.7335  1.6834
  195DOPC  H15C24088   6.088   6.877   3.085 -0.6698  0.2002  0.5086
  195DOPC   C1124089   6.186   6.950   3.337  0.3091  0.1198  0.7916
  195DOPC  H11A24090   6.288   6.967   3.294  0.1703 -1.3904 -0.2234
  195DOPC  H11B24091   6.201   6.964   3.446 -1.1450 -1.6628  1.2660
  195DOPC     P24092   6.001   6.785   3.377  0.1056  0.4564 -0.3325
  195DOPC   O1324093   5.925   6.693   3.286 -0.2605  0.3065 -0.7183
  195DOPC   O1424094   5.931   6.909   3.427 -0.0626  0.3481  1.2698
  195DOPC   O1224095   6.136   6.818   3.311 -0.6033  0.7140 -0.0907
  195DOPC   O1124096   6.052   6.697   3.503  0.9823 -0.0907  0.3294
  195DOPC    C124097   6.120   6.759   3.612  0.5604  0.8480  0.0057
  195DOPC    HA24098   6.127   6.869   3.605 -0.2125  0.9030 -0.0332
  195DOPC    HB24099   6.226   6.728   3.618  0.8542  1.8008 -0.1092
  195DOPC    C224100   6.051   6.733   3.745  0.8788 -0.4401  0.1819
  195DOPC    HS24101   6.081   6.816   3.813 -1.4753  2.4042 -2.0106
  195DOPC   O2124102   6.113   6.608   3.793  0.0430 -0.9322  0.1984
  195DOPC   C2124103   6.122   6.594   3.925  0.9205  0.3582 -0.1803
  195DOPC   O2224104   6.081   6.679   4.004  0.2071 -0.3062  0.6023
  195DOPC   C2224105   6.187   6.454   3.953  0.2194 -0.8347  0.4203
  195DOPC   H2R24106   6.284   6.450   3.900  1.3045 -1.7884  2.3512
  195DOPC   H2S24107   6.125   6.370   3.914  0.0677 -0.5306  0.0016
  195DOPC    C324108   5.899   6.727   3.728  0.6610 -1.0080  0.0157
  195DOPC    HX24109   5.881   6.624   3.690 -2.3214 -0.6932  0.3052
  195DOPC    HY24110   5.877   6.806   3.653  0.0656 -0.4733  0.7251
  195DOPC   O3124111   5.832   6.750   3.853  0.0577 -0.0783  0.0555
  195DOPC   C3124112   5.742   6.848   3.858  0.3928  0.0431 -0.6504
  195DOPC   O3224113   5.692   6.910   3.764  0.5375 -0.6277  0.1163
  195DOPC   C3224114   5.692   6.866   3.999  0.4571  0.1259 -1.0450
  195DOPC   H2X24115   5.596   6.811   4.008  0.8559 -0.3667  0.7335
  195DOPC   H2Y24116   5.756   6.817   4.076 -2.2295  0.3301  1.4778
  195DOPC   C2324117   6.217   6.424   4.103 -0.4925  0.0840  0.2634
  195DOPC   H3R24118   6.127   6.437   4.167  1.3417  3.2369  2.5085
  195DOPC   H3S24119   6.275   6.508   4.148 -0.3175 -0.8597  1.8639
  195DOPC   C2424120   6.288   6.284   4.117 -0.0633  0.1043 -0.1934
  195DOPC   H4R24121   6.359   6.286   4.031 -1.3307 -0.4477 -1.2856
  195DOPC   H4S24122   6.222   6.195   4.109 -1.1716  0.8027  0.8904
  195DOPC   C2524123   6.364   6.266   4.247 -0.1538  0.0547  0.6285
  195DOPC   H5R24124   6.283   6.280   4.322 -0.2392 -3.1033  1.2804
  195DOPC   H5S24125   6.438   6.348   4.257  0.0648  0.3734 -2.6319
  195DOPC   C2624126   6.434   6.139   4.276 -0.3400  0.1128 -0.1422
  195DOPC   H6R24127   6.509   6.103   4.202 -0.0209  2.1226 -0.8672
  195DOPC   H6S24128   6.362   6.054   4.284 -0.6846  0.5009  1.0959
  195DOPC   C2724129   6.501   6.142   4.410 -0.4639 -0.3489  0.0382
  195DOPC   H7R24130   6.423   6.148   4.489 -1.8662 -0.1719 -1.3085
  195DOPC   H7S24131   6.562   6.233   4.428  1.3044 -1.0568 -1.9455
  195DOPC   C2824132   6.592   6.025   4.441 -0.8664 -0.3669 -0.0102
  195DOPC   H8R24133   6.680   6.033   4.375 -0.3021  1.1571  0.8717
  195DOPC   H8S24134   6.546   5.926   4.422 -1.0359 -0.6985  1.9379
  195DOPC   C2924135   6.621   6.025   4.585 -0.2441 -0.7237 -0.6355
  195DOPC   H9R24136   6.532   5.999   4.645  0.7976 -2.1739  0.3735
  195DOPC  C21024137   6.734   6.052   4.646 -0.5370  0.2993 -0.4866
  195DOPC  H10R24138   6.748   6.039   4.754 -1.3663  2.1272 -0.1230
  195DOPC  C21124139   6.860   6.099   4.581 -0.1770  0.9774 -0.3786
  195DOPC  H11R24140   6.869   6.037   4.489  0.6797  1.9624 -0.9853
  195DOPC  H11S24141   6.942   6.075   4.651 -0.3950  1.9120  0.2176
  195DOPC  C21224142   6.868   6.247   4.555  0.2313  0.5051  0.1501
  195DOPC  H12R24143   6.863   6.306   4.650 -2.5142 -2.9566  2.4211
  195DOPC  H12S24144   6.785   6.280   4.489  1.3699  0.5025 -1.3424
  195DOPC  C21324145   7.002   6.281   4.498 -0.5379  0.2219 -0.3926
  195DOPC  H13R24146   7.079   6.224   4.555  0.8901  2.1026 -0.3010
  195DOPC  H13S24147   7.027   6.389   4.506  0.3465 -0.0079  0.0674
  195DOPC  C21424148   7.016   6.238   4.350 -0.5776  0.0243 -0.0552
  195DOPC  H14R24149   6.966   6.315   4.287  1.1423  0.9576 -0.3548
  195DOPC  H14S24150   6.973   6.137   4.332 -1.5490  0.6215 -1.2235
  195DOPC  C21524151   7.172   6.230   4.330  0.1842 -0.5270  0.0802
  195DOPC  H15R24152   7.204   6.131   4.369  0.9598 -1.1217 -1.9514
  195DOPC  H15S24153   7.216   6.301   4.403 -0.7517  0.9647 -0.7654
  195DOPC  C21624154   7.209   6.268   4.186  0.3383  0.3381  0.3525
  195DOPC  H16R24155   7.179   6.375   4.185 -1.1786 -0.0587  0.4232
  195DOPC  H16S24156   7.135   6.226   4.114 -1.5886  3.3030  0.4313
  195DOPC  C21724157   7.352   6.268   4.130  0.3221 -0.3737  0.5611
  195DOPC  H17R24158   7.414   6.340   4.186 -1.4047 -1.7679  4.6628
  195DOPC  H17S24159   7.346   6.314   4.029 -1.3722 -0.4181  0.6122
  195DOPC  C21824160   7.410   6.127   4.135 -0.2222 -0.2090 -0.3678
  195DOPC  H18R24161   7.437   6.095   4.238 -1.5686 -0.2492 -0.0049
  195DOPC  H18S24162   7.505   6.108   4.080 -0.6053 -0.1904 -1.0528
  195DOPC  H18T24163   7.331   6.064   4.088  0.8983 -1.1563 -1.0401
  195DOPC   C3324164   5.675   7.013   4.044 -0.6559 -0.0583 -0.2757
  195DOPC   H3X24165   5.583   7.057   4.001  0.0464  1.4585 -0.2769
  195DOPC   H3Y24166   5.755   7.076   3.997 -0.1823 -0.7271 -0.3914
  195DOPC   C3424167   5.671   7.016   4.198 -0.1720 -0.5098 -0.3387
  195DOPC   H4X24168   5.746   6.940   4.229  0.3891 -0.5950 -1.8092
  195DOPC   H4Y24169   5.568   6.988   4.229 -0.2580  1.2694  1.0990
  195DOPC   C3524170   5.697   7.157   4.246 -0.6289 -0.1225 -0.3252
  195DOPC   H5X24171   5.628   7.231   4.199  0.6808  1.2350 -0.1731
  195DOPC   H5Y24172   5.802   7.177   4.215  0.1534  0.6104  2.4697
  195DOPC   C3624173   5.684   7.179   4.408  0.6195  0.2757  0.7059
  195DOPC   H6X24174   5.647   7.280   4.436 -0.0230  0.1273  0.4241
  195DOPC   H6Y24175   5.600   7.112   4.435 -0.2364  0.7795 -0.5883
  195DOPC   C3724176   5.807   7.123   4.483 -0.5631 -0.0441 -0.3922
  195DOPC   H7X24177   5.825   7.044   4.408  2.1586  0.3276 -0.2134
  195DOPC   H7Y24178   5.890   7.194   4.465 -1.5408  1.1225 -0.4692
  195DOPC   C3824179   5.784   7.110   4.629 -0.2437 -0.5361 -0.3479
  195DOPC   H8X24180   5.727   7.198   4.665 -1.9872 -2.8261  2.9899
  195DOPC   H8Y24181   5.885   7.098   4.674 -0.0627 -0.3720 -0.7111
  195DOPC   C3924182   5.705   6.987   4.660 -0.9382 -0.4521  0.5334
  195DOPC   H9X24183   5.601   7.007   4.630 -0.7976 -1.0070 -0.3461
  195DOPC  C31024184   5.732   6.877   4.729 -1.2828  0.1777 -0.7368
  195DOPC  H10X24185   5.651   6.802   4.724 -1.3756  0.3338 -1.7477
  195DOPC  C31124186   5.871   6.833   4.791 -0.0131  0.3984 -0.1769
  195DOPC  H11X24187   5.849   6.787   4.890  3.0962 -0.9712 -0.0104
  195DOPC  H11Y24188   5.933   6.921   4.818 -0.4663  0.5132  0.5358
  195DOPC  C31224189   5.953   6.735   4.709 -0.0128  0.4213  0.0135
  195DOPC  H12X24190   5.894   6.642   4.692  0.7356  0.1177 -1.0703
  195DOPC  H12Y24191   6.042   6.720   4.773 -0.8437  0.0227  1.1126
  195DOPC  C31324192   5.987   6.779   4.564 -0.4964  0.2446  0.1125
  195DOPC  H13X24193   5.889   6.816   4.526 -0.8679  0.0476  0.8663
  195DOPC  H13Y24194   6.058   6.865   4.563 -0.5440  0.3371  2.0911
  195DOPC  C31424195   6.034   6.664   4.475  0.0240 -0.0741  0.1162
  195DOPC  H14X24196   5.958   6.585   4.457 -0.9609  1.1231 -1.2265
  195DOPC  H14Y24197   6.051   6.707   4.374 -2.7472  0.0077 -0.3890
  195DOPC  C31524198   6.154   6.581   4.526 -0.7046 -0.2413 -0.4709
  195DOPC  H15X24199   6.198   6.516   4.448  2.4949  0.6468  0.4397
  195DOPC  H15Y24200   6.128   6.518   4.614  0.9660 -2.1079 -1.2561
  195DOPC  C31624201   6.279   6.666   4.577  0.1905  0.9268  0.1948
  195DOPC  H16X24202   6.295   6.751   4.506  3.3981  1.0875  0.9418
  195DOPC  H16Y24203   6.252   6.715   4.673  1.6619  2.9539 -0.3353
  195DOPC  C31724204   6.417   6.582   4.584  0.0578  0.8693  0.1825
  195DOPC  H17X24205   6.452   6.563   4.481 -1.2491 -0.8059  0.0073
  195DOPC  H17Y24206   6.489   6.646   4.639  0.5351  0.2572  0.2967
  195DOPC  C31824207   6.396   6.441   4.642  0.6391 -0.2030  0.0992
  195DOPC  H18X24208   6.344   6.444   4.741  1.1016 -0.1501  0.3445
  195DOPC  H18Y24209   6.339   6.377   4.571  0.9443  1.0402 -1.3130
  195DOPC  H18Z24210   6.486   6.378   4.659  0.8379  0.5089  1.9757
  196DOPC     N24211   2.273   0.228   2.623  0.1783 -0.2882 -0.3352
  196DOPC   C1224212   2.420   0.246   2.655  0.0555  0.0338  0.2286
  196DOPC  H12A24213   2.479   0.233   2.565 -1.3394  2.4793 -1.1467
  196DOPC  H12B24214   2.451   0.162   2.715 -1.8436  0.3006  1.6827
  196DOPC   C1324215   2.184   0.241   2.747  0.1857  0.2678 -0.5431
  196DOPC  H13A24216   2.086   0.199   2.732  0.5517 -1.0406  0.4974
  196DOPC  H13B24217   2.221   0.182   2.830 -0.9898 -1.5443 -1.2621
  196DOPC  H13C24218   2.174   0.339   2.790 -0.1982 -0.3224  0.7674
  196DOPC   C1424219   2.248   0.090   2.563  0.6228  0.3626  0.1566
  196DOPC  H14A24220   2.302   0.078   2.471 -0.6513  0.7102 -0.6694
  196DOPC  H14B24221   2.281   0.018   2.636 -1.5039 -0.2719  0.5760
  196DOPC  H14C24222   2.142   0.074   2.550  0.5540 -0.1402  1.2241
  196DOPC   C1524223   2.234   0.328   2.516  0.1006  0.5538  0.1391
  196DOPC  H15A24224   2.239   0.426   2.561  1.7013  0.0523  1.1575
  196DOPC  H15B24225   2.133   0.302   2.488 -0.2097  0.4716  1.2535
  196DOPC  H15C24226   2.296   0.315   2.429 -1.8422 -0.3181 -1.1748
  196DOPC   C1124227   2.459   0.381   2.726 -0.1918 -0.2897 -0.0999
  196DOPC  H11A24228   2.568   0.386   2.747 -0.4428  2.4019  0.9425
  196DOPC  H11B24229   2.430   0.460   2.654  1.0221  1.4920  1.2631
  196DOPC     P24230   2.338   0.534   2.900 -0.0236 -0.3452  0.2485
  196DOPC   O1324231   2.225   0.531   2.989 -0.5573  0.2919  0.2733
  196DOPC   O1424232   2.319   0.623   2.785 -0.0212  0.0109  0.5710
  196DOPC   O1224233   2.385   0.391   2.851  0.2393 -0.6348  0.8570
  196DOPC   O1124234   2.463   0.591   2.984  0.4223 -0.8518 -0.3548
  196DOPC    C124235   2.549   0.501   3.055  0.0828  0.3051 -0.3914
  196DOPC    HA24236   2.637   0.562   3.086  0.8959 -2.3004  2.9853
  196DOPC    HB24237   2.585   0.426   2.982  0.8367  1.5558 -1.3404
  196DOPC    C224238   2.486   0.439   3.177 -0.2161  0.0456 -0.0952
  196DOPC    HS24239   2.399   0.375   3.149 -1.4998  2.3898 -1.8013
  196DOPC   O2124240   2.452   0.551   3.257 -0.0454  0.8225  0.1534
  196DOPC   C2124241   2.347   0.556   3.334  0.3860 -0.1409  0.0173
  196DOPC   O2224242   2.253   0.475   3.335 -0.5113 -0.7335  0.4655
  196DOPC   C2224243   2.361   0.690   3.411 -0.2793  0.6378 -0.2915
  196DOPC   H2R24244   2.368   0.773   3.338  1.6049  0.1048 -0.7715
  196DOPC   H2S24245   2.455   0.688   3.470 -1.3723 -0.4610  1.5234
  196DOPC    C324246   2.588   0.351   3.245 -0.3640  0.4492  0.1370
  196DOPC    HX24247   2.682   0.406   3.264 -1.0852  1.2427  1.5767
  196DOPC    HY24248   2.621   0.264   3.183 -0.0944  0.5111  0.1917
  196DOPC   O3124249   2.546   0.293   3.371  0.9112  0.0232  0.1373
  196DOPC   C3124250   2.453   0.193   3.362 -0.0752  0.2786 -0.3690
  196DOPC   O3224251   2.400   0.144   3.263 -0.0316 -0.2051 -0.4219
  196DOPC   C3224252   2.388   0.182   3.497  0.5527  0.6127  0.2510
  196DOPC   H2X24253   2.471   0.133   3.552  0.9425 -0.9351 -1.6218
  196DOPC   H2Y24254   2.363   0.284   3.534  2.0583  1.9503 -2.1523
  196DOPC   C2324255   2.235   0.708   3.502  0.0421 -0.4318 -0.1267
  196DOPC   H3R24256   2.237   0.627   3.577  0.0141 -1.1724 -0.9137
  196DOPC   H3S24257   2.145   0.687   3.441  0.8313  0.3975 -1.6432
  196DOPC   C2424258   2.218   0.844   3.576 -0.7278  0.9496  0.5200
  196DOPC   H4R24259   2.116   0.851   3.619 -0.9184 -1.5158  0.6360
  196DOPC   H4S24260   2.226   0.916   3.493 -0.3868 -0.0795 -0.3646
  196DOPC   C2524261   2.326   0.861   3.687 -0.1190  0.4674 -0.1816
  196DOPC   H5R24262   2.307   0.967   3.713 -4.3831 -0.0705 -0.3099
  196DOPC   H5S24263   2.425   0.837   3.644 -0.6254 -0.6249 -0.7912
  196DOPC   C2624264   2.301   0.772   3.807 -0.0555  0.9331  0.1384
  196DOPC   H6R24265   2.353   0.674   3.799 -1.1554  0.3098  0.3173
  196DOPC   H6S24266   2.196   0.740   3.822 -0.4889  3.4923  3.8041
  196DOPC   C2724267   2.342   0.835   3.941  0.0011  0.4733 -0.0700
  196DOPC   H7R24268   2.304   0.939   3.955 -0.1902  0.5065 -0.7980
  196DOPC   H7S24269   2.450   0.857   3.954 -0.0588  0.8486 -0.2031
  196DOPC   C2824270   2.301   0.737   4.055 -0.2018  0.5085 -0.2620
  196DOPC   H8R24271   2.352   0.640   4.036 -0.6008  0.4634 -1.1302
  196DOPC   H8S24272   2.195   0.716   4.032  0.3846 -1.2200 -1.6942
  196DOPC   C2924273   2.338   0.778   4.196  0.1670  0.4979 -0.0580
  196DOPC   H9R24274   2.438   0.744   4.226  0.0543  0.3416  0.1432
  196DOPC  C21024275   2.259   0.845   4.285  0.1513  0.2681  0.5068
  196DOPC  H10R24276   2.306   0.886   4.375  1.3647 -0.2485  0.1234
  196DOPC  C21124277   2.121   0.900   4.257 -0.0824  0.1108 -0.6563
  196DOPC  H11R24278   2.060   0.885   4.348 -1.6266 -1.7640 -1.9495
  196DOPC  H11S24279   2.080   0.826   4.186 -0.4388  0.3388 -0.6867
  196DOPC  C21224280   2.116   1.042   4.205 -0.0640  0.1419  0.5546
  196DOPC  H12R24281   2.015   1.061   4.163  0.1902  1.4368  0.4814
  196DOPC  H12S24282   2.168   1.052   4.107 -1.4267 -0.3034 -0.2487
  196DOPC  C21324283   2.147   1.152   4.306 -0.4941 -0.1180  0.0080
  196DOPC  H13R24284   2.140   1.253   4.260 -1.6548 -0.1007  0.1826
  196DOPC  H13S24285   2.247   1.139   4.353 -0.3769  2.3919  0.6115
  196DOPC  C21424286   2.049   1.161   4.422 -0.6211 -0.1146  0.3424
  196DOPC  H14R24287   2.029   1.056   4.452  0.5809 -0.8610 -1.3186
  196DOPC  H14S24288   1.950   1.198   4.388  0.2313 -0.2179 -2.5230
  196DOPC  C21524289   2.109   1.245   4.542  0.5452 -0.1905 -0.4106
  196DOPC  H15R24290   2.202   1.191   4.572 -0.3115 -0.1892  2.6146
  196DOPC  H15S24291   2.042   1.236   4.630  1.0803 -0.7829 -0.0599
  196DOPC  C21624292   2.133   1.397   4.506 -1.0367  0.6064  0.0554
  196DOPC  H16R24293   2.039   1.436   4.460 -1.0926  0.6017  0.1645
  196DOPC  H16S24294   2.208   1.410   4.425 -0.3035 -0.2488  0.5816
  196DOPC  C21724295   2.159   1.467   4.638 -0.4612 -0.7694  0.9108
  196DOPC  H17R24296   2.209   1.565   4.620 -1.5693 -0.4009 -0.3977
  196DOPC  H17S24297   2.226   1.399   4.694  0.0729  0.2681  1.5617
  196DOPC  C21824298   2.031   1.487   4.723  0.2827 -0.5414  0.2299
  196DOPC  H18R24299   1.997   1.592   4.720 -1.4228 -1.0890 -0.9670
  196DOPC  H18S24300   2.039   1.446   4.826  1.4635 -1.3671 -0.1647
  196DOPC  H18T24301   1.947   1.426   4.683 -1.3398  2.0996 -0.6594
  196DOPC   C3324302   2.260   0.089   3.503  0.5274 -0.3937  0.3357
  196DOPC   H3X24303   2.264  -0.002   3.440  0.3482 -0.3098  0.2038
  196DOPC   H3Y24304   2.176   0.148   3.463  1.6142  1.0798  0.1197
  196DOPC   C3424305   2.222   0.046   3.649  0.4157  0.3161 -0.1758
  196DOPC   H4X24306   2.298  -0.013   3.706  0.0862 -1.5972 -1.6016
  196DOPC   H4Y24307   2.131  -0.017   3.653  0.6243  0.0606  1.1155
  196DOPC   C3524308   2.189   0.162   3.744  0.9988 -0.4628 -0.1463
  196DOPC   H5X24309   2.137   0.248   3.697  0.3032  0.0281  1.4416
  196DOPC   H5Y24310   2.284   0.208   3.780  0.6369  0.1152  0.0899
  196DOPC   C3624311   2.094   0.133   3.856 -0.7174  0.5956  0.0690
  196DOPC   H6X24312   2.056   0.220   3.913 -1.0641  0.2724  0.3397
  196DOPC   H6Y24313   2.007   0.086   3.805  0.8834 -2.3323 -0.2204
  196DOPC   C3724314   2.143   0.027   3.956 -0.2131 -0.1384 -0.1076
  196DOPC   H7X24315   2.152  -0.068   3.899 -1.1886  1.0455 -2.3378
  196DOPC   H7Y24316   2.248   0.045   3.989 -1.0473 -0.4804  3.1150
  196DOPC   C3824317   2.046   0.016   4.078 -0.1306 -0.2209 -0.3539
  196DOPC   H8X24318   1.942  -0.016   4.056 -0.1877  0.6597 -1.4043
  196DOPC   H8Y24319   2.047   0.116   4.126  0.6478 -0.4808  0.1943
  196DOPC   C3924320   2.101  -0.084   4.177 -0.0965 -0.1486  0.2014
  196DOPC   H9X24321   2.163  -0.163   4.132 -2.0475 -1.2900 -0.6019
  196DOPC  C31024322   2.070  -0.099   4.305 -0.1570  0.1250 -0.5130
  196DOPC  H10X24323   2.138  -0.156   4.371 -0.5004 -0.1286 -0.3794
  196DOPC  C31124324   1.987  -0.007   4.383  0.0081 -0.1275  0.1498
  196DOPC  H11X24325   1.886  -0.050   4.399 -0.4206  1.4020  1.9503
  196DOPC  H11Y24326   1.957   0.080   4.320  1.1045 -0.0578 -0.2986
  196DOPC  C31224327   2.039   0.036   4.521 -0.1658  1.1319  0.1582
  196DOPC  H12X24328   2.134   0.093   4.518 -1.1749  2.9990  1.4348
  196DOPC  H12Y24329   2.054  -0.064   4.569  0.4891  0.4157 -1.4518
  196DOPC  C31324330   1.936   0.110   4.596  0.0991  0.7460  0.1801
  196DOPC  H13X24331   1.910   0.200   4.536  1.2597 -0.1606 -1.7994
  196DOPC  H13Y24332   1.841   0.053   4.586  0.0802  0.6850  0.6764
  196DOPC  C31424333   1.969   0.158   4.740 -0.3721  0.2046  0.2541
  196DOPC  H14X24334   2.073   0.128   4.763 -0.5399 -2.1253 -1.6153
  196DOPC  H14Y24335   1.980   0.268   4.731 -0.3852  0.0710 -2.1618
  196DOPC  C31524336   1.861   0.122   4.844  0.8355 -0.2311  0.8022
  196DOPC  H15X24337   1.887   0.032   4.904  0.4841 -0.9066 -0.0417
  196DOPC  H15Y24338   1.765   0.106   4.790  0.7063  1.0738  0.6102
  196DOPC  C31624339   1.809   0.235   4.942 -0.5764 -0.6946  0.2257
  196DOPC  H16X24340   1.775   0.326   4.888  1.2266 -0.7811 -1.1440
  196DOPC  H16Y24341   1.727   0.192   5.003 -1.0038 -0.1149  0.0640
  196DOPC  C31724342   1.923   0.274   5.045  0.0995  0.3286  0.2348
  196DOPC  H17X24343   1.916   0.194   5.122 -0.8567 -1.2512 -1.4097
  196DOPC  H17Y24344   2.020   0.267   4.991 -0.4644 -0.5583 -0.7140
  196DOPC  C31824345   1.917   0.405   5.115  0.1160 -0.1004 -0.1893
  196DOPC  H18X24346   1.837   0.409   5.192  1.1917 -1.7573  1.0760
  196DOPC  H18Y24347   2.010   0.407   5.175 -1.0077  1.0016  1.6219
  196DOPC  H18Z24348   1.916   0.488   5.041 -0.5403  0.4373  0.3998
  197DOPC     N24349   2.008   6.597   2.885 -0.2870 -0.0073 -0.0636
  197DOPC   C1224350   2.110   6.689   2.963  0.1996  0.1132 -0.4444
  197DOPC  H12A24351   2.172   6.629   3.028 -1.8868 -0.7316  0.8729
  197DOPC  H12B24352   2.051   6.743   3.036 -0.9771 -2.9287  1.0475
  197DOPC   C1324353   2.076   6.541   2.767 -0.0711  0.3011 -0.6077
  197DOPC  H13A24354   2.013   6.460   2.730 -2.6579  2.2485 -0.7898
  197DOPC  H13B24355   2.090   6.613   2.688 -1.0694  0.5431 -0.5761
  197DOPC  H13C24356   2.172   6.498   2.792  0.0462  0.9622  0.1086
  197DOPC   C1424357   1.888   6.678   2.848 -0.2369  0.1164  0.1941
  197DOPC  H14A24358   1.823   6.620   2.783  0.6871  0.3731 -0.9930
  197DOPC  H14B24359   1.818   6.693   2.929 -1.5785 -0.9348 -0.7247
  197DOPC  H14C24360   1.912   6.770   2.797 -0.1959 -0.2977 -0.5494
  197DOPC   C1524361   1.969   6.487   2.983  0.0511  0.2293  0.0894
  197DOPC  H15A24362   1.927   6.539   3.068  1.4369 -0.4483  1.2254
  197DOPC  H15B24363   2.060   6.436   3.008  0.0861 -0.6275 -1.6489
  197DOPC  H15C24364   1.895   6.411   2.960  2.4981 -2.5268  0.7791
  197DOPC   C1124365   2.186   6.788   2.879 -0.2361 -0.4843 -0.2077
  197DOPC  H11A24366   2.258   6.754   2.802 -0.3092  2.9136 -1.9424
  197DOPC  H11B24367   2.115   6.853   2.823 -0.6270  0.2085  1.0438
  197DOPC     P24368   2.401   6.851   3.013  0.0109 -0.2288 -0.3674
  197DOPC   O1324369   2.503   6.934   2.937 -0.3595  0.4958  0.1407
  197DOPC   O1424370   2.422   6.708   3.021  0.3589  0.1205  0.6384
  197DOPC   O1224371   2.253   6.875   2.963  0.0658 -0.3265  0.5745
  197DOPC   O1124372   2.393   6.909   3.162  0.6311 -0.3954  0.1511
  197DOPC    C124373   2.271   6.873   3.228 -0.6594  0.2904  0.2925
  197DOPC    HA24374   2.249   6.765   3.241  0.3549  0.0086 -0.2207
  197DOPC    HB24375   2.189   6.932   3.181 -0.1292  1.2442  0.5462
  197DOPC    C224376   2.279   6.913   3.378 -0.6596  0.6455 -0.0236
  197DOPC    HS24377   2.184   6.887   3.430 -1.7421  0.4131 -2.0290
  197DOPC   O2124378   2.309   7.049   3.392  0.5123  0.8356  0.3278
  197DOPC   C2124379   2.209   7.132   3.359 -1.2331  0.0158 -0.6206
  197DOPC   O2224380   2.090   7.104   3.354 -0.2134 -0.4002  0.1410
  197DOPC   C2224381   2.261   7.272   3.342 -1.0859 -0.1539  0.0373
  197DOPC   H2R24382   2.363   7.270   3.298 -1.0173  1.9540  0.0298
  197DOPC   H2S24383   2.273   7.319   3.441 -2.1824 -3.2760  1.7891
  197DOPC    C324384   2.397   6.837   3.455  0.2671  0.2360  0.7712
  197DOPC    HX24385   2.494   6.881   3.423 -0.1149 -0.1761 -1.0142
  197DOPC    HY24386   2.391   6.734   3.414 -1.7019  0.5348  0.2223
  197DOPC   O3124387   2.389   6.844   3.598 -0.2398 -0.6794 -0.3068
  197DOPC   C3124388   2.460   6.739   3.661 -0.2502  0.2351  0.1454
  197DOPC   O3224389   2.511   6.648   3.598 -0.0821 -0.3385 -0.2469
  197DOPC   C3224390   2.463   6.756   3.813 -0.3711 -0.2070 -1.0074
  197DOPC   H2X24391   2.519   6.852   3.823 -0.2562  0.0110 -3.2858
  197DOPC   H2Y24392   2.357   6.766   3.844 -0.1769 -2.3348  0.4830
  197DOPC   C2324393   2.168   7.364   3.262 -0.5495  0.3422 -0.2555
  197DOPC   H3R24394   2.143   7.303   3.172 -0.3442  1.1596 -0.8780
  197DOPC   H3S24395   2.225   7.447   3.216  0.9589 -0.7290 -0.3985
  197DOPC   C2424396   2.045   7.413   3.340 -0.1711 -0.1619 -0.2848
  197DOPC   H4R24397   2.087   7.483   3.415  0.9492 -2.4747  1.4010
  197DOPC   H4S24398   2.000   7.332   3.402 -1.7101  1.6271  1.0649
  197DOPC   C2524399   1.943   7.478   3.251 -0.3315  0.4638  0.3256
  197DOPC   H5R24400   1.937   7.422   3.155  2.4915 -0.0400  0.3669
  197DOPC   H5S24401   1.976   7.580   3.222 -1.0291  0.3664 -0.8992
  197DOPC   C2624402   1.812   7.492   3.327  0.0328 -0.5786  0.2409
  197DOPC   H6R24403   1.820   7.553   3.420 -4.1136 -2.0902  1.8328
  197DOPC   H6S24404   1.774   7.395   3.365 -1.4215 -0.6215 -1.1953
  197DOPC   C2724405   1.699   7.575   3.245 -0.4694  0.5102 -0.0360
  197DOPC   H7R24406   1.652   7.508   3.170  0.5845 -0.5271  0.2077
  197DOPC   H7S24407   1.746   7.657   3.187  1.9849 -0.2979  0.6911
  197DOPC   C2824408   1.580   7.620   3.334 -0.8781 -0.2331  0.1830
  197DOPC   H8R24409   1.522   7.690   3.270  1.2027  0.7883 -0.6976
  197DOPC   H8S24410   1.613   7.679   3.421  0.1988  0.1223 -0.4464
  197DOPC   C2924411   1.495   7.505   3.379 -0.2986 -0.3743  0.5199
  197DOPC   H9R24412   1.453   7.445   3.296  0.0458  2.6048 -2.0100
  197DOPC  C21024413   1.451   7.470   3.500  0.9842  0.1055  0.2020
  197DOPC  H10R24414   1.387   7.381   3.508  1.1553  0.0981  1.9287
  197DOPC  C21124415   1.469   7.549   3.623  0.0865  0.4023  0.3657
  197DOPC  H11R24416   1.488   7.657   3.602  2.1627 -0.2444 -1.3950
  197DOPC  H11S24417   1.559   7.506   3.671 -1.0226 -0.9197  1.3211
  197DOPC  C21224418   1.354   7.534   3.719  0.1116 -0.1381 -0.0224
  197DOPC  H12R24419   1.259   7.560   3.669 -0.1153 -0.3617  0.2882
  197DOPC  H12S24420   1.371   7.605   3.803  2.5728  0.4706 -0.9366
  197DOPC  C21324421   1.325   7.398   3.780 -0.3800 -0.1997 -0.2312
  197DOPC  H13R24422   1.407   7.359   3.845 -1.4380 -1.3833  0.4387
  197DOPC  H13S24423   1.312   7.337   3.687 -1.9833  2.1543 -1.6468
  197DOPC  C21424424   1.192   7.403   3.858 -0.5492  0.8410  0.3818
  197DOPC  H14R24425   1.154   7.300   3.875 -1.2902  0.7610 -1.5007
  197DOPC  H14S24426   1.113   7.451   3.796  0.0359  1.1059 -0.1634
  197DOPC  C21524427   1.204   7.468   3.998 -0.2150  0.4853  0.3086
  197DOPC  H15R24428   1.239   7.572   3.980 -0.5469  0.4067 -0.9479
  197DOPC  H15S24429   1.279   7.414   4.059 -2.0146 -2.4344  0.1544
  197DOPC  C21624430   1.068   7.458   4.068 -0.1182  0.2538 -0.6816
  197DOPC  H16R24431   1.060   7.357   4.115 -2.7290 -0.5432 -2.6344
  197DOPC  H16S24432   0.988   7.467   3.991 -0.9694  0.2824  0.1821
  197DOPC  C21724433   1.053   7.566   4.179  0.4194  1.1160 -0.3951
  197DOPC  H17R24434   1.087   7.665   4.143  2.4591  0.3320 -0.7701
  197DOPC  H17S24435   1.120   7.542   4.264 -2.7755 -0.0977  1.9786
  197DOPC  C21824436   0.916   7.583   4.231  0.0980 -0.6011 -0.1582
  197DOPC  H18R24437   0.872   7.488   4.269 -0.7148 -0.9728 -1.9207
  197DOPC  H18S24438   0.855   7.628   4.150  1.7198  1.5441 -0.2661
  197DOPC  H18T24439   0.907   7.655   4.315  2.6670  0.7913 -0.9739
  197DOPC   C3324440   2.527   6.638   3.892 -0.0051 -0.1556  0.1419
  197DOPC   H3X24441   2.627   6.625   3.846 -0.8552 -0.6585 -1.6481
  197DOPC   H3Y24442   2.470   6.543   3.890  4.0254 -2.7705 -1.0058
  197DOPC   C3424443   2.540   6.676   4.041 -0.1668 -0.7773  0.2306
  197DOPC   H4X24444   2.565   6.783   4.055 -2.8291  0.0506 -0.7131
  197DOPC   H4Y24445   2.614   6.607   4.087  1.2063  0.6356  0.2206
  197DOPC   C3524446   2.410   6.665   4.117 -0.2883 -0.0551  0.2507
  197DOPC   H5X24447   2.371   6.561   4.117 -0.0576 -0.1469  0.7912
  197DOPC   H5Y24448   2.338   6.734   4.068  1.5515  0.5882 -1.6784
  197DOPC   C3624449   2.439   6.700   4.263  0.6062  0.1195  0.3497
  197DOPC   H6X24450   2.518   6.636   4.307  1.4638  0.9684  0.0584
  197DOPC   H6Y24451   2.472   6.805   4.279 -1.8684  0.8465  1.1963
  197DOPC   C3724452   2.307   6.689   4.336  0.2860  0.1616  0.0384
  197DOPC   H7X24453   2.235   6.753   4.280  0.0632  0.9089  1.1521
  197DOPC   H7Y24454   2.271   6.584   4.335  2.8020 -0.7759 -1.9963
  197DOPC   C3824455   2.315   6.755   4.477 -0.5532 -0.1027  0.3775
  197DOPC   H8X24456   2.345   6.859   4.454  0.4084 -0.1063  1.5597
  197DOPC   H8Y24457   2.399   6.701   4.526  0.0987 -0.2001 -0.8015
  197DOPC   C3924458   2.195   6.751   4.566 -0.1952 -0.4104 -0.2680
  197DOPC   H9X24459   2.137   6.844   4.560  0.2588 -0.0185  1.0149
  197DOPC  C31024460   2.164   6.641   4.645  0.3193  0.0598  0.3159
  197DOPC  H10X24461   2.082   6.646   4.719 -0.7161 -0.4798 -0.7588
  197DOPC  C31124462   2.241   6.515   4.657  0.0607 -0.4538  0.1922
  197DOPC  H11X24463   2.276   6.472   4.561 -1.2810 -0.8289 -0.1421
  197DOPC  H11Y24464   2.174   6.434   4.693  0.6418 -0.3276  1.6424
  197DOPC  C31224465   2.351   6.527   4.763  0.1563 -0.1466 -0.3185
  197DOPC  H12X24466   2.431   6.596   4.729  0.1579  0.7732  1.4576
  197DOPC  H12Y24467   2.389   6.425   4.785 -0.5384 -0.2637  0.3695
  197DOPC  C31324468   2.309   6.577   4.900 -0.0647 -0.6060 -0.0707
  197DOPC  H13X24469   2.299   6.687   4.894  0.5214 -0.6199 -2.1310
  197DOPC  H13Y24470   2.211   6.533   4.927 -0.7948  1.2596  0.4611
  197DOPC  C31424471   2.413   6.540   5.003  0.9469  0.1987  0.2828
  197DOPC  H14X24472   2.420   6.430   4.999  0.4088  0.1785 -0.3188
  197DOPC  H14Y24473   2.515   6.563   4.965  0.7195 -0.2813 -0.6548
  197DOPC  C31524474   2.383   6.592   5.144  0.5031  0.0443  0.4335
  197DOPC  H15X24475   2.274   6.578   5.159  0.3565  1.5354  0.8897
  197DOPC  H15Y24476   2.412   6.699   5.145  0.7336  0.0256 -1.1499
  197DOPC  C31624477   2.461   6.517   5.260 -0.6430 -0.1292  0.3877
  197DOPC  H16X24478   2.487   6.413   5.230 -2.2236 -0.9743  1.7617
  197DOPC  H16Y24479   2.557   6.571   5.249 -1.0179  0.0943 -3.0811
  197DOPC  C31724480   2.397   6.529   5.396 -0.1892 -0.0889 -0.5979
  197DOPC  H17X24481   2.376   6.634   5.426  0.9109  0.0421 -0.2380
  197DOPC  H17Y24482   2.295   6.485   5.388 -0.4836  0.6468 -1.0350
  197DOPC  C31824483   2.475   6.462   5.509 -0.5687 -0.1259 -0.6844
  197DOPC  H18X24484   2.438   6.357   5.506 -0.8128 -0.1331  1.5278
  197DOPC  H18Y24485   2.584   6.452   5.487 -0.4275  0.1552 -0.1124
  197DOPC  H18Z24486   2.451   6.508   5.607  0.3115  0.5318 -0.7638
  198DOPC     N24487   6.621   0.046   2.778 -0.1359 -0.2694  0.1246
  198DOPC   C1224488   6.707  -0.080   2.795  0.4363  0.3517  0.1424
  198DOPC  H12A24489   6.807  -0.060   2.761  0.2249  0.6494 -0.3150
  198DOPC  H12B24490   6.664  -0.156   2.730  0.1664  2.2600 -2.0353
  198DOPC   C1324491   6.668   0.159   2.865  0.2251  0.3332 -0.0901
  198DOPC  H13A24492   6.594   0.238   2.858 -0.6364 -0.4686 -0.2770
  198DOPC  H13B24493   6.687   0.129   2.967  3.3193 -0.0797 -0.6947
  198DOPC  H13C24494   6.760   0.200   2.826 -1.2204  2.6249 -1.3245
  198DOPC   C1424495   6.473   0.020   2.793  0.3202  0.0734  0.8409
  198DOPC  H14A24496   6.423   0.113   2.770  0.6606 -0.6384 -3.6261
  198DOPC  H14B24497   6.444  -0.061   2.728 -0.4040  0.1234  1.0915
  198DOPC  H14C24498   6.462  -0.021   2.893  0.6464 -0.5317  0.6326
  198DOPC   C1524499   6.627   0.108   2.641 -0.0665  1.1034 -0.2969
  198DOPC  H15A24500   6.725   0.104   2.596 -0.3879 -1.5476 -0.9170
  198DOPC  H15B24501   6.582   0.206   2.636 -1.4658  0.4684 -0.8603
  198DOPC  H15C24502   6.578   0.041   2.571  1.2110 -0.0229 -0.1505
  198DOPC   C1124503   6.723  -0.135   2.936  0.2496  0.1834 -0.1964
  198DOPC  H11A24504   6.779  -0.231   2.933 -0.2326 -0.0831 -0.6644
  198DOPC  H11B24505   6.794  -0.067   2.989 -0.2601  1.5158 -1.1579
  198DOPC     P24506   6.513  -0.291   2.998  0.2176 -0.1896 -0.3099
  198DOPC   O1324507   6.578  -0.381   2.905 -0.4322  0.2159  0.1137
  198DOPC   O1424508   6.370  -0.267   2.975 -0.1065  0.1990  0.2027
  198DOPC   O1224509   6.596  -0.156   3.010  0.3196  0.4024 -0.1336
  198DOPC   O1124510   6.535  -0.356   3.138 -0.1280  0.8607  0.0547
  198DOPC    C124511   6.666  -0.415   3.174  0.7028 -0.0946 -0.2003
  198DOPC    HA24512   6.753  -0.373   3.120  2.5970 -2.2825  0.9843
  198DOPC    HB24513   6.667  -0.524   3.154  0.5954 -0.0283 -0.5786
  198DOPC    C224514   6.688  -0.383   3.327 -0.5088 -0.2031 -0.0650
  198DOPC    HS24515   6.794  -0.405   3.349  0.2479  2.9560 -0.0465
  198DOPC   O2124516   6.592  -0.445   3.403 -0.5609  0.1341 -0.6196
  198DOPC   C2124517   6.609  -0.575   3.413 -0.0508  0.1025 -0.1389
  198DOPC   O2224518   6.710  -0.637   3.387 -0.6924  0.3589 -0.1937
  198DOPC   C2224519   6.480  -0.645   3.455 -0.7460  0.0392  0.0648
  198DOPC   H2R24520   6.482  -0.734   3.388 -2.1258  1.5895 -2.1726
  198DOPC   H2S24521   6.394  -0.578   3.433  0.3911  1.5865  0.1889
  198DOPC    C324522   6.690  -0.228   3.354  0.2460 -0.4775  0.0312
  198DOPC    HX24523   6.593  -0.177   3.335 -0.4763 -1.8455 -0.0992
  198DOPC    HY24524   6.763  -0.185   3.282  0.3671 -2.0801 -0.8435
  198DOPC   O3124525   6.730  -0.198   3.485  0.8462  0.4245 -0.1550
  198DOPC   C3124526   6.629  -0.205   3.579  0.4079 -0.2106 -0.1300
  198DOPC   O3224527   6.508  -0.197   3.553 -0.1056  0.2194  0.5876
  198DOPC   C3224528   6.698  -0.222   3.711  0.2975  0.7614  0.5996
  198DOPC   H2X24529   6.658  -0.315   3.756  0.3063  0.0333 -0.8294
  198DOPC   H2Y24530   6.809  -0.228   3.701  0.5239  0.6436  2.8216
  198DOPC   C2324531   6.482  -0.679   3.606  0.0239 -0.1942 -0.2194
  198DOPC   H3R24532   6.577  -0.719   3.648 -0.8732 -0.9682  1.1482
  198DOPC   H3S24533   6.404  -0.757   3.621 -0.1507  0.4706  2.8769
  198DOPC   C2424534   6.451  -0.579   3.716  0.2547  0.3543 -0.1428
  198DOPC   H4R24535   6.516  -0.489   3.713  2.4491 -1.1797 -1.3044
  198DOPC   H4S24536   6.462  -0.639   3.809 -0.4655 -0.8222 -0.7922
  198DOPC   C2524537   6.304  -0.524   3.710  0.4497 -1.0999 -0.1354
  198DOPC   H5R24538   6.230  -0.602   3.682 -1.1065  0.1121  0.4475
  198DOPC   H5S24539   6.289  -0.447   3.631  0.7767 -0.4768  0.4061
  198DOPC   C2624540   6.252  -0.480   3.848  0.4171  0.0484 -0.0903
  198DOPC   H6R24541   6.158  -0.427   3.825  0.3404 -0.0375  0.0206
  198DOPC   H6S24542   6.318  -0.398   3.885  1.7199 -0.7363 -0.6046
  198DOPC   C2724543   6.236  -0.582   3.963 -0.2933  0.4848  1.2509
  198DOPC   H7R24544   6.335  -0.616   4.000  0.4937  3.0219  1.6475
  198DOPC   H7S24545   6.180  -0.673   3.931 -2.6964  0.9494  3.7855
  198DOPC   C2824546   6.151  -0.528   4.075 -0.1121  0.3074 -0.3306
  198DOPC   H8R24547   6.058  -0.477   4.046 -1.7488 -1.5447  1.3572
  198DOPC   H8S24548   6.217  -0.461   4.135 -2.5420  0.2479  2.6482
  198DOPC   C2924549   6.096  -0.636   4.168 -0.1846  0.0642  0.3001
  198DOPC   H9R24550   6.061  -0.727   4.117  0.4565 -0.5556  0.9539
  198DOPC  C21024551   6.133  -0.649   4.295 -0.2190 -0.2606 -0.0518
  198DOPC  H10R24552   6.104  -0.738   4.353 -1.3698  0.8297  1.1224
  198DOPC  C21124553   6.231  -0.553   4.360  0.3884  0.1096  0.0311
  198DOPC  H11R24554   6.192  -0.449   4.353 -1.9355 -0.7033 -0.0050
  198DOPC  H11S24555   6.334  -0.553   4.320  0.4409 -2.7952 -0.0409
  198DOPC  C21224556   6.226  -0.569   4.514 -0.0770  0.5873  0.2110
  198DOPC  H12R24557   6.272  -0.667   4.540 -0.2659  0.8492  1.5966
  198DOPC  H12S24558   6.124  -0.567   4.557 -0.3461  0.7651 -0.4272
  198DOPC  C21324559   6.314  -0.458   4.566  0.1476  0.4882 -0.1202
  198DOPC  H13R24560   6.285  -0.357   4.528  0.0915 -0.2543 -2.1779
  198DOPC  H13S24561   6.423  -0.465   4.542  0.1556 -0.4041  0.1444
  198DOPC  C21424562   6.317  -0.436   4.724  0.6332 -0.1189  1.0275
  198DOPC  H14R24563   6.389  -0.351   4.733  0.3036  0.2273  0.4831
  198DOPC  H14S24564   6.364  -0.520   4.780  2.5598 -0.4842 -0.9970
  198DOPC  C21524565   6.178  -0.399   4.777  0.3472 -0.1059  0.4818
  198DOPC  H15R24566   6.119  -0.493   4.781  1.3322 -0.7469  5.1223
  198DOPC  H15S24567   6.138  -0.333   4.697  0.6070 -1.5161 -0.8639
  198DOPC  C21624568   6.168  -0.332   4.914 -0.3135 -0.4218  0.0392
  198DOPC  H16R24569   6.243  -0.249   4.912 -1.5456  0.7164 -0.6970
  198DOPC  H16S24570   6.211  -0.391   4.998  1.4641  2.7187  1.5429
  198DOPC  C21724571   6.023  -0.276   4.945 -0.7523 -0.0030 -0.0214
  198DOPC  H17R24572   5.983  -0.265   4.842 -1.1613  0.6692  0.2038
  198DOPC  H17S24573   6.027  -0.175   4.991 -1.4554 -1.2606  3.0861
  198DOPC  C21824574   5.948  -0.376   5.036  0.0945 -0.5304  0.1383
  198DOPC  H18R24575   5.978  -0.480   5.013 -2.7632 -1.0337 -1.9112
  198DOPC  H18S24576   5.839  -0.369   5.014 -0.0640 -1.8513  0.3955
  198DOPC  H18T24577   5.966  -0.360   5.144  2.1999 -1.1708 -0.0682
  198DOPC   C3324578   6.653  -0.117   3.816  0.0944  0.3318 -0.8981
  198DOPC   H3X24579   6.703  -0.153   3.909 -1.0627 -0.8204 -0.6854
  198DOPC   H3Y24580   6.544  -0.127   3.836  0.2798  0.5844  0.3636
  198DOPC   C3424581   6.697   0.026   3.794 -0.3441 -0.6445  0.6357
  198DOPC   H4X24582   6.624   0.087   3.737 -0.2588  0.4077  1.6157
  198DOPC   H4Y24583   6.789   0.043   3.735 -1.4060  0.4217 -0.7833
  198DOPC   C3524584   6.694   0.111   3.927 -0.5738 -0.6577  0.1987
  198DOPC   H5X24585   6.772   0.078   3.998  3.1644  0.8541 -2.8188
  198DOPC   H5Y24586   6.603   0.107   3.990  1.3000 -0.8887  3.0486
  198DOPC   C3624587   6.733   0.253   3.885 -0.0720 -0.7706 -0.5519
  198DOPC   H6X24588   6.834   0.255   3.836 -0.7774  3.1033 -2.3069
  198DOPC   H6Y24589   6.660   0.295   3.813 -0.7157 -0.7735  0.1009
  198DOPC   C3724590   6.743   0.353   3.999  0.1631 -0.8340 -0.6632
  198DOPC   H7X24591   6.763   0.456   3.962  3.4898 -1.0666  0.0984
  198DOPC   H7Y24592   6.646   0.348   4.053 -0.3772  0.5266 -1.4811
  198DOPC   C3824593   6.860   0.323   4.093  0.0957 -0.2478 -0.0914
  198DOPC   H8X24594   6.947   0.304   4.026 -1.2291  0.0140 -1.9757
  198DOPC   H8Y24595   6.848   0.230   4.153 -0.9390 -0.1287 -0.0990
  198DOPC   C3924596   6.887   0.437   4.179  0.1321  0.0934  0.3337
  198DOPC   H9X24597   6.946   0.517   4.131  0.2052  1.5727  2.7141
  198DOPC  C31024598   6.865   0.468   4.308  0.1464 -0.1296 -0.2997
  198DOPC  H10X24599   6.867   0.573   4.340  0.2572 -0.4339  0.7326
  198DOPC  C31124600   6.807   0.376   4.406 -0.6553  0.2745 -0.0790
  198DOPC  H11X24601   6.838   0.403   4.509  1.6138  2.4717 -1.2139
  198DOPC  H11Y24602   6.837   0.275   4.373  0.4117 -0.0091  1.6092
  198DOPC  C31224603   6.653   0.395   4.414 -0.6176  0.3038 -0.5212
  198DOPC  H12X24604   6.618   0.307   4.472 -0.1125  0.8937  0.7149
  198DOPC  H12Y24605   6.600   0.398   4.317  0.9876  0.4045 -1.4234
  198DOPC  C31324606   6.620   0.521   4.499  0.4318 -0.2950  0.2109
  198DOPC  H13X24607   6.679   0.526   4.593 -0.5088  3.9919  0.7628
  198DOPC  H13Y24608   6.656   0.613   4.449  0.4151 -0.3517  0.0918
  198DOPC  C31424609   6.466   0.514   4.529  0.3212 -0.0133 -0.1762
  198DOPC  H14X24610   6.390   0.529   4.449  0.2038  1.6605  0.1904
  198DOPC  H14Y24611   6.443   0.416   4.574  0.8837  0.6408  1.6156
  198DOPC  C31524612   6.432   0.625   4.632 -0.5920  0.2329  0.2879
  198DOPC  H15X24613   6.504   0.618   4.716 -0.0492 -1.2651 -0.2733
  198DOPC  H15Y24614   6.333   0.605   4.679  0.1650 -0.1780  1.7793
  198DOPC  C31624615   6.433   0.755   4.562 -0.5881 -0.9284  0.5145
  198DOPC  H16X24616   6.509   0.762   4.482  0.0077  0.8114  1.1825
  198DOPC  H16Y24617   6.337   0.760   4.505 -0.5191 -0.9488  0.3969
  198DOPC  C31724618   6.450   0.871   4.657 -0.1154 -0.9418  0.3081
  198DOPC  H17X24619   6.363   0.879   4.725  1.4567  1.5706  2.1986
  198DOPC  H17Y24620   6.547   0.864   4.711  1.4930  1.6696 -1.9583
  198DOPC  C31824621   6.439   1.014   4.591 -0.1182  0.0856 -0.1372
  198DOPC  H18X24622   6.336   1.054   4.580  0.5163  1.5095 -1.3007
  198DOPC  H18Y24623   6.485   1.094   4.653  0.7496 -1.1435  0.8399
  198DOPC  H18Z24624   6.507   1.016   4.503  0.1193  1.3597  0.0532
  199DOPC     N24625   5.534   7.146   2.861  0.3079 -0.2294  0.0838
  199DOPC   C1224626   5.410   7.202   2.927 -0.3563  0.2316  0.9132
  199DOPC  H12A24627   5.338   7.122   2.920 -1.6056  1.4674 -1.9285
  199DOPC  H12B24628   5.383   7.283   2.862 -0.8495 -2.0067 -1.8772
  199DOPC   C1324629   5.637   7.254   2.828 -0.5490 -0.5119  0.3667
  199DOPC  H13A24630   5.728   7.212   2.788  0.4333  1.1310  0.7828
  199DOPC  H13B24631   5.591   7.331   2.767 -1.9087  0.5023  2.5621
  199DOPC  H13C24632   5.664   7.303   2.920 -0.8914 -2.1243  1.3661
  199DOPC   C1424633   5.492   7.085   2.729 -0.8416 -0.5368  0.4439
  199DOPC  H14A24634   5.578   7.044   2.679  1.1777  2.7311  0.9585
  199DOPC  H14B24635   5.416   7.010   2.743 -0.4201 -1.2648 -0.9432
  199DOPC  H14C24636   5.458   7.164   2.663  0.0679  0.4431  1.1027
  199DOPC   C1524637   5.592   7.043   2.938  0.3997 -0.1192 -0.3480
  199DOPC  H15A24638   5.690   7.017   2.901  0.6268  1.5236 -0.9622
  199DOPC  H15B24639   5.531   6.954   2.928 -0.5081  0.3106  0.9812
  199DOPC  H15C24640   5.600   7.073   3.041  1.1770 -1.0605 -0.1198
  199DOPC   C1124641   5.427   7.255   3.070 -0.4072  0.3121 -0.2856
  199DOPC  H11A24642   5.334   7.306   3.102 -0.2828  0.4152 -0.0753
  199DOPC  H11B24643   5.445   7.167   3.135  0.2134 -0.3611 -1.3372
  199DOPC     P24644   5.638   7.349   3.195 -0.4919  0.5743 -0.4552
  199DOPC   O1324645   5.705   7.475   3.212 -0.2980 -0.1348  0.8317
  199DOPC   O1424646   5.736   7.236   3.177  0.1576 -0.2972 -0.4594
  199DOPC   O1224647   5.538   7.352   3.067  0.1799 -0.0625 -0.0182
  199DOPC   O1124648   5.544   7.330   3.320  0.6481  0.3815 -0.4641
  199DOPC    C124649   5.443   7.423   3.357  0.3553 -0.1461  0.3706
  199DOPC    HA24650   5.344   7.387   3.322  0.9150 -1.3711 -0.0019
  199DOPC    HB24651   5.452   7.526   3.316  3.1161 -0.4873 -0.1061
  199DOPC    C224652   5.440   7.429   3.513 -0.1416  0.4530 -0.1863
  199DOPC    HS24653   5.373   7.506   3.555 -1.0815 -0.2346 -0.3899
  199DOPC   O2124654   5.577   7.453   3.559  0.1790 -0.1074  0.4005
  199DOPC   C2124655   5.639   7.569   3.530 -0.3266  0.9644 -0.2938
  199DOPC   O2224656   5.596   7.660   3.466 -0.5106  0.1246  0.2121
  199DOPC   C2224657   5.781   7.563   3.601 -0.5231 -0.1553  0.0866
  199DOPC   H2R24658   5.839   7.655   3.578  0.0656 -0.1778  1.4002
  199DOPC   H2S24659   5.840   7.491   3.540  1.3159  0.4651  1.0526
  199DOPC    C324660   5.382   7.301   3.574 -0.1121 -0.0105 -0.1917
  199DOPC    HX24661   5.444   7.209   3.566  0.9050  0.1516  3.7967
  199DOPC    HY24662   5.302   7.275   3.501  0.3105  2.0876 -1.5020
  199DOPC   O3124663   5.323   7.311   3.707  0.6724  1.0588  0.2975
  199DOPC   C3124664   5.417   7.293   3.801 -0.3205  0.1209  0.1627
  199DOPC   O3224665   5.530   7.256   3.783 -0.1272 -0.3436  0.5918
  199DOPC   C3224666   5.365   7.313   3.939  0.5418 -0.0735  0.0457
  199DOPC   H2X24667   5.438   7.285   4.018  0.4366 -2.2036 -0.5349
  199DOPC   H2Y24668   5.357   7.423   3.950 -0.4379 -0.1187 -0.1437
  199DOPC   C2324669   5.779   7.512   3.750 -0.0993 -0.1191 -0.2729
  199DOPC   H3R24670   5.738   7.409   3.761  2.6498 -1.2533  0.1599
  199DOPC   H3S24671   5.716   7.586   3.803  0.0049  1.0046 -1.6649
  199DOPC   C2424672   5.916   7.508   3.827  0.4933 -0.1909 -0.2811
  199DOPC   H4R24673   5.968   7.604   3.804  1.3913 -0.2871  1.1789
  199DOPC   H4S24674   5.974   7.422   3.788 -1.0695 -0.4099 -2.2599
  199DOPC   C2524675   5.906   7.506   3.980 -0.0856 -0.2654 -0.3105
  199DOPC   H5R24676   5.856   7.411   4.010  0.3750 -0.2843  0.4225
  199DOPC   H5S24677   5.848   7.590   4.024 -1.0332 -0.5916 -0.8800
  199DOPC   C2624678   6.047   7.515   4.043 -0.5250  0.5669  1.4773
  199DOPC   H6R24679   6.086   7.619   4.039 -0.2282  0.4248  0.4355
  199DOPC   H6S24680   6.118   7.453   3.984 -1.2403  2.0803 -1.1331
  199DOPC   C2724681   6.045   7.478   4.191  0.1789 -0.1351 -0.0953
  199DOPC   H7R24682   6.150   7.459   4.220  0.3310  0.6780 -0.1042
  199DOPC   H7S24683   5.987   7.383   4.195 -1.8339  0.9136 -1.9620
  199DOPC   C2824684   5.972   7.583   4.277  0.0215  0.0361  0.5639
  199DOPC   H8R24685   5.867   7.596   4.242  0.4626 -1.8117 -1.6704
  199DOPC   H8S24686   6.007   7.686   4.252 -3.0634  1.2056  0.5239
  199DOPC   C2924687   5.985   7.560   4.426  0.0015  0.0822 -0.4183
  199DOPC   H9R24688   6.061   7.487   4.457 -1.2217 -0.6577  0.8799
  199DOPC  C21024689   5.895   7.604   4.522  0.1786 -0.2715  0.0044
  199DOPC  H10R24690   5.902   7.582   4.630 -2.5800  0.4116  0.3998
  199DOPC  C21124691   5.785   7.700   4.492 -0.2989 -0.4179  0.0127
  199DOPC  H11R24692   5.753   7.688   4.387  0.1559 -3.1193  0.1114
  199DOPC  H11S24693   5.823   7.804   4.498 -0.2890 -0.4927  1.9833
  199DOPC  C21224694   5.673   7.703   4.602 -0.5600 -0.1961  0.2160
  199DOPC  H12R24695   5.709   7.730   4.703  1.0579 -0.3652 -0.2904
  199DOPC  H12S24696   5.613   7.610   4.608 -1.9610  0.5826 -1.0008
  199DOPC  C21324697   5.567   7.811   4.564 -0.1921 -0.1618  0.1910
  199DOPC  H13R24698   5.537   7.798   4.458 -0.5060  2.6040 -0.1195
  199DOPC  H13S24699   5.605   7.915   4.569  1.6484 -0.7518 -0.6813
  199DOPC  C21424700   5.451   7.790   4.659  0.4838 -0.0937 -0.3210
  199DOPC  H14R24701   5.498   7.816   4.756  1.6651 -1.0059 -0.6200
  199DOPC  H14S24702   5.429   7.681   4.650  1.5366 -0.2815 -0.7610
  199DOPC  C21524703   5.327   7.887   4.644 -0.1338  0.3759 -0.1234
  199DOPC  H15R24704   5.301   7.881   4.536 -0.2615  3.9905 -0.4320
  199DOPC  H15S24705   5.374   7.984   4.672 -1.0208  0.5425  0.8174
  199DOPC  C21624706   5.212   7.846   4.736 -0.3540  0.1455 -0.0646
  199DOPC  H16R24707   5.178   7.935   4.794 -1.4198 -0.5637  0.4249
  199DOPC  H16S24708   5.257   7.782   4.815 -0.3863 -0.4644 -0.5320
  199DOPC  C21724709   5.092   7.791   4.663 -0.0584  0.0616  0.7084
  199DOPC  H17R24710   5.149   7.737   4.584 -0.9569  0.8974 -0.5431
  199DOPC  H17S24711   5.037   7.877   4.619  0.4082  0.2087  0.4023
  199DOPC  C21824712   4.992   7.704   4.738 -0.8473  0.5232  0.0777
  199DOPC  H18R24713   4.957   7.768   4.822 -2.2055  0.0044 -0.0680
  199DOPC  H18S24714   5.038   7.609   4.773 -0.5588  0.3275 -0.8247
  199DOPC  H18T24715   4.905   7.680   4.673 -0.7822 -0.2389  0.2546
  199DOPC   C3324716   5.228   7.250   3.966 -0.7756  0.1671 -0.0481
  199DOPC   H3X24717   5.161   7.253   3.877 -0.9607 -1.1845  0.0306
  199DOPC   H3Y24718   5.180   7.303   4.051  0.8042  0.1234  0.9267
  199DOPC   C3424719   5.241   7.106   4.013  0.5345  0.4339  0.1199
  199DOPC   H4X24720   5.267   7.116   4.121  0.1812  2.0515  0.0746
  199DOPC   H4Y24721   5.312   7.052   3.947  0.7820  0.4023  0.4072
  199DOPC   C3524722   5.105   7.031   4.007  0.3125  0.1301 -0.8532
  199DOPC   H5X24723   5.068   7.036   3.902 -0.7619  0.0949 -0.4924
  199DOPC   H5Y24724   5.030   7.086   4.068 -0.8185 -1.8531 -0.3659
  199DOPC   C3624725   5.118   6.883   4.044  0.1638 -0.8730  0.3399
  199DOPC   H6X24726   5.193   6.845   3.972 -0.4224 -1.2593 -0.0769
  199DOPC   H6Y24727   5.165   6.868   4.143  0.3357 -3.9352 -0.1034
  199DOPC   C3724728   4.993   6.796   4.013 -0.1138  0.4643 -0.3845
  199DOPC   H7X24729   4.970   6.799   3.905  0.2577  1.0338 -0.4500
  199DOPC   H7Y24730   5.024   6.692   4.035 -0.9524  0.6162  1.8501
  199DOPC   C3824731   4.864   6.844   4.087  1.2264 -0.4353  0.0311
  199DOPC   H8X24732   4.832   6.948   4.065 -0.8880 -0.9084  0.6894
  199DOPC   H8Y24733   4.884   6.853   4.196  1.1878  0.0415 -0.0001
  199DOPC   C3924734   4.752   6.749   4.058 -0.3654 -0.2071  0.3312
  199DOPC   H9X24735   4.685   6.783   3.977  0.9848 -1.3132 -1.3193
  199DOPC  C31024736   4.729   6.631   4.120 -0.6376 -0.0838 -0.9575
  199DOPC  H10X24737   4.638   6.573   4.099  0.1721 -2.7765  1.9928
  199DOPC  C31124738   4.821   6.575   4.224  0.0109  0.2704  0.4502
  199DOPC  H11X24739   4.926   6.592   4.193  0.1214 -0.9949  0.0912
  199DOPC  H11Y24740   4.805   6.466   4.218 -1.6461  0.5296 -0.8488
  199DOPC  C31224741   4.802   6.620   4.371 -0.3465 -0.2547  0.5152
  199DOPC  H12X24742   4.806   6.731   4.370  0.9435 -0.2845 -0.3212
  199DOPC  H12Y24743   4.899   6.583   4.410  1.2217  1.9363 -1.0702
  199DOPC  C31324744   4.677   6.571   4.447 -0.7534 -0.1660  0.4482
  199DOPC  H13X24745   4.589   6.582   4.381 -1.1894 -1.4322  0.7952
  199DOPC  H13Y24746   4.693   6.462   4.465 -0.3947 -0.5773 -1.9974
  199DOPC  C31424747   4.644   6.639   4.580 -0.1895  0.7299 -0.1682
  199DOPC  H14X24748   4.726   6.612   4.649 -1.2442 -1.8837  0.1819
  199DOPC  H14Y24749   4.645   6.748   4.557  2.5980  0.4321 -1.8634
  199DOPC  C31524750   4.518   6.581   4.636  0.3474  0.5237 -0.9353
  199DOPC  H15X24751   4.544   6.477   4.668  0.9577  0.9823  0.0848
  199DOPC  H15Y24752   4.443   6.568   4.555 -0.4805  1.1544 -0.2765
  199DOPC  C31624753   4.483   6.652   4.765 -0.3219 -0.5983 -0.5664
  199DOPC  H16X24754   4.570   6.651   4.834 -0.9241 -0.5797  0.2220
  199DOPC  H16Y24755   4.459   6.758   4.742  0.4314 -0.6067 -1.4054
  199DOPC  C31724756   4.361   6.590   4.828 -0.0890 -0.1543 -0.0353
  199DOPC  H17X24757   4.265   6.608   4.775 -1.2314  0.8004  2.2276
  199DOPC  H17Y24758   4.377   6.480   4.825 -0.1228 -0.2716  2.1893
  199DOPC  C31824759   4.337   6.623   4.974  0.7771 -0.4435 -0.5152
  199DOPC  H18X24760   4.427   6.599   5.035  0.8175 -2.2814 -1.2475
  199DOPC  H18Y24761   4.310   6.730   4.984 -0.0391 -0.7990  1.8067
  199DOPC  H18Z24762   4.250   6.563   5.010 -0.4519  2.3883  1.6303
  200DOPC     N24763   1.899   0.736   2.865  0.0019 -0.0441  0.2587
  200DOPC   C1224764   1.954   0.604   2.910  0.1547  0.4480  0.3719
  200DOPC  H12A24765   2.039   0.626   2.973 -0.5359 -0.0775  1.5256
  200DOPC  H12B24766   2.001   0.556   2.826  1.6206  2.2136  0.1152
  200DOPC   C1324767   1.807   0.794   2.960  0.0527  0.1307  0.4014
  200DOPC  H13A24768   1.859   0.816   3.052 -1.1389  0.3343  1.0403
  200DOPC  H13B24769   1.780   0.883   2.904 -2.1702 -1.4005 -1.1525
  200DOPC  H13C24770   1.717   0.736   2.971  0.1110  0.1187  0.8137
  200DOPC   C1424771   1.830   0.718   2.733 -0.0273 -0.0635  0.3936
  200DOPC  H14A24772   1.761   0.635   2.736 -0.1654  0.0664  2.5518
  200DOPC  H14B24773   1.788   0.814   2.708  0.2077  0.5021  2.0625
  200DOPC  H14C24774   1.902   0.698   2.655  1.8359 -2.9645  2.6271
  200DOPC   C1524775   2.007   0.832   2.838 -0.7739  0.0256  0.3570
  200DOPC  H15A24776   2.076   0.796   2.762 -1.2197  0.4775 -0.2742
  200DOPC  H15B24777   2.051   0.873   2.928 -1.9131  2.3180 -0.0555
  200DOPC  H15C24778   1.969   0.921   2.790 -1.5227  0.3137  1.4703
  200DOPC   C1124779   1.850   0.509   2.967  0.2517  0.5262 -0.7800
  200DOPC  H11A24780   1.901   0.415   2.999  0.1257  0.5045 -0.6441
  200DOPC  H11B24781   1.815   0.553   3.063  1.1149 -3.4760  1.5916
  200DOPC     P24782   1.749   0.363   2.780  0.0695 -0.1333  0.4236
  200DOPC   O1324783   1.884   0.359   2.718  0.4395 -0.1882 -0.0590
  200DOPC   O1424784   1.627   0.368   2.693  0.0050  0.7648  0.1895
  200DOPC   O1224785   1.739   0.476   2.883  0.0248 -0.0845  0.2911
  200DOPC   O1124786   1.729   0.236   2.868  0.3074  0.1518 -0.0231
  200DOPC    C124787   1.605   0.220   2.945  0.1713  0.2044  0.0704
  200DOPC    HA24788   1.584   0.112   2.961  0.5016  0.3964  2.0386
  200DOPC    HB24789   1.514   0.261   2.895  0.0799 -1.5100 -1.2734
  200DOPC    C224790   1.593   0.278   3.087 -0.5648  0.6368 -0.3416
  200DOPC    HS24791   1.605   0.388   3.087  0.6035  0.5256  0.1909
  200DOPC   O2124792   1.698   0.224   3.170  0.1321  0.0818  0.4448
  200DOPC   C2124793   1.752   0.300   3.261 -1.0745 -0.9520  0.6050
  200DOPC   O2224794   1.732   0.419   3.274 -0.9251  0.1021 -0.8820
  200DOPC   C2224795   1.852   0.221   3.343  0.3313 -0.3735 -0.2911
  200DOPC   H2R24796   1.953   0.243   3.302  0.6424 -2.3542 -0.6559
  200DOPC   H2S24797   1.819   0.115   3.343 -1.1167  0.0411  0.8578
  200DOPC    C324798   1.452   0.244   3.149 -0.2178  0.3647 -0.1121
  200DOPC    HX24799   1.434   0.135   3.136  1.9842  0.0304 -0.8437
  200DOPC    HY24800   1.380   0.311   3.098  0.9003  0.6925 -1.3267
  200DOPC   O3124801   1.453   0.260   3.290 -0.4338 -0.6431  0.5486
  200DOPC   C3124802   1.334   0.258   3.347  0.0239  1.1525  0.2780
  200DOPC   O3224803   1.229   0.240   3.286 -0.3137 -0.1454  0.1639
  200DOPC   C3224804   1.349   0.262   3.494 -0.4878 -0.1645  0.6237
  200DOPC   H2X24805   1.355   0.155   3.523 -0.4143 -0.1104  0.8112
  200DOPC   H2Y24806   1.446   0.306   3.526  0.1302 -0.2633 -0.9973
  200DOPC   C2324807   1.861   0.267   3.489 -0.9459 -0.2612  0.3525
  200DOPC   H3R24808   1.911   0.365   3.504 -0.8915 -0.2336 -0.0046
  200DOPC   H3S24809   1.933   0.200   3.541 -0.2590  1.9992  2.5496
  200DOPC   C2424810   1.726   0.270   3.561  0.4301  0.0555  0.4911
  200DOPC   H4R24811   1.670   0.189   3.509  0.5306 -0.3812  1.0585
  200DOPC   H4S24812   1.676   0.367   3.536 -0.5914 -0.7187 -0.6225
  200DOPC   C2524813   1.746   0.227   3.710  0.8303 -0.0975  0.6930
  200DOPC   H5R24814   1.802   0.307   3.763 -1.7718  1.4878  1.2451
  200DOPC   H5S24815   1.797   0.128   3.704  1.5043  0.3358 -1.2471
  200DOPC   C2624816   1.613   0.197   3.783 -0.5502  0.7082 -0.0859
  200DOPC   H6R24817   1.563   0.117   3.724  0.5275 -0.5831  0.6930
  200DOPC   H6S24818   1.544   0.284   3.780 -1.7677 -0.2270  0.0474
  200DOPC   C2724819   1.644   0.152   3.925 -0.1993  0.0581  0.4780
  200DOPC   H7R24820   1.666   0.246   3.980 -2.5242  0.4225  0.8814
  200DOPC   H7S24821   1.730   0.081   3.918 -0.5040 -0.2592 -0.0699
  200DOPC   C2824822   1.529   0.091   4.006 -0.1333  0.0147 -0.5132
  200DOPC   H8R24823   1.501   0.002   3.945 -1.9706  0.6299 -0.6211
  200DOPC   H8S24824   1.450   0.168   3.997  1.6698  1.9994 -0.1153
  200DOPC   C2924825   1.572   0.064   4.146 -0.6263  0.1640 -0.0129
  200DOPC   H9R24826   1.677   0.031   4.153 -0.5060  0.6671  0.6449
  200DOPC  C21024827   1.500   0.078   4.257  0.7221  0.2175  0.2605
  200DOPC  H10R24828   1.541   0.032   4.348 -0.9185 -2.4581 -0.2229
  200DOPC  C21124829   1.351   0.107   4.268  0.4120  0.3138  0.3395
  200DOPC  H11R24830   1.302   0.019   4.314 -3.2380  1.9318 -0.1077
  200DOPC  H11S24831   1.300   0.111   4.169  1.4228  1.6368 -0.1614
  200DOPC  C21224832   1.330   0.247   4.342  0.4004  0.1227 -1.1802
  200DOPC  H12R24833   1.222   0.273   4.337  0.4918  0.7042 -0.3570
  200DOPC  H12S24834   1.379   0.336   4.296 -1.9745  1.9730 -0.3443
  200DOPC  C21324835   1.379   0.245   4.494  0.3416  0.2572 -0.0703
  200DOPC  H13R24836   1.489   0.233   4.495  0.5836  1.4425 -2.6726
  200DOPC  H13S24837   1.337   0.157   4.547 -0.5382  0.2099 -0.8104
  200DOPC  C21424838   1.324   0.368   4.570  0.3595  0.0933 -0.6622
  200DOPC  H14R24839   1.213   0.363   4.578  0.0758 -1.2557 -3.8268
  200DOPC  H14S24840   1.340   0.467   4.522 -0.1444  0.9312  0.8130
  200DOPC  C21524841   1.401   0.379   4.698  0.5869  0.0712 -0.5423
  200DOPC  H15R24842   1.505   0.405   4.668  0.1188 -0.3205 -2.6220
  200DOPC  H15S24843   1.401   0.274   4.736  0.2728  0.7300  1.3749
  200DOPC  C21624844   1.336   0.466   4.807  0.1385  0.5548  0.5371
  200DOPC  H16R24845   1.241   0.418   4.840  0.7044  0.2750  1.8236
  200DOPC  H16S24846   1.304   0.564   4.765  0.1356  0.4306  0.2505
  200DOPC  C21724847   1.422   0.470   4.936 -0.2220  0.7414  0.0058
  200DOPC  H17R24848   1.419   0.378   4.999  1.2214  0.8829  0.3225
  200DOPC  H17S24849   1.371   0.529   5.015  1.5336  0.9109  1.0780
  200DOPC  C21824850   1.564   0.521   4.912  0.0084 -0.1363  0.5361
  200DOPC  H18R24851   1.612   0.475   4.823 -0.9773  2.9869 -1.8229
  200DOPC  H18S24852   1.630   0.506   5.000  0.2481 -2.5452 -0.0036
  200DOPC  H18T24853   1.563   0.629   4.886 -2.7187  0.0149  1.0033
  200DOPC   C3324854   1.221   0.333   3.548  0.0878 -0.1602 -0.4033
  200DOPC   H3X24855   1.220   0.318   3.658  1.1803 -1.9271 -0.5811
  200DOPC   H3Y24856   1.125   0.296   3.507 -0.8518  0.5042  1.0989
  200DOPC   C3424857   1.241   0.485   3.532  0.0611  0.8541  0.9782
  200DOPC   H4X24858   1.257   0.518   3.427 -2.1348  0.8851  0.6018
  200DOPC   H4Y24859   1.337   0.502   3.584  1.1079 -3.2715  0.7886
  200DOPC   C3524860   1.109   0.558   3.581  0.0412  0.7385 -0.2453
  200DOPC   H5X24861   1.084   0.519   3.682  1.9591  1.2446  0.4788
  200DOPC   H5Y24862   1.022   0.532   3.519  1.5741 -1.2154 -1.6949
  200DOPC   C3624863   1.119   0.705   3.588 -0.0697  0.3013  0.2266
  200DOPC   H6X24864   1.144   0.756   3.492  0.3150  0.3786  0.3675
  200DOPC   H6Y24865   1.028   0.743   3.640 -1.2141 -1.2171 -0.6025
  200DOPC   C3724866   1.219   0.753   3.698  0.1160 -0.2677 -0.2432
  200DOPC   H7X24867   1.199   0.700   3.794 -0.6868 -3.0572 -1.8642
  200DOPC   H7Y24868   1.323   0.725   3.670  0.2247 -1.7038  1.4102
  200DOPC   C3824869   1.231   0.912   3.701 -0.2993 -0.1880  0.0160
  200DOPC   H8X24870   1.244   0.951   3.597  0.7843 -0.5939 -0.0142
  200DOPC   H8Y24871   1.325   0.931   3.756  0.1774  1.0215 -1.1627
  200DOPC   C3924872   1.109   0.973   3.763  0.6018  0.1898 -0.0352
  200DOPC   H9X24873   1.031   1.015   3.699  0.9493  1.2706  0.2166
  200DOPC  C31024874   1.091   1.006   3.896  0.5840 -0.1122  0.1558
  200DOPC  H10X24875   0.991   1.045   3.920 -0.4061 -1.6126 -1.3128
  200DOPC  C31124876   1.194   0.986   4.002 -0.2975  0.3417  0.3779
  200DOPC  H11X24877   1.248   1.081   4.025  1.3642 -0.1034 -1.4081
  200DOPC  H11Y24878   1.275   0.914   3.976  0.7150  1.5219  0.2070
  200DOPC  C31224879   1.122   0.937   4.130  0.5384  0.0484 -0.1435
  200DOPC  H12X24880   1.069   0.842   4.108  0.2268  0.7315 -2.5349
  200DOPC  H12Y24881   1.033   0.999   4.156 -0.3072 -0.6008 -1.4003
  200DOPC  C31324882   1.211   0.926   4.252 -0.2027  0.1963 -0.8626
  200DOPC  H13X24883   1.296   0.861   4.222  1.1231  1.4535  0.0375
  200DOPC  H13Y24884   1.245   1.026   4.285 -0.9281  0.5919 -1.3031
  200DOPC  C31424885   1.136   0.852   4.366  0.1285  0.5863  0.5865
  200DOPC  H14X24886   1.037   0.904   4.370 -0.2252  0.0103 -0.3516
  200DOPC  H14Y24887   1.112   0.748   4.332 -0.6566  0.4568  1.4995
  200DOPC  C31524888   1.210   0.847   4.496 -0.5588 -0.4307  0.2315
  200DOPC  H15X24889   1.306   0.795   4.472  1.1311  1.5883  2.2100
  200DOPC  H15Y24890   1.165   0.778   4.571  1.8939 -3.6092 -0.9725
  200DOPC  C31624891   1.241   0.988   4.561  0.0277  0.8672  0.7375
  200DOPC  H16X24892   1.296   0.974   4.657  2.1385 -2.6211 -0.7988
  200DOPC  H16Y24893   1.303   1.053   4.497  1.8919 -0.6708  0.8806
  200DOPC  C31724894   1.118   1.070   4.599 -0.2564  0.0547  0.6015
  200DOPC  H17X24895   1.146   1.164   4.651  0.0934 -0.2457  0.9635
  200DOPC  H17Y24896   1.071   1.092   4.501  0.1539 -0.0203  0.3889
  200DOPC  C31824897   1.023   1.010   4.700  0.5030 -0.5537 -0.2947
  200DOPC  H18X24898   0.985   0.916   4.654  1.5755 -0.8305 -0.6394
  200DOPC  H18Y24899   1.080   0.995   4.795 -0.8745  0.9687  0.8413
  200DOPC  H18Z24900   0.946   1.087   4.720  1.6132  1.1334 -2.0936
  201SOD    SOD24901   5.348   6.664   7.253  0.2942  0.3799 -0.1732
  202SOD    SOD24902   0.926   2.005   1.120 -0.6520  0.0100 -0.1765
  203SOD    SOD24903   3.163   6.556   7.898 -0.0222  0.3913 -0.2225
  204SOD    SOD24904   2.263   5.025   1.880  0.0911  0.2112  0.0175
  205SOD    SOD24905   4.199   3.212   8.119  0.4471 -0.0808 -0.6016
  206SOD    SOD24906   3.182   3.085   3.033 -0.2141  0.4719 -0.1913
  207SOD    SOD24907   5.464   3.815   1.665  0.0938 -0.5291 -0.2902
  208SOD    SOD24908   3.119   6.110   9.011  0.3320 -0.3636  0.4943
  209SOD    SOD24909   6.904   6.939   2.846 -0.0635  0.1418  0.3007
  210SOD    SOD24910   4.087   1.640   8.558  0.3113 -0.4024  0.4644
  211SOD    SOD24911   4.318   7.010   7.225  0.1468  0.1501 -0.5352
  212SOD    SOD24912   0.971   7.213   8.006 -0.4418  0.0927 -0.0263
  213SOD    SOD24913   5.973   2.941   1.741  0.1472 -0.2962 -0.5600
  214SOD    SOD24914   7.518   1.980   7.324  0.2183 -0.0964  0.5326
  215SOD    SOD24915   6.876   4.730   8.965  0.1972  0.3980 -0.0672
  216SOD    SOD24916   3.637   1.413   7.233  0.0596 -0.1815 -0.3609
  217SOD    SOD24917   3.694   4.166   1.190  0.3035 -0.1636  0.1682
  218SOD    SOD24918   2.784   4.882   9.510  0.1131  0.3322 -0.3414
  219SOD    SOD24919   5.193   1.933   6.935 -0.5048  0.2700 -0.3438
  220SOD    SOD24920   4.683   1.042   1.459  0.4408 -0.0786  0.0882
  221SOD    SOD24921   4.351   3.906   2.175  0.3084  0.3189 -0.1416
  222SOD    SOD24922   5.726   2.773   7.990 -0.3284  0.0733 -0.0583
  223SOD    SOD24923   3.747   2.660   2.105  0.0498 -0.7896  0.1333
  224SOD    SOD24924   6.999   4.994   1.743 -0.0864  0.3941 -0.2060
  225SOD    SOD24925   2.356   6.618   1.911  0.1992  0.0864  0.2498
  226SOD    SOD24926   1.461   3.026   7.492  0.1491 -0.1836 -0.0498
  227CLA    CLA24927   7.657   0.917   1.754  0.2605  0.3343  0.0520
  228CLA    CLA24928   4.007   2.322   2.247 -0.0230 -0.5854 -0.2316
  229CLA    CLA24929   7.161   4.971   2.697 -0.3682 -0.1978  0.0667
  230CLA    CLA24930   0.619   1.345   8.477 -0.3612  0.1590  0.0826
  231CLA    CLA24931   3.558   0.908   8.320 -0.4070 -0.1828  0.2277
  232CLA    CLA24932   1.546   6.732   7.865  0.2370 -0.3773  0.2174
  233CLA    CLA24933   1.297   6.936   8.736  0.1061 -0.0901 -0.0939
  234CLA    CLA24934   5.695   1.996   8.488  0.1587  0.1473  0.3073
  235CLA    CLA24935   0.417   5.484   2.757  0.2279  0.2997  0.0978
  236CLA    CLA24936   3.527   3.826   7.682 -0.1645 -0.0631 -0.1950
  237CLA    CLA24937   2.800   0.572   9.133 -0.1875  0.2465 -0.2269
  238CLA    CLA24938   4.607   4.808   1.391 -0.0775  0.0919 -0.0767
  239CLA    CLA24939   7.601   7.075   1.628 -0.0155 -0.1709  0.4088
  240CLA    CLA24940   7.166   1.685   7.709 -0.6862  0.1332  0.6457
  241CLA    CLA24941   3.758   7.425   2.414 -0.1183 -0.0883  0.6684
  242CLA    CLA24942   6.928   5.512   8.152 -0.5180 -0.0714 -0.3224
  243CLA    CLA24943   1.675   1.659   2.112  0.1565  0.1177  0.2826
  244CLA    CLA24944   6.400   3.669   1.615 -0.1957  0.0488 -0.1705
  245CLA    CLA24945   3.200   3.086   1.074 -0.0455  0.3781 -0.3350
  246CLA    CLA24946   1.636   4.407   8.895  0.2825  0.4209 -0.0526
  247CLA    CLA24947   3.109   5.994   1.532 -0.2839 -0.3559  0.5052
  248CLA    CLA24948   6.959   5.750   1.957  0.1914 -0.4804  0.3899
  249CLA    CLA24949   3.624   3.334   2.547 -0.1783 -0.0548  0.2471
  250CLA    CLA24950   1.730   5.180   8.303 -0.8323  0.4973 -0.6544
  251CLA    CLA24951   2.230   2.449   7.905  0.2975 -0.0488 -0.4240
  252CLA    CLA24952   5.289   0.256   2.380  0.1099 -0.2925  0.2494
  253TIP3   OH224953   4.434   5.040   8.201  0.1857 -0.1294 -0.1677
  253TIP3    H124954   4.502   5.052   8.134 -1.0860 -0.2064 -1.5146
  253TIP3    H224955   4.377   4.972   8.165 -0.1059 -0.7490  1.3746
  254TIP3   OH224956   7.206   0.786   7.312 -0.3956 -0.4081 -0.2256
  254TIP3    H124957   7.129   0.838   7.289  1.4626  2.4061 -0.6389
  254TIP3    H224958   7.254   0.839   7.376  1.0203 -2.2299  0.3392
  255TIP3   OH224959   5.269   0.026   8.658 -0.5789 -0.3792 -0.0383
  255TIP3    H124960   5.328   0.094   8.691  0.3996 -0.8932 -0.6973
  255TIP3    H224961   5.197   0.024   8.722  1.8326 -2.2207  2.8291
  256TIP3   OH224962   3.193   4.404   7.697 -0.5399  0.0306 -0.0475
  256TIP3    H124963   3.204   4.390   7.791 -0.6370  0.8998  0.1055
  256TIP3    H224964   3.275   4.444   7.669 -0.4322 -0.4239 -0.3732
  257TIP3   OH224965   5.811   6.279   9.330  0.1188 -0.0493  0.1352
  257TIP3    H124966   5.822   6.343   9.399  0.2381 -0.5327  0.5707
  257TIP3    H224967   5.898   6.273   9.288 -0.5043  1.9682 -1.6150
  258TIP3   OH224968   1.149   3.613   7.631 -0.5427 -0.1658  0.0896
  258TIP3    H124969   1.138   3.648   7.542 -0.2351  1.5860  0.6914
  258TIP3    H224970   1.225   3.661   7.666  1.0149 -2.6808  0.4398
  259TIP3   OH224971   5.025   6.090   7.204  0.1610 -0.2149 -0.2401
  259TIP3    H124972   5.034   6.089   7.300  2.3154 -0.0157 -0.3830
  259TIP3    H224973   5.062   6.006   7.176 -0.6535 -0.3645 -0.9191
  260TIP3   OH224974   0.417   2.836   9.081  0.6678 -0.7196  0.1258
  260TIP3    H124975   0.505   2.808   9.055  1.2784  0.5765  0.7139
  260TIP3    H224976   0.358   2.783   9.027  1.8071 -1.2231 -0.6637
  261TIP3   OH224977   1.523   0.549   8.058 -0.1300 -0.0486 -0.2951
  261TIP3    H124978   1.506   0.461   8.026  2.2226 -0.1679 -1.4726
  261TIP3    H224979   1.605   0.541   8.107 -1.0233  1.1050  1.4907
  262TIP3   OH224980   5.575   0.187   7.868  0.6315 -0.3303  0.1715
  262TIP3    H124981   5.508   0.149   7.925  0.0573  0.9567  0.3964
  262TIP3    H224982   5.525   0.242   7.807  1.3981 -0.2313 -0.3785
  263TIP3   OH224983   7.281   2.220   9.411 -0.2026  0.0622 -0.1023
  263TIP3    H124984   7.318   2.300   9.373 -0.4374 -0.6638 -1.9820
  263TIP3    H224985   7.356   2.160   9.418 -0.4916 -0.4820 -1.3601
  264TIP3   OH224986   2.285   3.700   8.416  0.1094  0.1861  0.0564
  264TIP3    H124987   2.251   3.773   8.363  0.9420 -1.9098 -3.7188
  264TIP3    H224988   2.380   3.708   8.409  0.3809  0.9882  3.1671
  265TIP3   OH224989   0.021   3.201   8.128 -0.2587 -0.0663  0.2242
  265TIP3    H124990  -0.026   3.216   8.210 -1.4592 -0.4925 -0.3590
  265TIP3    H224991   0.062   3.115   8.139 -1.6827 -0.8222 -0.1648
  266TIP3   OH224992   3.485   3.608   8.067  0.1945 -0.4235 -0.3668
  266TIP3    H124993   3.508   3.700   8.079 -0.8870 -0.1686 -0.1975
  266TIP3    H224994   3.532   3.562   8.138 -1.3457  0.3368  1.2209
  267TIP3   OH224995   0.170   5.832   7.503  0.3175 -0.2832 -0.3893
  267TIP3    H124996   0.184   5.855   7.595  0.3536 -0.6512 -0.2980
  267TIP3    H224997   0.219   5.897   7.454  0.5491 -0.2658 -0.1374
  268TIP3   OH224998   0.731   0.337   8.004 -0.2344 -0.4720  0.2589
  268TIP3    H124999   0.805   0.387   8.038 -0.5368  0.6168 -0.6423
  268TIP3    H225000   0.746   0.333   7.910  0.5680 -3.4225  0.4132
  269TIP3   OH225001   6.107   3.792   7.703 -0.2710 -0.8123  0.0630
  269TIP3    H125002   6.114   3.731   7.777 -0.5252 -0.7459  0.1432
  269TIP3    H225003   6.170   3.759   7.639  0.0621 -0.7814  0.3703
  270TIP3   OH225004   1.003   4.273   8.031  0.4108 -0.2920  0.4076
  270TIP3    H125005   0.998   4.319   8.115  0.3146  0.3324  0.0664
  270TIP3    H225006   1.018   4.342   7.966 -0.7372 -0.6147 -0.2337
  271TIP3   OH225007   1.847   0.069   8.419  0.1904  0.4111 -0.4130
  271TIP3    H125008   1.781   0.003   8.396 -0.7494  1.4262 -0.7548
  271TIP3    H225009   1.824   0.145   8.364  0.8033  1.2577  0.4766
  272TIP3   OH225010   0.768   5.176   8.573 -0.4699 -0.4700  0.2092
  272TIP3    H125011   0.817   5.096   8.555 -1.5832 -0.7979 -1.6329
  272TIP3    H225012   0.706   5.152   8.642  1.6320 -0.1270  2.3511
  273TIP3   OH225013   1.488   4.885   8.967  0.1414 -0.4733 -0.2073
  273TIP3    H125014   1.540   4.847   8.896 -0.6709 -1.0615 -0.5077
  273TIP3    H225015   1.552   4.910   9.033  0.7654 -1.7267 -0.3140
  274TIP3   OH225016   3.342   1.668   8.013 -0.2839 -0.1201 -0.1752
  274TIP3    H125017   3.437   1.678   8.003 -0.2860 -0.8027 -0.9019
  274TIP3    H225018   3.307   1.752   7.984 -0.0268 -0.6408 -2.0827
  275TIP3   OH225019   1.246   0.959   7.577  0.6508 -0.0084 -0.8558
  275TIP3    H125020   1.330   0.913   7.585  0.2743 -0.7511 -1.1208
  275TIP3    H225021   1.271   1.051   7.566  1.4020 -0.1024 -0.0608
  276TIP3   OH225022   1.409   6.825   8.280 -0.3318  0.1812  0.3233
  276TIP3    H125023   1.469   6.787   8.344  0.0637  1.4814  0.7601
  276TIP3    H225024   1.366   6.897   8.327 -1.0722  0.2728 -0.4609
  277TIP3   OH225025   2.809   0.490   8.039  0.5231  0.4786 -0.0560
  277TIP3    H125026   2.870   0.431   7.995  0.9843  0.4782  0.5692
  277TIP3    H225027   2.773   0.438   8.111  0.8017  0.8915  0.3918
  278TIP3   OH225028   6.890   1.498   8.150  0.1251 -0.0337 -0.0657
  278TIP3    H125029   6.939   1.545   8.217 -1.0685  2.2887 -0.7129
  278TIP3    H225030   6.954   1.483   8.080  1.2981 -2.2037  1.3676
  279TIP3   OH225031   2.578   1.338   8.764  0.3331 -0.3314  0.1165
  279TIP3    H125032   2.598   1.262   8.819 -3.6961 -2.0427 -0.4328
  279TIP3    H225033   2.558   1.408   8.827  1.7704 -0.3690  0.6560
  280TIP3   OH225034   6.111   4.605   7.444 -1.1115 -0.3865  0.2138
  280TIP3    H125035   6.055   4.545   7.395  0.5803  0.1056 -2.5220
  280TIP3    H225036   6.092   4.691   7.407 -0.4743  0.1682  1.1316
  281TIP3   OH225037   1.615   3.558   8.818 -0.1724  0.6100  0.5047
  281TIP3    H125038   1.646   3.566   8.908 -1.0594  2.7863  0.6920
  281TIP3    H225039   1.625   3.646   8.781 -4.1736  1.0964  0.0319
  282TIP3   OH225040   3.907   3.879   7.441  0.3597  0.2354 -0.0538
  282TIP3    H125041   3.899   3.821   7.517 -0.0366  0.1253 -0.1817
  282TIP3    H225042   3.977   3.841   7.388  0.2125 -0.0288 -0.0542
  283TIP3   OH225043   0.659   1.768   8.098 -0.1622  0.2749 -0.5725
  283TIP3    H125044   0.616   1.751   8.182  0.1384  0.6614 -0.3328
  283TIP3    H225045   0.753   1.761   8.118 -0.1100 -0.9212 -1.1664
  284TIP3   OH225046   7.122   1.307   2.719 -0.6133 -0.3761 -0.4857
  284TIP3    H125047   7.054   1.293   2.786  0.1943 -1.8517  0.0761
  284TIP3    H225048   7.189   1.358   2.763  0.8335 -2.9729  0.5685
  285TIP3   OH225049   1.472   5.341   0.790  0.1994 -0.0866 -0.4688
  285TIP3    H125050   1.454   5.251   0.818 -0.4100  0.5835  1.5487
  285TIP3    H225051   1.500   5.385   0.871 -1.2291  1.9341 -0.9950
  286TIP3   OH225052   1.176   5.178   1.556 -0.9630  0.4761  0.1148
  286TIP3    H125053   1.249   5.217   1.605 -0.6592 -0.5801  0.5517
  286TIP3    H225054   1.102   5.236   1.573 -0.1987  1.6739 -0.4815
  287TIP3   OH225055   4.294   5.521   2.577 -0.0115 -0.0262  0.1061
  287TIP3    H125056   4.283   5.537   2.670 -0.4317  0.9828 -0.0999
  287TIP3    H225057   4.387   5.502   2.567  0.2726  1.0306  0.5872
  288TIP3   OH225058   3.220   4.048   1.088  0.6957 -0.1277 -0.0581
  288TIP3    H125059   3.309   4.013   1.092  1.0517  0.7106 -0.4474
  288TIP3    H225060   3.173   3.985   1.034  0.4343 -1.8150  1.9689
  289TIP3   OH225061   1.809   4.850   2.037  0.3051  0.0386 -0.0390
  289TIP3    H125062   1.817   4.757   2.060  0.5122  0.6240  2.5199
  289TIP3    H225063   1.716   4.862   2.017 -0.1019 -0.3551  1.4988
  290TIP3   OH225064   6.723   0.733   2.767 -0.2436  0.4034  0.2609
  290TIP3    H125065   6.706   0.677   2.842  0.3679  0.7776  0.6904
  290TIP3    H225066   6.639   0.774   2.748 -0.9229 -1.2967 -0.6259
  291TIP3   OH225067   0.174   2.797   1.887 -0.3623  0.2015 -0.2188
  291TIP3    H125068   0.219   2.713   1.880  0.1489  0.3469  1.0258
  291TIP3    H225069   0.240   2.862   1.864 -0.3446  0.3388  0.2149
  292TIP3   OH225070   1.233   7.203   1.273 -0.5295  0.2683  0.0952
  292TIP3    H125071   1.150   7.182   1.316 -1.0120 -0.4551 -1.1296
  292TIP3    H225072   1.241   7.137   1.204  2.5534 -1.6188  2.0264
  293TIP3   OH225073   0.461   3.594   1.244 -0.7133 -0.1666  0.4654
  293TIP3    H125074   0.389   3.648   1.213 -1.6298 -2.3667 -1.5729
  293TIP3    H225075   0.450   3.510   1.198  4.6548  0.1814 -2.2590
  294TIP3   OH225076   6.886   6.923   2.604 -0.6264  0.1009  0.2838
  294TIP3    H125077   6.909   6.853   2.543  0.4550  0.3389  0.3973
  294TIP3    H225078   6.899   7.004   2.554 -0.5611  0.2672  0.5669
  295TIP3   OH225079   3.617   1.326   1.596  0.1296  0.4651 -0.2993
  295TIP3    H125080   3.566   1.245   1.595  0.2200  0.4021  0.0091
  295TIP3    H225081   3.603   1.361   1.684  2.4281 -0.7160  0.6306
  296TIP3   OH225082   1.731   2.744   1.136 -0.7855 -0.0531  0.4454
  296TIP3    H125083   1.701   2.833   1.152 -0.9700 -0.2422  1.1837
  296TIP3    H225084   1.796   2.753   1.066 -0.3327  0.7453  0.9506
  297TIP3   OH225085   2.778   1.963   2.227  0.2521 -0.0156 -0.1613
  297TIP3    H125086   2.776   1.982   2.320 -2.7311 -2.1992  0.3976
  297TIP3    H225087   2.776   2.048   2.184  2.3261  1.0479  1.6852
  298TIP3   OH225088   2.527   3.818   2.650  0.6919  0.0358 -0.6922
  298TIP3    H125089   2.552   3.756   2.718 -1.7744  0.8985  1.1287
  298TIP3    H225090   2.600   3.881   2.647  0.9076 -0.0962  1.0606
  299TIP3   OH225091   2.050   0.508   1.301  0.8326  0.0204 -0.1586
  299TIP3    H125092   2.101   0.518   1.221  0.7661  0.0567 -0.1970
  299TIP3    H225093   2.079   0.425   1.339 -0.7012 -1.1087 -1.3528
  300TIP3   OH225094   4.315   4.528   2.000  0.4363 -0.0038 -0.9585
  300TIP3    H125095   4.266   4.610   1.995  0.8479  0.4243  1.1127
  300TIP3    H225096   4.364   4.524   1.917  0.6211  1.9984 -0.9925
  301TIP3   OH225097   1.577   3.960   0.736  0.2991  0.1333 -0.3660
  301TIP3    H125098   1.620   3.938   0.654  0.4607 -0.3303 -0.1641
  301TIP3    H225099   1.645   3.949   0.802  0.3448  1.1437 -0.2395
  302TIP3   OH225100   0.248   4.620   2.463  0.5929  0.0544 -0.0650
  302TIP3    H125101   0.271   4.532   2.494  2.1464 -0.8009 -3.2079
  302TIP3    H225102   0.156   4.629   2.484 -0.1673 -3.2122 -1.3069
  303TIP3   OH225103   3.123   6.826   3.044 -0.1291 -0.2267 -0.0447
  303TIP3    H125104   3.193   6.763   3.060  0.5401  0.1970 -1.2090
  303TIP3    H225105   3.097   6.856   3.131  0.2181 -1.3685  0.4656
  304TIP3   OH225106   6.025   7.034   1.200 -0.4254  0.3147  0.9101
  304TIP3    H125107   6.096   7.018   1.139  0.1823 -0.8401  1.8938
  304TIP3    H225108   6.010   7.129   1.195  0.0081  0.3297 -0.5548
  305TIP3   OH225109   5.020   6.459   1.737 -0.0057 -0.8995  0.4709
  305TIP3    H125110   4.938   6.509   1.735  0.2451 -0.4494  1.1925
  305TIP3    H225111   5.088   6.525   1.724  0.2177 -1.3936 -1.1024
  306TIP3   OH225112   0.776   7.101   1.316  0.0755  0.3167  0.6558
  306TIP3    H125113   0.839   7.053   1.369  0.0571 -0.2747  0.1522
  306TIP3    H225114   0.705   7.039   1.301  0.6646  0.0159 -1.1468
  307TIP3   OH225115   7.372   6.210   2.769 -0.3470  0.3505  0.0096
  307TIP3    H125116   7.441   6.252   2.821 -2.1797  2.2231  1.0853
  307TIP3    H225117   7.321   6.160   2.832  0.1360 -1.2773 -0.8293
  308TIP3   OH225118   4.356   6.201   0.590  0.0409 -0.1909  0.6030
  308TIP3    H125119   4.403   6.261   0.648 -0.9073  0.6188  0.5490
  308TIP3    H225120   4.399   6.209   0.505 -0.8138  1.3242  0.2846
  309TIP3   OH225121   7.153   5.306   0.466  0.2288 -0.5831 -0.3396
  309TIP3    H125122   7.149   5.267   0.553  1.8374  1.3140  0.6584
  309TIP3    H225123   7.063   5.300   0.433 -1.0121  0.7980  2.4643
  310TIP3   OH225124   2.227   0.324   2.089 -0.5206 -0.0798  0.6198
  310TIP3    H125125   2.177   0.380   2.030  1.0404 -0.5013 -1.1959
  310TIP3    H225126   2.186   0.238   2.082  0.0601 -0.2921 -0.4314
  311TIP3   OH225127   3.182   3.311   1.798 -0.2180 -0.2323  0.0487
  311TIP3    H125128   3.258   3.265   1.833  0.3469  0.1378 -0.6721
  311TIP3    H225129   3.160   3.264   1.718 -1.0645 -0.6376  0.5035
  312TIP3   OH225130   0.562   6.254   2.579  0.3765  0.2523  0.2220
  312TIP3    H125131   0.562   6.350   2.579  0.3863  0.2960  2.2402
  312TIP3    H225132   0.478   6.231   2.618  0.4681 -0.5691 -0.0623
  313TIP3   OH225133   4.147   3.065   2.782 -0.7788  0.0473  0.0589
  313TIP3    H125134   4.238   3.053   2.811 -0.5929  0.4927 -0.3119
  313TIP3    H225135   4.109   3.123   2.848 -1.0023 -0.6995  0.5937
  314TIP3   OH225136   2.612   1.041   2.760  0.7227  0.7968 -0.7981
  314TIP3    H125137   2.659   1.120   2.787  1.1630  0.7588 -1.4399
  314TIP3    H225138   2.534   1.040   2.815  0.9627  1.4104 -0.4351
  315TIP3   OH225139   5.324   4.577   0.716 -0.0479  0.4499  0.3828
  315TIP3    H125140   5.351   4.631   0.790  1.3818 -0.5820  0.6407
  315TIP3    H225141   5.320   4.488   0.751 -0.2768  0.0780 -0.5586
  316TIP3   OH225142   5.422   3.405   1.157  0.4027 -0.4703  0.3087
  316TIP3    H125143   5.438   3.318   1.193 -0.5758  0.1217  2.3112
  316TIP3    H225144   5.386   3.455   1.230  2.4391  2.1060 -0.2931
  317TIP3   OH225145   2.786   2.025   2.504  0.9700  0.2320 -0.7013
  317TIP3    H125146   2.857   2.049   2.564  1.4423 -0.3938 -1.0057
  317TIP3    H225147   2.712   2.007   2.562  1.2281  0.2906 -0.3451
  318TIP3   OH225148   6.832   0.653   1.257  0.0415  0.0069  0.0987
  318TIP3    H125149   6.906   0.643   1.317 -0.8950  0.2616  1.3397
  318TIP3    H225150   6.769   0.704   1.306 -1.2606 -0.8166 -0.6657
  319TIP3   OH225151   6.333   3.131   0.864 -0.4424 -0.0050  0.1820
  319TIP3    H125152   6.256   3.184   0.884  0.7731  1.7950  0.2834
  319TIP3    H225153   6.408   3.187   0.886  0.9178 -1.7404  0.2130
  320TIP3   OH225154   6.541   7.193   0.599 -0.3049 -0.0099  0.8999
  320TIP3    H125155   6.459   7.176   0.553  0.5585  1.0025 -1.1505
  320TIP3    H225156   6.515   7.223   0.686 -2.1529  1.5785 -0.1513
  321TIP3   OH225157   6.952   3.060   2.992  0.4059 -0.3660 -0.3446
  321TIP3    H125158   6.861   3.031   2.998  0.1757  0.4969  0.5974
  321TIP3    H225159   7.002   2.993   3.040  0.4555 -1.4983 -1.8919
  322TIP3   OH225160   1.327   4.701   2.224  0.8624 -0.0007  0.0045
  322TIP3    H125161   1.400   4.663   2.175 -0.0515  0.5822 -1.9311
  322TIP3    H225162   1.253   4.697   2.164 -0.2736  1.0283  1.2608
  323TIP3   OH225163   0.876   4.954   8.452 -0.1829 -0.3850  0.1193
  323TIP3    H125164   0.819   4.984   8.381 -0.2441 -0.9931 -0.0933
  323TIP3    H225165   0.900   4.865   8.428  1.5572  0.1300 -0.2222
  324TIP3   OH225166   5.998   1.240   8.972  0.2116 -0.1960  0.5742
  324TIP3    H125167   5.999   1.195   8.887 -0.7790  0.7761  0.0161
  324TIP3    H225168   6.000   1.333   8.950  0.7847  0.0620  1.6567
  325TIP3   OH225169   6.918   3.013   9.329 -0.0261 -0.3469 -0.3373
  325TIP3    H125170   6.973   3.011   9.251  1.3828 -1.0183  0.6301
  325TIP3    H225171   6.850   2.948   9.312  1.8567 -2.5186  0.0715
  326TIP3   OH225172   6.888   3.833   8.666 -0.1184  0.1438 -0.2229
  326TIP3    H125173   6.953   3.812   8.599  0.8985 -0.0187  0.7809
  326TIP3    H225174   6.882   3.929   8.664  1.1280  0.2728  0.5094
  327TIP3   OH225175   1.867   6.289   8.676 -0.5681 -0.2226  0.5454
  327TIP3    H125176   1.956   6.257   8.660 -0.5369 -0.8016  1.7353
  327TIP3    H225177   1.861   6.369   8.625  0.3097 -0.6743 -0.3139
  328TIP3   OH225178   2.776   7.383   7.904 -0.0096  0.2001 -0.1761
  328TIP3    H125179   2.709   7.378   7.836 -0.8057  3.3775  0.2172
  328TIP3    H225180   2.734   7.345   7.981 -0.0336 -1.0566 -0.7885
  329TIP3   OH225181   3.905   1.302   9.082 -0.4256  0.0759  0.2812
  329TIP3    H125182   3.849   1.375   9.106  1.9249  1.5851  1.5910
  329TIP3    H225183   3.991   1.324   9.119  0.8478 -2.4906 -0.8538
  330TIP3   OH225184   6.136   0.660   7.933  0.2780  0.4119 -0.0549
  330TIP3    H125185   6.167   0.707   8.011  0.4123  2.0419 -1.0428
  330TIP3    H225186   6.041   0.677   7.932  0.2555  0.2732 -0.1655
  331TIP3   OH225187   6.093   5.715   7.717 -0.2951 -0.0031  0.3485
  331TIP3    H125188   6.148   5.660   7.773  0.2337  0.3197  0.1462
  331TIP3    H225189   6.078   5.794   7.769 -0.1277  0.1323  0.1905
  332TIP3   OH225190   3.998   4.426   8.091  0.5515 -0.1582 -0.0639
  332TIP3    H125191   3.918   4.469   8.064  0.7130  0.8879  1.0140
  332TIP3    H225192   3.977   4.333   8.091 -1.0089  0.1514  1.2149
  333TIP3   OH225193   2.459   3.029   9.411 -0.4608  0.2456 -0.2156
  333TIP3    H125194   2.490   2.947   9.450 -1.8642 -0.5233 -0.6589
  333TIP3    H225195   2.376   3.046   9.454 -0.4706  1.1163 -0.5651
  334TIP3   OH225196   1.211   0.676   6.899 -0.1044  0.5179 -0.0744
  334TIP3    H125197   1.117   0.672   6.885  0.0164 -0.5533 -0.6831
  334TIP3    H225198   1.226   0.764   6.933 -1.5371  0.0975  1.7847
  335TIP3   OH225199   2.547   3.728   8.131 -0.1413  0.7860 -0.2180
  335TIP3    H125200   2.486   3.801   8.144 -0.7029  0.2262  0.3438
  335TIP3    H225201   2.623   3.750   8.184  0.4929  1.8445 -1.4870
  336TIP3   OH225202   3.998   0.303   8.355 -0.8462 -0.0862 -0.1999
  336TIP3    H125203   4.091   0.305   8.378 -0.7990  1.7696 -0.3716
  336TIP3    H225204   3.953   0.339   8.432 -1.4444 -1.0280 -0.0891
  337TIP3   OH225205   0.097   1.869   8.994 -0.2336  0.3010  0.0592
  337TIP3    H125206   0.131   1.881   8.905 -0.2764 -1.1579 -0.1690
  337TIP3    H225207   0.051   1.951   9.013 -0.9536  0.2971 -1.5868
  338TIP3   OH225208   2.889   3.504   9.202 -0.1306  0.2100  0.5799
  338TIP3    H125209   2.902   3.433   9.139 -0.3282  0.9916 -0.3659
  338TIP3    H225210   2.853   3.461   9.280 -2.4215 -0.4521 -0.7668
  339TIP3   OH225211   6.204   6.103   8.691  0.5465 -0.2533 -0.2698
  339TIP3    H125212   6.213   6.064   8.604 -1.9613 -0.6487 -0.4320
  339TIP3    H225213   6.193   6.028   8.749  1.4438  0.0405  0.2956
  340TIP3   OH225214   2.166   2.169   8.607  0.0586 -0.3388 -0.5624
  340TIP3    H125215   2.097   2.106   8.588  0.0651 -0.1216 -1.3192
  340TIP3    H225216   2.190   2.206   8.522 -0.4139  1.1774 -0.0765
  341TIP3   OH225217   7.209   6.457   8.721  0.5935 -0.8346 -0.0528
  341TIP3    H125218   7.241   6.367   8.734 -1.5383 -1.4868  1.1940
  341TIP3    H225219   7.282   6.513   8.749  0.7997 -2.2094  2.4314
  342TIP3   OH225220   0.471   4.229   8.549  0.0273  0.3027  1.0023
  342TIP3    H125221   0.565   4.220   8.561 -0.0005 -1.5533  0.1549
  342TIP3    H225222   0.458   4.321   8.529  1.5408  0.7766  1.9962
  343TIP3   OH225223   3.952   0.449   9.701 -0.0791  0.2860 -0.0658
  343TIP3    H125224   3.893   0.524   9.696 -0.2048  0.2398  0.5712
  343TIP3    H225225   4.010   0.459   9.625 -1.1553  0.1054 -0.9339
  344TIP3   OH225226   5.771   2.562   7.844  0.3952 -0.0068  0.0321
  344TIP3    H125227   5.760   2.569   7.749 -1.6935 -2.6051 -0.0533
  344TIP3    H225228   5.818   2.479   7.856 -1.0035 -0.6732  1.2496
  345TIP3   OH225229   1.067   7.159   8.700 -0.3591  0.0849  0.5876
  345TIP3    H125230   1.119   7.085   8.734 -0.9012 -1.0486 -0.9181
  345TIP3    H225231   1.132   7.224   8.674  0.2047 -0.4630  0.6053
  346TIP3   OH225232   4.184   6.155   9.366  0.0908 -0.4297  0.0991
  346TIP3    H125233   4.162   6.246   9.346  1.7237 -0.0567 -0.1828
  346TIP3    H225234   4.138   6.136   9.448 -1.1556  0.2782 -0.4172
  347TIP3   OH225235   7.166   2.925   9.378  0.0628  0.1002 -0.3123
  347TIP3    H125236   7.074   2.951   9.379 -0.0612 -0.2250 -1.4946
  347TIP3    H225237   7.179   2.886   9.291  1.9546  2.4475 -1.1861
  348TIP3   OH225238   0.819   1.908   7.294  0.3829 -0.9951  0.3153
  348TIP3    H125239   0.746   1.947   7.245  0.5254  1.2754  1.7488
  348TIP3    H225240   0.779   1.840   7.347 -0.3932 -0.9646 -0.2157
  349TIP3   OH225241   0.663   5.022   7.934  0.0751  0.2066  1.0327
  349TIP3    H125242   0.591   5.063   7.982 -0.8533 -0.5972  0.3682
  349TIP3    H225243   0.644   5.041   7.842 -0.8819 -2.3751  0.6100
  350TIP3   OH225244   3.468   2.387   8.156  0.0566  0.2924 -0.4398
  350TIP3    H125245   3.552   2.415   8.194  0.0450  1.1012 -0.9914
  350TIP3    H225246   3.424   2.340   8.227  0.0414  1.7490  0.5561
  351TIP3   OH225247   7.317   7.166   9.307 -0.0024 -0.0246 -0.1284
  351TIP3    H125248   7.299   7.082   9.265  0.1536 -0.4568  0.6562
  351TIP3    H225249   7.234   7.214   9.299 -0.2762 -0.4752 -0.0680
  352TIP3   OH225250   4.647   3.298   8.852 -0.1253  0.4804  0.3224
  352TIP3    H125251   4.585   3.357   8.894 -0.6973 -0.8666  1.4456
  352TIP3    H225252   4.593   3.237   8.802  0.3825  0.1626  0.1483
  353TIP3   OH225253   6.980   6.851   8.935 -0.3540  0.5367  0.4580
  353TIP3    H125254   6.957   6.943   8.935 -0.6582  0.4811  1.8083
  353TIP3    H225255   7.033   6.839   9.015  1.7777  0.0341 -0.9431
  354TIP3   OH225256   0.988   7.307   7.798  0.3918  0.1980  0.4464
  354TIP3    H125257   1.031   7.243   7.742  2.3575  0.8117  1.1507
  354TIP3    H225258   0.990   7.389   7.749  1.1865  0.5043  0.9627
  355TIP3   OH225259   6.952   7.637   7.409 -0.0524  0.0137 -0.3592
  355TIP3    H125260   6.901   7.681   7.341 -1.1207 -0.3443  0.1869
  355TIP3    H225261   6.948   7.544   7.385  1.1925  0.0716 -0.8566
  356TIP3   OH225262   5.544   7.338   8.536  0.1422  0.2071  0.0615
  356TIP3    H125263   5.610   7.315   8.601  0.6401  1.4938  0.0343
  356TIP3    H225264   5.593   7.370   8.461 -0.4699  2.6034  0.5843
  357TIP3   OH225265   4.067   7.259   7.906  0.1429  0.1814 -0.2506
  357TIP3    H125266   3.994   7.276   7.847  0.2091 -1.0027 -0.7106
  357TIP3    H225267   4.072   7.163   7.910  0.0276  0.2118  1.8172
  358TIP3   OH225268   3.042   3.471   7.487 -0.0834 -0.0301  0.5266
  358TIP3    H125269   3.134   3.446   7.487 -0.1634 -0.3588 -0.6920
  358TIP3    H225270   2.994   3.389   7.476 -0.5458  0.1046  1.4026
  359TIP3   OH225271   3.533   6.768   9.013  0.0712  0.5678  0.3267
  359TIP3    H125272   3.483   6.823   9.073  0.8726  1.7142 -0.0125
  359TIP3    H225273   3.605   6.824   8.985  0.8169 -0.6123 -0.1798
  360TIP3   OH225274   3.609   3.710   8.953  0.0416  0.8393 -0.2277
  360TIP3    H125275   3.523   3.714   8.913 -0.2851  0.2753  0.3991
  360TIP3    H225276   3.603   3.640   9.018  0.3496  2.1310  1.2763
  361TIP3   OH225277   1.904   3.567   8.352  0.0735  0.0540  0.3171
  361TIP3    H125278   1.845   3.634   8.388 -0.8290  0.1568 -1.2199
  361TIP3    H225279   1.892   3.491   8.409 -1.9059 -0.0559 -0.1382
  362TIP3   OH225280   1.606   5.118   8.010 -0.6037  0.1333 -0.1531
  362TIP3    H125281   1.642   5.132   8.097 -0.1159 -0.3086 -0.2704
  362TIP3    H225282   1.541   5.187   7.998 -2.4465 -1.2120  1.4921
  363TIP3   OH225283   7.326   5.300   8.132 -0.1435  0.1131 -0.2599
  363TIP3    H125284   7.279   5.383   8.121 -1.0295 -0.5207 -1.6083
  363TIP3    H225285   7.349   5.275   8.042 -1.4424 -1.9626 -0.0636
  364TIP3   OH225286   6.575   0.403   8.321 -0.0300  0.1769  0.1872
  364TIP3    H125287   6.497   0.384   8.372  0.3910  3.3714  2.3450
  364TIP3    H225288   6.555   0.485   8.275  2.0049  1.2140  0.9782
  365TIP3   OH225289   5.252   3.337   8.374  0.3027  0.0868  0.4522
  365TIP3    H125290   5.184   3.292   8.325  1.5638 -0.6174 -0.6913
  365TIP3    H225291   5.311   3.372   8.308  0.3613  1.8540  1.3773
  366TIP3   OH225292   0.208   6.159   8.610  0.0586  0.0705 -0.1562
  366TIP3    H125293   0.281   6.173   8.550 -0.1052 -1.1781 -0.6730
  366TIP3    H225294   0.130   6.173   8.557 -0.0963 -1.5998 -0.4185
  367TIP3   OH225295   0.179   3.350   7.434  0.8300 -0.0646 -0.1353
  367TIP3    H125296   0.164   3.262   7.466  2.3241 -0.8094 -1.3612
  367TIP3    H225297   0.191   3.340   7.339 -0.3997  1.6511 -0.5287
  368TIP3   OH225298   2.822   1.547   7.134 -0.2101  0.1935 -0.5587
  368TIP3    H125299   2.749   1.499   7.095 -0.4766  1.3644 -1.5625
  368TIP3    H225300   2.888   1.551   7.064  0.3060  0.2224 -0.0762
  369TIP3   OH225301   5.646   7.569   8.811  0.0313  0.7381 -0.0302
  369TIP3    H125302   5.555   7.542   8.810  0.1656  0.2142 -2.4075
  369TIP3    H225303   5.693   7.501   8.763  1.4421  1.7346 -0.1548
  370TIP3   OH225304   2.484   4.904   7.098  0.6321 -0.4331  0.1771
  370TIP3    H125305   2.571   4.906   7.137  0.6960  1.8652  0.0424
  370TIP3    H225306   2.498   4.925   7.006 -0.1722  2.6562  0.6190
  371TIP3   OH225307   5.892   4.724   9.163  0.0605  0.0550 -0.4156
  371TIP3    H125308   5.903   4.783   9.088  0.7199  0.9178  0.3426
  371TIP3    H225309   5.891   4.637   9.124  0.8987  0.4580 -1.3874
  372TIP3   OH225310   1.025   6.785   8.051  0.7148  0.2240 -0.2540
  372TIP3    H125311   1.071   6.726   7.992  1.6580 -0.0110  0.6769
  372TIP3    H225312   0.943   6.740   8.072  1.5530 -0.9414  0.6878
  373TIP3   OH225313   6.693   0.089   9.341  0.0798  0.6254  0.1458
  373TIP3    H125314   6.677   0.064   9.250  0.1445 -0.6589  0.4745
  373TIP3    H225315   6.621   0.049   9.390 -0.2086  1.6904  0.6161
  374TIP3   OH225316   5.641   0.593   7.341  0.0219 -0.0688 -0.3217
  374TIP3    H125317   5.556   0.634   7.353 -0.0101 -0.2188 -0.0122
  374TIP3    H225318   5.691   0.656   7.288 -0.4886 -0.2769 -1.0545
  375TIP3   OH225319   5.454   3.476   8.647  0.4255 -0.6061 -0.7877
  375TIP3    H125320   5.363   3.503   8.642  1.0786  1.6649 -2.4375
  375TIP3    H225321   5.499   3.532   8.583  3.6865  1.5992  2.9104
  376TIP3   OH225322   1.427   2.959   8.883  0.1107 -0.6494 -0.1821
  376TIP3    H125323   1.488   2.890   8.905  1.3391 -0.1182 -1.7173
  376TIP3    H225324   1.429   2.963   8.787 -1.3190  0.2917 -0.2079
  377TIP3   OH225325   6.092   0.995   6.819  0.1380  0.2875  0.0988
  377TIP3    H125326   6.180   1.008   6.783 -0.5123  1.1799 -1.2667
  377TIP3    H225327   6.066   0.909   6.786 -0.1811  0.7995 -1.0384
  378TIP3   OH225328   3.680   2.973   9.366 -0.2238  0.1960 -0.2075
  378TIP3    H125329   3.731   3.048   9.337 -0.2548  1.0231  1.6919
  378TIP3    H225330   3.603   3.011   9.409 -0.6675 -0.9473  0.0592
  379TIP3   OH225331   6.434   6.326   7.007  0.4572  0.2325  0.0647
  379TIP3    H125332   6.368   6.392   7.023  0.6134  0.0498  1.5869
  379TIP3    H225333   6.420   6.299   6.916 -1.2234  0.5518  0.2030
  380TIP3   OH225334   6.439   1.048   6.960 -0.0025  0.3043 -0.4086
  380TIP3    H125335   6.467   0.966   6.919 -0.9511  0.4133 -1.3038
  380TIP3    H225336   6.504   1.112   6.932  1.8753 -0.4522  1.8335
  381TIP3   OH225337   7.617   4.593   7.141 -0.1331  0.0433  0.1546
  381TIP3    H125338   7.661   4.630   7.064  1.5733  1.4778  1.7066
  381TIP3    H225339   7.668   4.515   7.162 -0.0810  0.1202  0.3148
  382TIP3   OH225340   7.307   6.749   9.081  0.2921  0.1129 -0.0947
  382TIP3    H125341   7.268   6.662   9.087  1.3192 -0.5520 -2.0595
  382TIP3    H225342   7.392   6.739   9.125 -0.2727  0.6211  1.1609
  383TIP3   OH225343   1.813   0.643   8.879  0.1176  0.7890  0.7454
  383TIP3    H125344   1.858   0.710   8.929  0.5249  1.1492 -0.0840
  383TIP3    H225345   1.786   0.686   8.798 -1.1928  0.4162  0.9614
  384TIP3   OH225346   6.426   2.684   9.254  0.8330  0.1491 -0.2824
  384TIP3    H125347   6.343   2.652   9.290  1.8953  0.0365  2.2919
  384TIP3    H225348   6.478   2.604   9.241  1.3089  0.3534  0.2917
  385TIP3   OH225349   0.119   3.133   7.584  0.1739  0.3203 -0.4486
  385TIP3    H125350   0.074   3.075   7.523  1.6194  0.8748 -2.0996
  385TIP3    H225351   0.165   3.074   7.644 -1.0057 -0.2217 -0.0344
  386TIP3   OH225352   1.878   7.002   8.075  0.0529 -0.0666 -0.4152
  386TIP3    H125353   1.897   7.051   7.995 -2.9457 -0.3103 -1.4180
  386TIP3    H225354   1.804   7.049   8.115  0.5373 -0.8012  1.4327
  387TIP3   OH225355   7.501   0.588   8.534  0.0046  0.4962 -0.1551
  387TIP3    H125356   7.412   0.553   8.534  0.4605 -0.8084  1.5941
  387TIP3    H225357   7.557   0.511   8.529  1.0359  1.2604 -0.5670
  388TIP3   OH225358   5.153   5.611   9.732  0.0680 -0.4952  0.3643
  388TIP3    H125359   5.149   5.706   9.728  0.7177 -0.4492  0.6974
  388TIP3    H225360   5.062   5.583   9.730 -0.1552  0.1636  0.9596
  389TIP3   OH225361   2.376   3.698   8.722  0.4932 -0.1605 -0.0399
  389TIP3    H125362   2.364   3.681   8.629 -4.1449  1.4187 -0.0131
  389TIP3    H225363   2.301   3.655   8.764  1.1607  1.0741  2.6421
  390TIP3   OH225364   1.376   2.770   8.218 -0.4698  0.0238 -0.3353
  390TIP3    H125365   1.417   2.712   8.153 -0.1943 -1.3102  0.9544
  390TIP3    H225366   1.303   2.811   8.172 -0.4269 -1.0608 -1.4167
  391TIP3   OH225367   3.470   1.288   6.597  0.2164  0.1497  0.6545
  391TIP3    H125368   3.376   1.283   6.613  0.3610 -2.0382  1.1169
  391TIP3    H225369   3.509   1.227   6.660  1.7023 -0.8697 -1.1477
  392TIP3   OH225370   3.989   7.278   9.526  0.2992 -0.2591  0.0148
  392TIP3    H125371   4.077   7.316   9.529  0.3785 -0.4412 -0.0185
  392TIP3    H225372   3.933   7.350   9.495  0.2962  0.1046  0.8353
  393TIP3   OH225373   0.184   4.414   8.436 -0.0515  0.2813 -0.3885
  393TIP3    H125374   0.214   4.400   8.526 -2.4445  0.5150  0.5252
  393TIP3    H225375   0.182   4.326   8.398  0.2270  0.0892  0.0315
  394TIP3   OH225376   3.128   7.612   7.213  0.1546 -0.0242 -0.2361
  394TIP3    H125377   3.153   7.668   7.139  1.9937  0.5015  0.7143
  394TIP3    H225378   3.129   7.524   7.177  0.3987  0.2786 -1.0044
  395TIP3   OH225379   5.095   4.317   8.426  0.0594  0.5414 -0.1102
  395TIP3    H125380   5.143   4.363   8.496 -0.4094  0.5904  0.1876
  395TIP3    H225381   5.082   4.384   8.359 -0.4632  0.7968  0.2446
  396TIP3   OH225382   7.198   6.958   8.793 -0.2419 -0.1233  0.4178
  396TIP3    H125383   7.180   6.866   8.775 -1.8443 -0.0990  1.6765
  396TIP3    H225384   7.116   6.993   8.828  0.9760  1.2103  2.1381
  397TIP3   OH225385   3.611   2.185   7.280 -0.7655 -0.1605  0.0214
  397TIP3    H125386   3.652   2.227   7.204 -0.6139  1.4566  0.9495
  397TIP3    H225387   3.663   2.215   7.355 -1.5114 -0.9229  0.8681
  398TIP3   OH225388   3.991   1.696   8.004 -0.4361  0.0729  0.0307
  398TIP3    H125389   3.948   1.745   8.074  0.6500  1.9091 -0.5363
  398TIP3    H225390   3.952   1.729   7.923  0.6504  0.3743 -0.3835
  399TIP3   OH225391   1.410   6.428   8.492  0.3648 -0.4498  0.1654
  399TIP3    H125392   1.445   6.498   8.547 -0.9447  0.9772 -0.7261
  399TIP3    H225393   1.322   6.458   8.469 -0.4420 -2.6588  0.1803
  400TIP3   OH225394   7.494   0.857   8.597  0.2713  0.4286  0.3349
  400TIP3    H125395   7.535   0.770   8.586 -0.8842 -0.0737 -0.1297
  400TIP3    H225396   7.498   0.873   8.691  3.5958  1.4465  0.1506
  401TIP3   OH225397   1.209   5.611   8.898 -0.1149 -0.0789  0.3124
  401TIP3    H125398   1.126   5.646   8.930 -0.2667  0.0483 -0.2118
  401TIP3    H225399   1.212   5.521   8.931 -0.7863 -0.3111 -0.2559
  402TIP3   OH225400   6.911   7.426   9.397  0.3398  0.3210 -0.2908
  402TIP3    H125401   6.903   7.521   9.386 -2.0362  0.1741 -0.4329
  402TIP3    H225402   6.957   7.396   9.319  0.4799  1.2849 -0.5877
  403TIP3   OH225403   2.647   3.584   7.326 -0.2935 -0.4634 -0.5231
  403TIP3    H125404   2.627   3.533   7.404  0.9485 -2.5554 -1.4999
  403TIP3    H225405   2.562   3.602   7.286 -0.7464 -2.8968 -0.7913
  404TIP3   OH225406   1.758   2.490   7.023 -0.7032 -0.0822 -0.0147
  404TIP3    H125407   1.697   2.418   7.036 -1.1106 -0.2070 -2.1824
  404TIP3    H225408   1.840   2.449   6.997  0.1252  0.1259  2.0875
  405TIP3   OH225409   1.761   3.136   7.824 -0.0343  0.0320 -0.2836
  405TIP3    H125410   1.694   3.170   7.882 -0.6450  0.6493 -1.3189
  405TIP3    H225411   1.839   3.188   7.845  0.0095 -0.3822  0.6100
  406TIP3   OH225412   6.882   2.507   7.083 -0.6609 -0.3071 -0.4267
  406TIP3    H125413   6.832   2.501   7.002  0.4315  0.0617 -1.1516
  406TIP3    H225414   6.818   2.490   7.152 -1.8642  0.5411 -1.2893
  407TIP3   OH225415   1.182   2.891   8.047  0.2536 -0.0825  0.9086
  407TIP3    H125416   1.187   2.891   7.951  2.4119 -1.2156  0.9446
  407TIP3    H225417   1.111   2.830   8.067 -0.8814  0.9211  0.0433
  408TIP3   OH225418   5.143   7.333   7.020  0.4341  0.3611 -0.0016
  408TIP3    H125419   5.157   7.368   6.932  2.3805  0.6993  0.3901
  408TIP3    H225420   5.220   7.363   7.070 -0.8271  0.5425  1.9316
  409TIP3   OH225421   5.682   6.968   6.962  0.4312  0.6833  0.5187
  409TIP3    H125422   5.642   7.054   6.949 -1.0143 -0.2024 -1.2910
  409TIP3    H225423   5.653   6.916   6.887  0.9104 -1.5271  1.7814
  410TIP3   OH225424   7.220   4.324   7.418 -0.1420  0.1154 -0.1877
  410TIP3    H125425   7.163   4.363   7.484 -1.5173  1.3723 -2.0093
  410TIP3    H225426   7.300   4.376   7.421 -0.8785  1.3166 -0.6650
  411TIP3   OH225427   2.766   0.117   7.164 -0.1028  0.2681  0.0185
  411TIP3    H125428   2.684   0.148   7.203  0.3027  1.0388  0.2679
  411TIP3    H225429   2.790   0.185   7.101  0.0957 -0.1919 -0.4110
  412TIP3   OH225430   5.980   7.680   9.310 -0.3894  0.0490 -0.2660
  412TIP3    H125431   6.025   7.765   9.307 -0.2644 -0.0227 -0.4675
  412TIP3    H225432   6.050   7.615   9.311 -0.4867 -0.0560 -0.2400
  413TIP3   OH225433   6.793   6.188   9.453 -0.1730 -0.1593 -0.3133
  413TIP3    H125434   6.732   6.253   9.487 -1.0189 -1.2960  0.4382
  413TIP3    H225435   6.848   6.236   9.391 -0.8301  1.2285  0.1399
  414TIP3   OH225436   0.067   5.246   7.218 -0.1839 -0.0951  0.0908
  414TIP3    H125437   0.097   5.162   7.183  0.4927  0.1008  0.1975
  414TIP3    H225438  -0.016   5.225   7.262  0.1499 -0.7680  0.4085
  415TIP3   OH225439   5.371   7.392   9.493 -0.1027 -0.6007 -0.5500
  415TIP3    H125440   5.362   7.469   9.436  0.7390 -1.8551 -2.4775
  415TIP3    H225441   5.423   7.423   9.567  0.7353  0.5632 -1.5774
  416TIP3   OH225442   4.292   3.386   9.170 -0.0544  0.1788 -0.2596
  416TIP3    H125443   4.380   3.409   9.198 -0.4666  0.4264  0.9099
  416TIP3    H225444   4.249   3.470   9.153 -0.0147  0.0525 -0.9991
  417TIP3   OH225445   2.993   3.584   8.812  0.1548 -0.0567  0.1277
  417TIP3    H125446   2.919   3.634   8.778 -0.3354 -2.2970 -2.4211
  417TIP3    H225447   3.069   3.619   8.767  0.3523  0.6896  1.0085
  418TIP3   OH225448   5.590   0.690   8.320  0.0773 -0.3288  0.1758
  418TIP3    H125449   5.575   0.784   8.315  1.7795  0.0509  1.2802
  418TIP3    H225450   5.652   0.679   8.393  1.1258 -2.1391 -0.9012
  419TIP3   OH225451   0.532   0.342   7.545  0.1269  0.0915  0.2497
  419TIP3    H125452   0.575   0.263   7.579 -0.4456 -0.0682  0.6244
  419TIP3    H225453   0.471   0.367   7.614 -0.4970  0.2212 -0.3395
  420TIP3   OH225454   3.075   0.132   7.783  0.0503  0.1294  0.2173
  420TIP3    H125455   3.165   0.152   7.758 -0.4448  1.4844 -0.6351
  420TIP3    H225456   3.049   0.059   7.727 -0.3129  1.6809 -1.7643
  421TIP3   OH225457   0.435   0.157   8.792 -0.2702 -0.4163 -0.8404
  421TIP3    H125458   0.477   0.072   8.776  0.3777 -0.0128 -1.3037
  421TIP3    H225459   0.394   0.179   8.708  0.1474  0.0537 -0.9206
  422TIP3   OH225460   4.113   5.629   9.054  0.3598  0.1248 -0.1368
  422TIP3    H125461   4.100   5.720   9.026 -0.9621  0.9627  2.7347
  422TIP3    H225462   4.072   5.576   8.985  1.3268  1.6508 -1.9675
  423TIP3   OH225463   4.002   5.933   8.659 -0.0041  0.1654  0.0051
  423TIP3    H125464   4.071   5.998   8.672  1.3080 -0.8283 -1.5516
  423TIP3    H225465   3.929   5.964   8.712  0.7525  2.6121 -0.2656
  424TIP3   OH225466   6.667   3.876   8.456 -0.2436 -0.0812 -0.4434
  424TIP3    H125467   6.756   3.885   8.490 -0.8656 -0.4915  1.4065
  424TIP3    H225468   6.619   3.832   8.526 -1.5216 -1.3903 -2.0659
  425TIP3   OH225469   0.588   0.123   6.992 -0.2799  0.2224 -0.3855
  425TIP3    H125470   0.603   0.208   7.033  0.1738  0.5716 -1.2642
  425TIP3    H225471   0.532   0.142   6.916  1.6047  0.0795 -1.8801
  426TIP3   OH225472   6.027   5.757   8.077  0.0200  0.0636  0.6354
  426TIP3    H125473   6.064   5.676   8.041 -4.0719 -2.6580  1.8620
  426TIP3    H225474   6.059   5.760   8.168  1.5447  0.8928  0.1132
  427TIP3   OH225475   3.282   5.982   7.788 -0.8613  0.0581 -0.0145
  427TIP3    H125476   3.373   5.956   7.780 -0.7656 -0.8593  2.8797
  427TIP3    H225477   3.234   5.900   7.800 -1.9443  0.5981 -0.4391
  428TIP3   OH225478   2.879   6.038   7.443  0.1887  0.0794 -0.2182
  428TIP3    H125479   2.911   6.086   7.367  0.6065 -0.1176 -0.1714
  428TIP3    H225480   2.825   6.101   7.490 -0.2817  0.1294 -0.8092
  429TIP3   OH225481   5.665   2.357   6.841  0.1828 -0.0414  0.0797
  429TIP3    H125482   5.702   2.360   6.929 -0.7072  1.8919  0.4291
  429TIP3    H225483   5.728   2.306   6.790  1.0002 -0.6909  1.6879
  430TIP3   OH225484   4.939   6.738   7.457 -0.0846  0.3076  0.7565
  430TIP3    H125485   4.976   6.787   7.383  0.0772  0.1900  0.7593
  430TIP3    H225486   4.953   6.646   7.435 -0.0538  0.2714  0.9248
  431TIP3   OH225487   5.352   5.963   7.508 -0.6099  0.0779 -0.0304
  431TIP3    H125488   5.354   6.046   7.461  2.7537  0.3784  0.4177
  431TIP3    H225489   5.341   5.897   7.439 -1.5610  0.7636 -0.5625
  432TIP3   OH225490   0.444   3.730   8.181  0.2223 -0.3746  0.1251
  432TIP3    H125491   0.369   3.672   8.172 -0.1668  0.1024  0.2596
  432TIP3    H225492   0.510   3.694   8.122 -0.3841 -0.3595 -0.5744
  433TIP3   OH225493   6.546   2.395   8.734 -0.2592  0.1665 -0.0046
  433TIP3    H125494   6.532   2.482   8.697 -3.1148 -0.6301 -1.0731
  433TIP3    H225495   6.523   2.404   8.826 -3.5741  0.0017 -0.7171
  434TIP3   OH225496   1.918   3.224   9.279  0.5069 -0.0620  0.5262
  434TIP3    H125497   1.904   3.211   9.372 -0.9200  2.0575  0.6773
  434TIP3    H225498   1.834   3.202   9.238  0.2481  1.5410  0.0953
  435TIP3   OH225499   2.638   4.690   8.794  0.6120 -0.2136  0.0877
  435TIP3    H125500   2.607   4.687   8.885 -0.4720 -1.4186 -0.2749
  435TIP3    H225501   2.642   4.783   8.773 -1.5527  0.0534  0.6056
  436TIP3   OH225502   0.590   3.908   8.380  0.4711  0.7559 -0.0143
  436TIP3    H125503   0.679   3.927   8.351  0.9907 -0.2205  0.8797
  436TIP3    H225504   0.564   3.832   8.330 -0.0061  1.2528 -0.5326
  437TIP3   OH225505   6.106   1.524   7.440  0.2197 -0.3812 -0.5050
  437TIP3    H125506   6.074   1.573   7.516  1.4502 -1.6626  0.9087
  437TIP3    H225507   6.096   1.585   7.367 -2.5331  0.3408  0.3324
  438TIP3   OH225508   1.338   3.170   8.375  0.0792  0.1364 -0.2713
  438TIP3    H125509   1.264   3.111   8.364 -0.4647  0.6045  0.7462
  438TIP3    H225510   1.330   3.203   8.465  0.3796  1.7236 -0.7899
  439TIP3   OH225511   4.254   6.416   7.237 -0.4667  0.3556  0.2864
  439TIP3    H125512   4.205   6.347   7.193  0.0424 -0.1682  0.5318
  439TIP3    H225513   4.188   6.481   7.262 -1.0484 -0.3832  0.6997
  440TIP3   OH225514   4.741   4.354   9.803 -0.3557 -0.1568 -0.4681
  440TIP3    H125515   4.759   4.286   9.869 -1.0256 -0.4236 -0.5498
  440TIP3    H225516   4.820   4.356   9.749 -0.2305 -0.7027 -0.3182
  441TIP3   OH225517   7.674   5.322   7.541  0.4942 -0.1001  0.2224
  441TIP3    H125518   7.737   5.394   7.539 -0.6316  0.9236  0.3295
  441TIP3    H225519   7.605   5.352   7.600  0.5637 -1.7752  1.2306
  442TIP3   OH225520   0.258   6.064   7.419 -0.0773 -0.2876  0.5851
  442TIP3    H125521   0.207   6.088   7.341 -0.7264  0.0416  1.1006
  442TIP3    H225522   0.253   6.141   7.475  3.0278  0.7534 -0.3199
  443TIP3   OH225523   5.622   5.291   8.987  0.2619  0.4407 -0.0505
  443TIP3    H125524   5.651   5.276   9.077  0.1241  1.4702  0.1707
  443TIP3    H225525   5.527   5.286   8.991  0.2719 -2.6786 -0.7322
  444TIP3   OH225526   5.420   2.288   8.643  0.0573 -0.7358 -0.2204
  444TIP3    H125527   5.487   2.226   8.669  1.0281 -0.4861 -1.9385
  444TIP3    H225528   5.380   2.250   8.565 -1.0966 -0.3856  0.1719
  445TIP3   OH225529   2.380   5.894   6.811  0.0642  0.0314 -0.2844
  445TIP3    H125530   2.300   5.940   6.838 -0.5375 -1.3777  0.4114
  445TIP3    H225531   2.350   5.809   6.779  1.2163 -0.1806 -0.8652
  446TIP3   OH225532   5.726   7.380   8.336  0.5321 -0.3986 -0.1517
  446TIP3    H125533   5.698   7.416   8.252 -0.6899 -2.3787 -0.6588
  446TIP3    H225534   5.716   7.286   8.327 -0.3659 -0.6527  2.4696
  447TIP3   OH225535   1.696   4.049   7.417 -0.1453 -0.3193  0.6445
  447TIP3    H125536   1.766   3.990   7.393 -2.1071 -2.0500 -1.2448
  447TIP3    H225537   1.718   4.132   7.375  1.2010 -0.5389  0.8853
  448TIP3   OH225538   1.266   6.693   8.952  0.3343 -0.1930  0.3148
  448TIP3    H125539   1.352   6.658   8.977  0.4264 -0.8439 -0.8568
  448TIP3    H225540   1.286   6.776   8.909  0.2797  0.1741  0.9703
  449TIP3   OH225541   7.304   2.886   8.944 -0.5307  0.0317 -0.0382
  449TIP3    H125542   7.298   2.949   9.015  0.6713 -0.1506  0.2511
  449TIP3    H225543   7.398   2.877   8.928 -0.6548 -1.7208 -0.0315
  450TIP3   OH225544   5.015   4.036   7.319  0.1406 -0.1259 -0.9995
  450TIP3    H125545   5.051   3.948   7.309  2.3754  0.8218 -1.8230
  450TIP3    H225546   4.922   4.022   7.339  1.1421 -2.7362  2.7234
  451TIP3   OH225547   7.053   4.586   9.036 -0.3683 -0.2993 -0.0333
  451TIP3    H125548   7.065   4.515   9.099  1.3805 -0.4192 -0.4579
  451TIP3    H225549   7.048   4.543   8.951 -0.3976  0.0073 -0.1892
  452TIP3   OH225550   6.415   2.185   7.776 -0.1882  0.2840  0.0723
  452TIP3    H125551   6.469   2.115   7.739  0.0698  1.4172 -1.8400
  452TIP3    H225552   6.325   2.161   7.752 -0.0343  0.9407 -1.2666
  453TIP3   OH225553   3.608   1.963   8.892 -0.5119 -0.5308 -0.3801
  453TIP3    H125554   3.657   2.022   8.834 -1.9501  0.0520 -1.0397
  453TIP3    H225555   3.646   1.977   8.978 -1.1659  1.8074 -0.3944
  454TIP3   OH225556   2.589   4.840   7.939 -0.1810  0.2058  0.4714
  454TIP3    H125557   2.551   4.778   8.002 -1.4450  1.2221  0.7606
  454TIP3    H225558   2.556   4.925   7.967  1.6968  1.0598  0.2071
  455TIP3   OH225559   3.796   2.912   8.378  0.1648 -0.0316 -0.4424
  455TIP3    H125560   3.849   2.968   8.322 -0.7917  0.1647 -1.1657
  455TIP3    H225561   3.707   2.919   8.343 -0.1223 -1.3326 -0.0187
  456TIP3   OH225562   7.054   0.271   7.029 -0.4462 -0.3317 -0.6142
  456TIP3    H125563   7.050   0.212   6.954  0.4736  0.0586 -0.9749
  456TIP3    H225564   7.097   0.220   7.097 -1.6461 -0.8294 -0.1932
  457TIP3   OH225565   4.351   6.770   8.254 -0.0975 -0.0095  0.1432
  457TIP3    H125566   4.382   6.860   8.269  0.4525 -0.4162  1.6191
  457TIP3    H225567   4.292   6.778   8.179 -0.8092  1.7614  0.8124
  458TIP3   OH225568   6.956   1.605   9.223 -0.3730  0.0166  0.1054
  458TIP3    H125569   6.863   1.589   9.207 -0.3462 -0.9360  0.7896
  458TIP3    H225570   6.958   1.676   9.286 -0.5711  1.3053 -1.2958
  459TIP3   OH225571   2.095   6.885   8.188  0.1744  0.5122 -0.7524
  459TIP3    H125572   2.013   6.908   8.145 -0.0728  0.7427 -0.1644
  459TIP3    H225573   2.109   6.954   8.253  0.0269 -0.3404  0.2290
  460TIP3   OH225574   0.813   0.371   6.646 -0.8804  0.0590 -0.5766
  460TIP3    H125575   0.719   0.378   6.662 -0.4914  1.3254  1.5757
  460TIP3    H225576   0.847   0.329   6.725  0.4181 -0.0866 -1.1851
  461TIP3   OH225577   2.223   3.178   7.632  0.0593 -0.0434 -0.2584
  461TIP3    H125578   2.183   3.207   7.714 -1.0747 -1.1156 -0.3968
  461TIP3    H225579   2.242   3.086   7.646  0.0366 -0.1896 -1.1328
  462TIP3   OH225580   0.503   2.934   7.501  0.3634 -0.5233  0.1861
  462TIP3    H125581   0.569   2.890   7.556  0.7618  1.5550  1.4657
  462TIP3    H225582   0.553   2.966   7.426  0.5813 -0.0119  0.5461
  463TIP3   OH225583   4.447   7.001   8.439  0.9005  0.6073 -0.3982
  463TIP3    H125584   4.395   7.032   8.365  1.6243  0.4593 -0.9823
  463TIP3    H225585   4.515   7.068   8.450  1.7379 -0.1423 -0.8818
  464TIP3   OH225586   1.938   7.088   8.696  0.0314 -0.0961  0.4990
  464TIP3    H125587   1.989   7.095   8.778  0.2569  0.9549  0.2894
  464TIP3    H225588   1.857   7.135   8.715 -0.1504 -0.3328  0.2977
  465TIP3   OH225589   6.592   1.326   8.145 -0.2781  0.3846 -0.1231
  465TIP3    H125590   6.534   1.250   8.145 -0.2863  0.3882  0.3144
  465TIP3    H225591   6.564   1.378   8.070 -0.3354  0.0017 -0.3678
  466TIP3   OH225592   1.335   5.448   6.886  0.3486  0.4136 -0.7646
  466TIP3    H125593   1.256   5.474   6.839 -0.4418  0.9304  0.8148
  466TIP3    H225594   1.373   5.530   6.916 -0.3239  0.0120  1.3268
  467TIP3   OH225595   0.413   6.501   7.158 -0.3704  0.3998 -0.5880
  467TIP3    H125596   0.421   6.513   7.064 -1.9131  3.7970 -0.4582
  467TIP3    H225597   0.502   6.488   7.189  0.2066 -0.3736 -2.4580
  468TIP3   OH225598   2.735   7.087   8.972 -0.2097  0.2059  0.5565
  468TIP3    H125599   2.772   7.119   8.890 -0.9970 -0.2636  0.0035
  468TIP3    H225600   2.803   7.032   9.009 -0.0096  0.0636 -0.0089
  469TIP3   OH225601   3.844   1.750   7.541  0.4713 -0.1672  0.5629
  469TIP3    H125602   3.806   1.832   7.574 -0.1062 -0.0334 -0.3977
  469TIP3    H225603   3.935   1.752   7.572  0.7541  1.3140 -0.2523
  470TIP3   OH225604   4.769   2.695   7.006  0.5034  0.4965 -0.8779
  470TIP3    H125605   4.773   2.648   6.923 -1.4730  0.4493 -1.0029
  470TIP3    H225606   4.680   2.680   7.037  1.2222  0.4439  1.3075
  471TIP3   OH225607   3.369   4.640   9.046 -0.1286  0.9851 -0.4891
  471TIP3    H125608   3.450   4.692   9.041 -0.4849  1.5721 -0.2050
  471TIP3    H225609   3.325   4.671   9.125 -0.3044  0.1790 -0.2578
  472TIP3   OH225610   7.176   3.486   8.355  0.3418  0.3467  0.4541
  472TIP3    H125611   7.249   3.517   8.407 -0.4027  1.1241  1.0656
  472TIP3    H225612   7.130   3.423   8.411  0.4800 -0.0728  0.1070
  473TIP3   OH225613   3.291   0.907   8.845 -0.2336  0.2488  0.5054
  473TIP3    H125614   3.323   0.837   8.902  0.2652  0.5208  0.5623
  473TIP3    H225615   3.323   0.884   8.758  2.3307  1.7933  0.9247
  474TIP3   OH225616   6.571   3.510   8.461  0.0912 -0.0814  0.2776
  474TIP3    H125617   6.643   3.534   8.519  0.2015  0.7669 -0.1852
  474TIP3    H225618   6.498   3.490   8.520  0.7340 -1.1089  0.7548
  475TIP3   OH225619   1.465   1.827   8.868  1.1226  0.2308  0.0768
  475TIP3    H125620   1.514   1.842   8.948 -0.0144  1.5149  0.5655
  475TIP3    H225621   1.396   1.893   8.869  0.4965 -0.3504 -1.4839
  476TIP3   OH225622   7.586   5.195   8.771  0.8688  0.1141  0.0214
  476TIP3    H125623   7.624   5.167   8.855  0.8769 -2.2133 -0.6893
  476TIP3    H225624   7.610   5.126   8.710 -3.0403 -0.6932 -0.8840
  477TIP3   OH225625   4.266   6.992   6.724 -0.2276 -0.0581 -0.1468
  477TIP3    H125626   4.233   7.069   6.678  0.4101  0.1142 -0.3329
  477TIP3    H225627   4.350   6.973   6.681 -0.7949 -1.4194 -0.7301
  478TIP3   OH225628   2.374   4.761   7.772  0.8034 -0.5859 -0.1982
  478TIP3    H125629   2.465   4.771   7.800  0.6472 -0.3183  0.2223
  478TIP3    H225630   2.341   4.851   7.765  0.2443 -0.6999  0.7542
  479TIP3   OH225631   6.705   7.582   7.721  0.1869 -0.2067 -0.1089
  479TIP3    H125632   6.654   7.604   7.799  1.2387 -2.3343  1.2825
  479TIP3    H225633   6.668   7.637   7.652 -0.6676  1.9009  1.8936
  480TIP3   OH225634   0.806   7.640   6.928 -0.1561 -0.1510  0.0586
  480TIP3    H125635   0.746   7.699   6.973  1.9005  1.9143  0.3023
  480TIP3    H225636   0.812   7.674   6.839  0.4265 -0.4888 -0.0378
  481TIP3   OH225637   4.350   6.449   9.607  0.1971 -0.4009 -0.0538
  481TIP3    H125638   4.338   6.535   9.648 -0.1099 -0.0103 -0.9481
  481TIP3    H225639   4.266   6.428   9.567  0.9773  0.0759 -2.0540
  482TIP3   OH225640   4.169   6.769   8.771 -0.4728 -0.1654 -0.3427
  482TIP3    H125641   4.167   6.777   8.867  2.9961 -1.5580 -0.0046
  482TIP3    H225642   4.259   6.794   8.747 -1.8476  2.4958 -3.5992
  483TIP3   OH225643   6.597   1.058   6.683  0.1613 -0.0434  0.1135
  483TIP3    H125644   6.604   1.122   6.755 -1.1769 -0.6086  0.7904
  483TIP3    H225645   6.685   1.052   6.647  0.7036  0.8139  1.2417
  484TIP3   OH225646   6.541   4.742   8.653  0.3824  0.4815  0.2798
  484TIP3    H125647   6.553   4.747   8.748 -2.5781 -0.6403  0.7980
  484TIP3    H225648   6.622   4.779   8.617  1.1040  2.0619  3.2155
  485TIP3   OH225649   6.279   5.174   8.941 -0.4788  0.0515  0.1592
  485TIP3    H125650   6.333   5.228   8.999 -0.7902 -0.3861  0.8789
  485TIP3    H225651   6.218   5.236   8.900 -0.3562  0.3493  0.4232
  486TIP3   OH225652   7.421   1.232   7.424  0.2493 -0.1210 -0.5467
  486TIP3    H125653   7.498   1.283   7.448 -0.4254  0.6000  0.1567
  486TIP3    H225654   7.347   1.280   7.462 -0.5186 -0.9834 -0.8950
  487TIP3   OH225655   5.594   6.534   9.515 -0.0837 -0.0352  0.2082
  487TIP3    H125656   5.687   6.527   9.535 -0.0879 -0.4761  0.0968
  487TIP3    H225657   5.556   6.452   9.548 -0.3558 -0.0568 -0.1481
  488TIP3   OH225658   6.361   5.085   8.224  0.5563 -0.4970 -0.7128
  488TIP3    H125659   6.306   5.058   8.150 -0.6062  0.1718 -0.1234
  488TIP3    H225660   6.401   5.004   8.255  2.2038 -0.6149 -2.9340
  489TIP3   OH225661   0.283   7.229   8.427 -0.1203  0.4209 -0.1992
  489TIP3    H125662   0.353   7.289   8.454 -0.4893  1.5311 -1.6024
  489TIP3    H225663   0.329   7.153   8.393  0.3704  0.3617  0.5622
  490TIP3   OH225664   5.522   7.194   6.990  0.0708  0.3961 -0.5610
  490TIP3    H125665   5.554   7.253   6.923  0.7106  1.5748  0.7317
  490TIP3    H225666   5.497   7.251   7.063 -0.8626 -0.8099  0.1102
  491TIP3   OH225667   0.172   5.347   8.431 -0.2007  0.1146 -0.0014
  491TIP3    H125668   0.101   5.291   8.400 -0.5746  0.2835  0.5441
  491TIP3    H225669   0.209   5.385   8.351  0.1672 -1.0310 -0.3881
  492TIP3   OH225670   0.150   4.976   6.496 -0.3337 -0.2559 -0.4442
  492TIP3    H125671   0.160   4.964   6.591  2.3315  1.1587 -0.4426
  492TIP3    H225672   0.110   5.062   6.487  0.6324  0.2003 -0.5613
  493TIP3   OH225673   6.274   2.879   8.402 -0.0303 -0.0252 -0.0237
  493TIP3    H125674   6.179   2.885   8.413 -0.2014 -0.5681 -1.0126
  493TIP3    H225675   6.310   2.939   8.467 -1.0390 -0.0519  0.5818
  494TIP3   OH225676   1.478   2.875   8.623 -0.1525 -0.0021 -0.2400
  494TIP3    H125677   1.403   2.892   8.566 -1.3057  0.1799  1.2532
  494TIP3    H225678   1.483   2.780   8.628 -1.9850 -0.0666  1.6887
  495TIP3   OH225679   6.811   7.506   8.553 -0.3774  0.2235  0.3566
  495TIP3    H125680   6.772   7.461   8.479 -0.0126 -0.6640  0.6873
  495TIP3    H225681   6.905   7.490   8.545 -0.2911  0.4916  0.7595
  496TIP3   OH225682   0.589   7.029   8.717 -0.1521  0.2633 -0.8931
  496TIP3    H125683   0.502   6.996   8.740 -0.3969  1.7603  0.4978
  496TIP3    H225684   0.647   6.953   8.726 -0.8687 -0.1162  1.0787
  497TIP3   OH225685   1.022   1.342   8.184  0.0157 -0.3525 -0.6008
  497TIP3    H125686   1.083   1.372   8.116 -0.7912  0.4584 -0.9903
  497TIP3    H225687   1.022   1.247   8.176  2.8275 -0.5599  0.8191
  498TIP3   OH225688   4.825   7.592   9.641 -0.1745  0.6268  0.1350
  498TIP3    H125689   4.881   7.655   9.596  0.0888  1.8994  2.0839
  498TIP3    H225690   4.869   7.508   9.629  0.9213  1.2385 -0.2920
  499TIP3   OH225691   0.000   6.397   9.133 -0.0965 -0.1999  0.6098
  499TIP3    H125692   0.008   6.455   9.058  0.8742  0.2504  1.0373
  499TIP3    H225693   0.090   6.369   9.150 -0.6000 -2.2879  0.0687
  500TIP3   OH225694   5.541   6.317   7.217  0.3057  0.1744 -0.2255
  500TIP3    H125695   5.600   6.270   7.157 -0.6781  0.5257 -1.5253
  500TIP3    H225696   5.592   6.328   7.297  0.9488 -2.1816 -0.2271
  501TIP3   OH225697   2.811   3.670   7.096 -0.2584  0.2688 -0.1088
  501TIP3    H125698   2.741   3.728   7.064 -2.7490 -1.4163  1.8219
  501TIP3    H225699   2.768   3.617   7.163  1.9125 -3.5558 -1.4612
  502TIP3   OH225700   5.371   0.727   9.138  0.2352 -0.4474  0.0374
  502TIP3    H125701   5.338   0.687   9.057  1.9098 -0.8135 -0.5192
  502TIP3    H225702   5.411   0.653   9.186  0.6673  0.0396  0.4388
  503TIP3   OH225703   0.877   1.073   7.770  0.2664 -0.0628 -0.0001
  503TIP3    H125704   0.961   1.043   7.803 -0.5998 -0.6944  1.7741
  503TIP3    H225705   0.847   1.004   7.711  0.0774 -0.8374  0.9834
  504TIP3   OH225706   3.069   0.984   9.126  0.9075  0.5455  0.0835
  504TIP3    H125707   3.011   0.938   9.066  1.0374  0.8284 -0.2633
  504TIP3    H225708   3.143   0.925   9.139  0.2603 -0.0932  1.0267
  505TIP3   OH225709   5.184   5.884   7.106  0.4335  0.3399  0.4761
  505TIP3    H125710   5.250   5.847   7.165 -0.3438  0.4795  1.4587
  505TIP3    H225711   5.190   5.830   7.027  0.9747 -0.3363  0.9622
  506TIP3   OH225712   4.686   4.684   8.777  0.2503 -0.4729 -0.1087
  506TIP3    H125713   4.763   4.642   8.739 -0.3244 -1.3577 -0.3142
  506TIP3    H225714   4.642   4.615   8.827  1.1700  0.7168  2.5364
  507TIP3   OH225715   2.236   6.821   7.461 -0.2626 -0.1851  0.1261
  507TIP3    H125716   2.292   6.790   7.533 -0.5518 -1.9466 -0.3684
  507TIP3    H225717   2.298   6.860   7.399  0.0506  0.8342  1.0347
  508TIP3   OH225718   6.838   7.173   9.519  0.2031  0.2385 -0.5662
  508TIP3    H125719   6.838   7.268   9.506 -3.5257  0.8873  2.4685
  508TIP3    H225720   6.876   7.160   9.605  0.1030 -0.9870 -0.6839
  509TIP3   OH225721   7.355   5.547   7.280 -0.4467 -0.2001 -0.3486
  509TIP3    H125722   7.333   5.609   7.211  0.5084 -0.4339 -0.8826
  509TIP3    H225723   7.312   5.465   7.253 -1.5311  0.1488  0.2494
  510TIP3   OH225724   0.945   7.410   8.696 -0.4227 -0.0669 -0.0375
  510TIP3    H125725   0.994   7.330   8.676  0.8781 -0.0178  2.4839
  510TIP3    H225726   0.858   7.380   8.720 -1.9077 -0.1580 -4.6332
  511TIP3   OH225727   2.391   2.283   8.739 -0.0731  0.4520 -0.2743
  511TIP3    H125728   2.314   2.238   8.704 -1.3834  0.5282  2.2330
  511TIP3    H225729   2.453   2.212   8.759 -0.0432  0.2598 -1.0392
  512TIP3   OH225730   7.051   2.410   7.382 -0.1183 -0.2065 -0.4141
  512TIP3    H125731   6.968   2.369   7.404 -1.2251  0.9303 -2.2399
  512TIP3    H225732   7.031   2.503   7.373  1.2383  0.0247 -1.4003
  513TIP3   OH225733   1.605   2.895   8.030  0.0448 -0.1096 -0.3159
  513TIP3    H125734   1.588   2.989   8.032 -0.7531 -0.2487  1.6849
  513TIP3    H225735   1.699   2.888   8.044  0.1251  0.3844 -0.5774
  514TIP3   OH225736   7.018   2.196   9.203 -0.0300 -0.0122  0.0875
  514TIP3    H125737   7.051   2.106   9.196  0.7842  0.1822  1.1811
  514TIP3    H225738   7.047   2.225   9.289 -2.3796  0.4725  0.7695
  515TIP3   OH225739   6.122   6.626   9.452 -0.0259  0.3203  0.4519
  515TIP3    H125740   6.166   6.612   9.368 -1.1300 -2.2726  0.2237
  515TIP3    H225741   6.183   6.592   9.517 -0.2799 -0.1162  0.4592
  516TIP3   OH225742   3.330   6.502   9.620 -0.3553  0.1887 -0.2969
  516TIP3    H125743   3.365   6.588   9.599 -0.8203  0.4542  0.0165
  516TIP3    H225744   3.265   6.517   9.688  1.0069 -0.6473  1.2672
  517TIP3   OH225745   2.529   0.218   7.527 -0.7818 -0.4676 -0.3017
  517TIP3    H125746   2.437   0.207   7.553 -0.6397  1.8088  1.4223
  517TIP3    H225747   2.579   0.173   7.595 -0.5051  3.5024  2.4400
  518TIP3   OH225748   3.021   2.800   9.411 -0.1714 -0.4239  0.1798
  518TIP3    H125749   2.990   2.891   9.413 -0.4894 -0.5309  2.0579
  518TIP3    H225750   2.943   2.747   9.422 -0.0369 -0.9879 -1.2809
  519TIP3   OH225751   1.708   6.997   8.506 -0.5830  0.0465  0.1734
  519TIP3    H125752   1.662   6.966   8.584 -1.4815  1.5491  0.2733
  519TIP3    H225753   1.799   7.008   8.535 -0.3543 -1.8053  0.2946
  520TIP3   OH225754   3.906   4.190   8.025 -0.1676  0.1370 -0.1995
  520TIP3    H125755   3.869   4.221   7.942 -0.3931 -0.0673 -0.1777
  520TIP3    H225756   3.831   4.152   8.071 -0.0284  0.1895  0.0678
  521TIP3   OH225757   5.957   0.811   8.350  0.6232 -0.1043 -0.5660
  521TIP3    H125758   6.021   0.879   8.368 -0.8161  1.0915  0.3514
  521TIP3    H225759   5.964   0.750   8.424  0.7706 -0.0314 -0.5213
  522TIP3   OH225760   1.188   3.873   7.856  0.0243 -0.0138 -0.0860
  522TIP3    H125761   1.239   3.953   7.869 -0.9841  1.3226 -3.2449
  522TIP3    H225762   1.248   3.813   7.811  0.0875 -0.0923  0.1051
  523TIP3   OH225763   2.166   6.974   8.438  0.0866 -0.0464 -0.2978
  523TIP3    H125764   2.141   6.883   8.451  4.3590 -1.2115  1.1019
  523TIP3    H225765   2.162   7.013   8.525 -0.4174  0.7662 -0.6707
  524TIP3   OH225766   4.362   4.512   8.553 -0.2776 -0.0096 -0.3060
  524TIP3    H125767   4.406   4.544   8.474 -0.6295  0.7765 -0.1960
  524TIP3    H225768   4.433   4.496   8.615  0.0165 -0.8263 -0.8355
  525TIP3   OH225769   5.360   1.268   8.794 -0.5565 -0.2823  0.2941
  525TIP3    H125770   5.360   1.360   8.818  4.0299 -0.5315  2.2182
  525TIP3    H225771   5.366   1.268   8.698 -0.7460  1.3871  0.2598
  526TIP3   OH225772   1.521   3.427   7.684 -0.0750  0.0215 -0.1898
  526TIP3    H125773   1.506   3.444   7.778 -0.6511  1.1543 -0.4689
  526TIP3    H225774   1.558   3.509   7.651 -2.3674  0.6251 -1.4844
  527TIP3   OH225775   0.546   4.454   7.939 -0.0280 -0.1394 -0.2075
  527TIP3    H125776   0.501   4.478   7.858  0.3768 -1.3143 -0.7955
  527TIP3    H225777   0.635   4.489   7.928 -0.4818  1.3830  0.5728
  528TIP3   OH225778   6.868   6.798   8.255  0.0967  0.2160  0.2153
  528TIP3    H125779   6.920   6.795   8.335 -0.6508 -2.9515  0.6875
  528TIP3    H225780   6.780   6.773   8.281 -0.8855  1.9740 -1.1729
  529TIP3   OH225781   4.457   4.969   7.624  0.1670  0.0367  0.2771
  529TIP3    H125782   4.434   4.915   7.548 -0.2889 -0.6050  0.8539
  529TIP3    H225783   4.508   5.041   7.588 -0.6856  0.1550 -0.7358
  530TIP3   OH225784   5.683   5.874   7.207 -0.1853 -0.4092 -0.2457
  530TIP3    H125785   5.680   5.895   7.114 -0.4642 -0.8668 -0.3426
  530TIP3    H225786   5.757   5.924   7.241 -1.4722  1.6325 -0.2411
  531TIP3   OH225787   3.204   2.353   8.756  0.1205 -0.4754 -0.5571
  531TIP3    H125788   3.180   2.271   8.798 -0.1057  0.2881  0.8997
  531TIP3    H225789   3.299   2.356   8.761  0.0399  0.2238  1.2201
  532TIP3   OH225790   7.365   3.388   8.594 -0.5936 -0.4453  0.2451
  532TIP3    H125791   7.382   3.295   8.609 -0.7024 -0.4990  0.0281
  532TIP3    H225792   7.418   3.410   8.516 -1.8073 -0.7015 -0.6724
  533TIP3   OH225793   6.377   0.797   8.973  0.0552 -0.1275 -0.0097
  533TIP3    H125794   6.373   0.717   8.922  2.9996 -1.1816  1.2105
  533TIP3    H225795   6.326   0.860   8.922 -1.8398 -2.5383 -1.3221
  534TIP3   OH225796   0.565   6.794   9.054 -0.7835 -0.2635 -0.0487
  534TIP3    H125797   0.639   6.788   8.995 -0.5557  0.2856  0.1791
  534TIP3    H225798   0.491   6.761   9.003 -0.6176  0.3231 -0.6850
  535TIP3   OH225799   3.707   2.392   8.284  0.5912 -0.3451  0.5666
  535TIP3    H125800   3.665   2.406   8.368 -0.0234 -1.6589  0.5056
  535TIP3    H225801   3.772   2.462   8.278  0.1181  0.2339  1.7717
  536TIP3   OH225802   1.358   2.872   7.327  0.5206 -0.0636  0.0043
  536TIP3    H125803   1.314   2.929   7.264 -0.2394 -1.1159 -0.4501
  536TIP3    H225804   1.353   2.785   7.289 -0.2338 -0.7890  1.6439
  537TIP3   OH225805   6.475   1.962   7.602 -0.3116 -0.3441  0.6632
  537TIP3    H125806   6.528   1.973   7.523 -1.4526  0.6785  0.0092
  537TIP3    H225807   6.517   1.889   7.649  0.2959 -1.0877 -0.9534
  538TIP3   OH225808   7.440   3.807   8.407  0.8746 -0.4606 -0.1659
  538TIP3    H125809   7.533   3.814   8.389  0.3722  1.3412 -2.5546
  538TIP3    H225810   7.403   3.890   8.376 -1.5510 -1.2031  0.5147
  539TIP3   OH225811   3.354   2.536   6.858 -0.3090 -0.1011 -0.1571
  539TIP3    H125812   3.299   2.614   6.850  0.7825  0.8615  1.2023
  539TIP3    H225813   3.443   2.567   6.844  0.2703 -0.8518  1.5412
  540TIP3   OH225814   3.131   1.835   7.529  0.1063 -0.2734  0.4731
  540TIP3    H125815   3.080   1.818   7.608  0.3698  0.5126  0.8202
  540TIP3    H225816   3.075   1.805   7.457  0.9886 -3.7578  1.0376
  541TIP3   OH225817   4.276   2.562   8.980 -0.8458  0.1399  0.2002
  541TIP3    H125818   4.259   2.535   9.070 -0.4099  2.2065  0.9452
  541TIP3    H225819   4.259   2.656   8.979  0.5222  0.4268 -1.5253
  542TIP3   OH225820   3.105   0.593   8.437 -0.4996  0.0293  0.1640
  542TIP3    H125821   3.148   0.510   8.420  1.1841  0.8750  0.0362
  542TIP3    H225822   3.154   0.657   8.384 -0.3063  1.4449  1.9473
  543TIP3   OH225823   4.206   6.202   9.080  0.1262 -0.3075  0.0783
  543TIP3    H125824   4.145   6.159   9.139  0.4256 -1.6563 -0.5594
  543TIP3    H225825   4.186   6.295   9.088 -2.5503 -0.7305 -0.7061
  544TIP3   OH225826   5.166   2.679   7.344 -0.4262  0.1546 -0.1100
  544TIP3    H125827   5.138   2.694   7.254 -0.6179  0.7357  0.0383
  544TIP3    H225828   5.236   2.615   7.337  0.9580  1.6846 -0.8703
  545TIP3   OH225829   3.305   6.662   7.580  0.3438  0.4599 -0.3313
  545TIP3    H125830   3.267   6.575   7.577 -1.5761  1.1683  0.9702
  545TIP3    H225831   3.275   6.698   7.664  0.3955  2.6299 -1.1749
  546TIP3   OH225832   4.493   4.694   8.351  0.2105  0.2486 -0.5262
  546TIP3    H125833   4.560   4.743   8.398  1.0266 -0.2655 -1.1303
  546TIP3    H225834   4.418   4.753   8.347  1.0212  1.2742 -0.8449
  547TIP3   OH225835   7.041   7.159   7.932  0.2810 -0.2549  0.6699
  547TIP3    H125836   7.115   7.169   7.992 -0.0589  0.2317  1.0115
  547TIP3    H225837   7.056   7.224   7.863  0.5597 -0.6685  0.3329
  548TIP3   OH225838   6.362   1.008   7.647 -0.4540  0.1946 -0.3240
  548TIP3    H125839   6.293   1.062   7.610 -0.9134 -1.3529 -1.8653
  548TIP3    H225840   6.397   0.959   7.572  0.8105 -0.6768  0.7901
  549TIP3   OH225841   4.355   5.734   9.407 -0.0556 -0.0524 -0.0908
  549TIP3    H125842   4.397   5.800   9.463  0.9033  0.0775 -0.9393
  549TIP3    H225843   4.292   5.690   9.465  0.4381  0.5198  0.9065
  550TIP3   OH225844   1.125   6.106   8.641  0.4183  0.5096 -0.0813
  550TIP3    H125845   1.215   6.101   8.608 -0.0206 -0.7791 -1.1724
  550TIP3    H225846   1.124   6.185   8.695  1.6442  1.7289 -1.7345
  551TIP3   OH225847   1.833   5.748   7.543  0.1774  0.0066 -0.1466
  551TIP3    H125848   1.799   5.774   7.457  4.4889 -0.0011 -2.1515
  551TIP3    H225849   1.869   5.660   7.529  0.4619 -0.2398  1.8465
  552TIP3   OH225850   1.434   1.442   7.817  0.3710 -0.3182  0.3287
  552TIP3    H125851   1.501   1.421   7.883  0.1950  1.3354  1.0603
  552TIP3    H225852   1.444   1.536   7.802  0.5458 -0.6871 -2.1809
  553TIP3   OH225853   7.038   5.475   8.436 -0.3087 -0.3365  0.6814
  553TIP3    H125854   6.986   5.406   8.478 -1.7295  0.1079 -0.2647
  553TIP3    H225855   6.995   5.490   8.352  0.9413  0.5770  0.1725
  554TIP3   OH225856   0.737   0.826   8.451 -0.0322 -0.5195  0.2876
  554TIP3    H125857   0.728   0.897   8.515 -3.5125 -0.5193 -0.0176
  554TIP3    H225858   0.747   0.870   8.367  2.1678 -0.5101  0.5002
  555TIP3   OH225859   4.054   4.227   9.175 -0.0692  0.1345 -0.1655
  555TIP3    H125860   3.965   4.196   9.187 -0.4610  0.4983 -1.8981
  555TIP3    H225861   4.045   4.315   9.138  0.9603 -0.3101 -1.5943
  556TIP3   OH225862   4.937   7.000   8.038 -0.7910 -0.4159 -0.3381
  556TIP3    H125863   4.982   7.080   8.012 -0.1676 -0.6304  0.0724
  556TIP3    H225864   4.884   6.976   7.961 -1.4870  0.7312 -0.2449
  557TIP3   OH225865   3.196   4.339   8.484 -0.1607 -0.2874  0.2809
  557TIP3    H125866   3.288   4.364   8.489 -0.1805  0.5163 -2.0351
  557TIP3    H225867   3.196   4.244   8.490  0.5348 -0.1960  2.8218
  558TIP3   OH225868   5.814   7.397   9.019  0.2313  0.1057 -0.1197
  558TIP3    H125869   5.806   7.348   9.101  1.3171  0.1831  0.0525
  558TIP3    H225870   5.905   7.382   8.992  0.1204  0.7664 -0.8720
  559TIP3   OH225871   4.389   7.099   6.489 -0.3855 -0.2852 -0.5069
  559TIP3    H125872   4.441   7.178   6.504 -1.2677  0.1872  0.1522
  559TIP3    H225873   4.441   7.028   6.528  0.7403 -0.1696 -1.7056
  560TIP3   OH225874   1.866   5.539   8.610  0.3419 -0.8153 -0.6421
  560TIP3    H125875   1.855   5.455   8.654 -1.9467 -0.4605 -0.4362
  560TIP3    H225876   1.826   5.603   8.669  1.0105  0.2747 -1.3251
  561TIP3   OH225877   1.756   4.289   7.306  0.0896 -0.1028 -0.0076
  561TIP3    H125878   1.775   4.307   7.214  1.5012  1.1583  0.4917
  561TIP3    H225879   1.663   4.308   7.315 -0.0986 -0.3790 -1.2006
  562TIP3   OH225880   3.426   2.415   7.899 -0.6006 -0.3586 -0.4779
  562TIP3    H125881   3.424   2.385   7.990  0.2213 -0.5608 -0.5109
  562TIP3    H225882   3.415   2.335   7.848  0.7982 -0.5244 -0.5600
  563TIP3   OH225883   1.172   2.421   6.921 -0.4057 -0.1730 -0.8322
  563TIP3    H125884   1.141   2.343   6.875  0.3854 -0.3093 -1.1540
  563TIP3    H225885   1.166   2.491   6.856  2.7162 -0.7588 -1.9460
  564TIP3   OH225886   6.361   0.729   6.744  0.5408 -0.6081 -0.3249
  564TIP3    H125887   6.442   0.730   6.795  0.4622 -1.0269 -0.1842
  564TIP3    H225888   6.354   0.639   6.712 -0.5780 -0.9463  0.8020
  565TIP3   OH225889   1.922   5.502   7.445 -0.3855 -0.0534 -0.7492
  565TIP3    H125890   1.914   5.507   7.350 -1.0551 -1.4792 -0.7984
  565TIP3    H225891   1.962   5.416   7.461 -1.4120 -0.3664  0.2966
  566TIP3   OH225892   6.934   5.021   8.434 -0.7260  0.3474  0.5006
  566TIP3    H125893   6.966   5.096   8.383  0.7131 -1.1520 -0.9385
  566TIP3    H225894   6.961   5.039   8.524  0.8780  0.9089 -0.0626
  567TIP3   OH225895   5.829   0.167   8.544 -0.1963  0.1471 -0.2302
  567TIP3    H125896   5.888   0.229   8.502 -1.2308  0.4826 -1.2333
  567TIP3    H225897   5.833   0.089   8.489  0.3410 -0.3274  0.4684
  568TIP3   OH225898   6.000   4.893   6.883 -0.0029  0.0691  0.4534
  568TIP3    H125899   6.082   4.858   6.851 -0.5130 -0.2325 -0.5731
  568TIP3    H225900   6.025   4.956   6.951  1.1870  1.4569 -1.1974
  569TIP3   OH225901   3.915   2.633   8.419 -0.3395 -0.7245  0.4855
  569TIP3    H125902   3.905   2.726   8.400 -0.8385 -1.1679 -1.6532
  569TIP3    H225903   3.838   2.611   8.471 -0.7227 -0.1534  0.1666
  570TIP3   OH225904   6.911   5.168   9.245  0.2229 -0.2365  0.4080
  570TIP3    H125905   6.969   5.102   9.284 -0.1723 -0.9740 -0.2371
  570TIP3    H225906   6.907   5.145   9.153 -0.8722 -0.0178  0.3928
  571TIP3   OH225907   2.269   0.089   9.220 -0.4901  0.8723  0.5374
  571TIP3    H125908   2.306   0.125   9.301  0.1187 -0.2633  0.7916
  571TIP3    H225909   2.318   0.132   9.150  1.5452 -0.7107  0.8609
  572TIP3   OH225910   6.322   0.448   7.943  0.5948  0.1574 -0.1802
  572TIP3    H125911   6.385   0.448   7.870 -0.9674 -0.6746 -1.6117
  572TIP3    H225912   6.251   0.504   7.912 -0.1558 -0.3108  0.6746
  573TIP3   OH225913   6.517   6.118   8.269 -0.1429  0.0075 -0.1912
  573TIP3    H125914   6.562   6.037   8.293 -1.6376 -0.8715 -0.2526
  573TIP3    H225915   6.584   6.170   8.225  0.5704 -1.6857 -1.2112
  574TIP3   OH225916   5.472   2.841   7.978  0.3403 -0.4291 -0.1008
  574TIP3    H125917   5.428   2.895   7.912 -1.4461 -0.5658  0.9414
  574TIP3    H225918   5.414   2.767   7.991  0.9435 -0.6841  1.2358
  575TIP3   OH225919   3.131   0.673   8.704 -0.4400 -0.3701  0.1350
  575TIP3    H125920   3.098   0.654   8.616 -0.8993 -0.5689  0.3422
  575TIP3    H225921   3.172   0.759   8.697 -0.1691 -0.5348 -0.3508
  576TIP3   OH225922   7.527   1.698   7.938 -0.0411 -0.4476  0.0328
  576TIP3    H125923   7.564   1.717   8.024 -0.4450 -0.8696  0.3055
  576TIP3    H225924   7.519   1.603   7.935  0.2027 -0.4572 -0.5741
  577TIP3   OH225925   2.222   4.913   9.322 -0.0409  0.0040 -0.4448
  577TIP3    H125926   2.164   4.931   9.248 -1.1251 -0.7912  0.1845
  577TIP3    H225927   2.280   4.844   9.290 -1.9786 -1.9917  0.1079
  578TIP3   OH225928   4.012   0.272   7.597 -0.0094  0.1588  0.4111
  578TIP3    H125929   3.963   0.201   7.638  0.1468  0.5681  1.3262
  578TIP3    H225930   3.992   0.349   7.650  0.1401  0.7198 -0.3333
  579TIP3   OH225931   0.403   2.030   8.326 -0.6997 -0.2299 -0.2839
  579TIP3    H125932   0.474   1.978   8.364 -1.3619  0.0415  1.4057
  579TIP3    H225933   0.352   1.966   8.276 -1.0935 -1.1114  1.1808
  580TIP3   OH225934   2.938   4.485   7.596 -0.0358  0.4367 -0.8341
  580TIP3    H125935   3.008   4.456   7.655  0.1348  1.1268 -0.6793
  580TIP3    H225936   2.970   4.465   7.508 -0.7532 -1.5954 -0.6757
  581TIP3   OH225937   0.819   3.153   6.908 -0.2817  0.1690  0.3189
  581TIP3    H125938   0.820   3.064   6.942  0.4442 -0.6741 -1.7470
  581TIP3    H225939   0.762   3.149   6.831  0.9216  1.0988 -0.6781
  582TIP3   OH225940   0.018   4.905   6.242  0.0033 -0.0935  0.5181
  582TIP3    H125941   0.047   4.962   6.313 -0.1808 -0.4324  0.8721
  582TIP3    H225942  -0.077   4.898   6.255  0.2168 -1.7511  1.4484
  583TIP3   OH225943   1.665   3.675   8.465 -0.0090  0.4270 -0.6730
  583TIP3    H125944   1.578   3.689   8.502  0.1214 -0.9506  0.2310
  583TIP3    H225945   1.713   3.755   8.487  0.0060 -0.2278  2.0952
  584TIP3   OH225946   5.606   2.080   9.059 -0.2908  0.1463 -0.4301
  584TIP3    H125947   5.531   2.139   9.066  0.6951  1.6318 -1.5122
  584TIP3    H225948   5.666   2.110   9.128 -0.0326  0.0308 -0.6027
  585TIP3   OH225949   5.292   1.537   7.689  0.3293 -0.3983  0.4584
  585TIP3    H125950   5.284   1.450   7.650 -0.3160 -0.4595  0.7253
  585TIP3    H225951   5.210   1.551   7.736 -0.1581  0.8922 -0.6738
  586TIP3   OH225952   5.949   1.505   8.417 -0.2813  0.4358 -0.4392
  586TIP3    H125953   5.951   1.600   8.407  1.5873  0.4566 -0.3046
  586TIP3    H225954   6.015   1.473   8.355  0.2039 -0.6308  0.5761
  587TIP3   OH225955   5.297   2.223   7.889 -0.5737 -0.4247 -0.0409
  587TIP3    H125956   5.335   2.276   7.819  0.8528 -0.8165  0.4048
  587TIP3    H225957   5.208   2.204   7.859  0.5213 -2.0317 -2.5924
  588TIP3   OH225958   5.116   1.241   8.320 -0.1989  0.6910 -0.0365
  588TIP3    H125959   5.032   1.231   8.276  0.1079  1.9756 -0.9841
  588TIP3    H225960   5.146   1.329   8.295  0.0598  1.4598  2.6759
  589TIP3   OH225961   7.107   2.874   7.361 -0.1980 -0.0474 -0.6876
  589TIP3    H125962   7.038   2.818   7.397  0.4770 -0.9515 -0.7810
  589TIP3    H225963   7.165   2.814   7.315  0.9904  0.6285 -0.1097
  590TIP3   OH225964   6.388   3.143   6.641  0.2007 -0.0907 -0.2074
  590TIP3    H125965   6.389   3.049   6.624  1.3492 -0.0540 -0.4470
  590TIP3    H225966   6.460   3.157   6.703 -0.0635  0.6079 -0.0498
  591TIP3   OH225967   3.333   3.691   8.864  0.1449 -0.0162 -0.2605
  591TIP3    H125968   3.251   3.700   8.911  1.6826  0.6722  2.4813
  591TIP3    H225969   3.360   3.601   8.879  0.0607 -0.1570 -0.9102
  592TIP3   OH225970   6.338   6.609   7.136  0.6033  0.0633  0.1060
  592TIP3    H125971   6.400   6.573   7.200 -0.3649 -0.2967  0.8545
  592TIP3    H225972   6.394   6.655   7.073  1.9751 -3.0647 -1.1833
  593TIP3   OH225973   0.141   5.751   9.176 -0.0619 -0.1646  0.7065
  593TIP3    H125974   0.145   5.841   9.207  0.3735  0.3313 -0.7048
  593TIP3    H225975   0.216   5.708   9.216  0.0611  0.2484  0.9205
  594TIP3   OH225976   0.597   3.873   7.608 -0.0229  0.3759 -0.8048
  594TIP3    H125977   0.663   3.830   7.554  0.7920  2.2283 -1.3410
  594TIP3    H225978   0.639   3.883   7.694 -0.6662 -0.9448 -0.3033
  595TIP3   OH225979   3.966   6.853   7.763 -0.6152 -0.2818  0.0313
  595TIP3    H125980   3.923   6.769   7.782 -0.5464 -0.3061  0.0771
  595TIP3    H225981   3.960   6.902   7.845  0.6018 -0.7826  0.4329
  596TIP3   OH225982   0.458   5.243   8.367  0.1029 -0.4324  0.3543
  596TIP3    H125983   0.522   5.294   8.417 -0.6213  0.9490 -0.0827
  596TIP3    H225984   0.391   5.218   8.430 -0.8722  1.4077  0.1269
  597TIP3   OH225985   2.264   5.600   8.555 -0.4892  0.1085  0.5997
  597TIP3    H125986   2.354   5.628   8.542 -0.5952  1.1840  2.0109
  597TIP3    H225987   2.211   5.670   8.516 -0.7238  0.3097  1.2713
  598TIP3   OH225988   0.539   2.533   7.044 -0.0575  0.0518 -0.1339
  598TIP3    H125989   0.543   2.442   7.071 -1.4649  0.1364  0.4254
  598TIP3    H225990   0.586   2.536   6.961  1.7194 -0.7875  0.7918
  599TIP3   OH225991   7.006   4.423   7.573  0.6502  0.1241 -0.3210
  599TIP3    H125992   7.062   4.485   7.619  4.1342 -2.0558 -1.2557
  599TIP3    H225993   6.956   4.477   7.512  0.7689  2.3423  1.4184
  600TIP3   OH225994   7.135   3.920   9.245 -0.3380 -0.3733 -0.0984
  600TIP3    H125995   7.113   3.835   9.207 -0.6614 -0.6693  0.7354
  600TIP3    H225996   7.224   3.938   9.214  1.2652 -2.7522  2.6644
  601TIP3   OH225997   2.209   5.132   8.718  0.1223  0.4456 -0.4450
  601TIP3    H125998   2.164   5.076   8.656 -1.1602  1.2592 -0.2979
  601TIP3    H225999   2.248   5.201   8.664 -0.7280  0.9778 -0.4084
  602TIP3   OH226000   7.105   4.960   9.345 -0.0281 -0.6780 -0.4001
  602TIP3    H126001   7.167   5.009   9.399 -1.7544  0.1770  0.9053
  602TIP3    H226002   7.144   4.873   9.337  0.8922 -0.4439  1.1441
  603TIP3   OH226003   7.108   3.914   6.263  0.1649  0.1646 -0.5095
  603TIP3    H126004   7.072   3.857   6.194  0.9849 -1.0669  0.0362
  603TIP3    H226005   7.177   3.861   6.303 -0.5841  0.6611  1.5522
  604TIP3   OH226006   4.617   0.575   8.590  0.2355  0.0784 -0.1037
  604TIP3    H126007   4.590   0.498   8.639 -1.9982  1.2630  0.6848
  604TIP3    H226008   4.712   0.580   8.601  0.0959 -1.0929  2.0198
  605TIP3   OH226009   0.393   5.272   8.642 -0.0400 -0.5274 -0.0598
  605TIP3    H126010   0.325   5.274   8.709 -0.6979 -0.5462 -0.7240
  605TIP3    H226011   0.459   5.211   8.677 -0.4366 -0.6328  0.5109
  606TIP3   OH226012   6.469   4.832   8.291  0.3122  0.1140 -0.4737
  606TIP3    H126013   6.558   4.814   8.320  0.7043 -0.5276 -1.9513
  606TIP3    H226014   6.455   4.772   8.218 -2.5705 -2.3036  1.7797
  607TIP3   OH226015   6.334   1.709   8.026  0.4786 -0.0694 -0.3395
  607TIP3    H126016   6.241   1.686   8.034  0.6817 -0.6181  0.5164
  607TIP3    H226017   6.360   1.734   8.114  0.9711  0.8054 -0.7208
  608TIP3   OH226018   1.869   4.799   7.580 -0.2028 -0.3560  0.1659
  608TIP3    H126019   1.906   4.747   7.508 -1.2054 -1.0741  0.1458
  608TIP3    H226020   1.813   4.863   7.537 -2.7719 -2.3405  0.3155
  609TIP3   OH226021   6.814   1.737   8.870  0.0128 -0.0311  0.2045
  609TIP3    H126022   6.791   1.711   8.959 -2.3108  0.7738 -0.0921
  609TIP3    H226023   6.797   1.831   8.867 -0.2065 -0.0943 -1.1602
  610TIP3   OH226024   1.619   1.950   9.409  0.1792  0.0190  0.5250
  610TIP3    H126025   1.555   1.931   9.478 -0.8196 -1.6249 -0.7713
  610TIP3    H226026   1.646   2.040   9.426 -1.4890  0.3226  1.8994
  611TIP3   OH226027   3.595   1.281   9.182  0.5826 -0.5723 -0.0400
  611TIP3    H126028   3.540   1.246   9.112 -1.0149  1.6722 -0.0142
  611TIP3    H226029   3.643   1.354   9.142  1.6294 -0.8757  0.5977
  612TIP3   OH226030   3.250   1.420   8.568  0.7047 -0.0812 -0.1819
  612TIP3    H126031   3.303   1.463   8.634  2.0401 -1.8957  0.0005
  612TIP3    H226032   3.245   1.328   8.596  2.0950 -1.1314 -2.9977
  613TIP3   OH226033   2.286   5.368   7.199 -0.0861  0.2990 -0.4178
  613TIP3    H126034   2.353   5.307   7.230 -0.7157 -0.0739  0.2131
  613TIP3    H226035   2.257   5.332   7.115 -0.6714 -0.4348  0.0961
  614TIP3   OH226036   3.544   0.803   9.261  0.2271  0.0325  0.4849
  614TIP3    H126037   3.607   0.851   9.208  1.3535 -1.3316  0.5322
  614TIP3    H226038   3.546   0.848   9.346  0.7603  0.3144  0.3288
  615TIP3   OH226039   3.412   6.170   7.462  0.2675  0.0489  0.1880
  615TIP3    H126040   3.362   6.093   7.438  1.7587 -0.9671  0.2106
  615TIP3    H226041   3.467   6.142   7.535  1.6074  0.8111 -0.4781
  616TIP3   OH226042   2.975   3.058   8.018  0.8386  0.3460 -0.4016
  616TIP3    H126043   2.978   3.123   8.088  0.1914  0.1679 -0.2012
  616TIP3    H226044   2.943   3.107   7.942 -0.8021  0.0264  0.0459
  617TIP3   OH226045   3.150   3.699   8.352 -0.3778  0.0751 -0.1650
  617TIP3    H126046   3.183   3.687   8.263 -0.3924  1.5291 -0.3974
  617TIP3    H226047   3.228   3.698   8.407 -0.2699  0.1370 -0.3171
  618TIP3   OH226048   2.310   2.667   7.685 -0.2704 -0.0006  0.0001
  618TIP3    H126049   2.266   2.621   7.756 -3.4025  0.9986 -1.1273
  618TIP3    H226050   2.316   2.603   7.615  1.1362 -0.4468  0.5005
  619TIP3   OH226051   1.095   3.102   8.890 -0.2273  0.0486  0.0117
  619TIP3    H126052   1.152   3.176   8.911  1.1137 -0.9889  0.2299
  619TIP3    H226053   1.026   3.139   8.835 -0.3516  1.6897  1.1820
  620TIP3   OH226054   7.619   6.090   8.025 -0.1170  0.2040 -0.8985
  620TIP3    H126055   7.573   6.069   7.944 -1.0754 -0.3534 -0.2363
  620TIP3    H226056   7.687   6.023   8.031 -1.2314 -0.9117 -0.3258
  621TIP3   OH226057   2.538   4.957   8.553  0.7583  0.7724 -0.3350
  621TIP3    H126058   2.623   4.960   8.596  1.5629  0.1688 -1.8207
  621TIP3    H226059   2.508   5.048   8.552  1.1285  0.9191  0.6589
  622TIP3   OH226060   4.531   5.199   7.530  0.0400  0.2759  0.4042
  622TIP3    H126061   4.607   5.207   7.472  0.0894 -2.4307 -0.0409
  622TIP3    H226062   4.459   5.239   7.481  0.1393 -1.6906 -1.5263
  623TIP3   OH226063   1.609   1.576   8.256  0.2388  0.4718 -0.0911
  623TIP3    H126064   1.614   1.546   8.347 -2.5397  2.6171  0.9027
  623TIP3    H226065   1.675   1.644   8.250  0.1545  0.6059  0.4518
  624TIP3   OH226066   2.060   3.980   9.225  0.3655  0.2033 -0.1241
  624TIP3    H126067   2.127   4.026   9.175 -0.1081  0.2316 -0.7376
  624TIP3    H226068   1.983   4.037   9.221 -0.8729 -1.4983 -2.5951
  625TIP3   OH226069   6.554   1.240   7.655 -0.3364 -0.4174 -0.2873
  625TIP3    H126070   6.504   1.222   7.575  1.2482 -1.2729 -1.1439
  625TIP3    H226071   6.544   1.161   7.708 -0.9683 -0.0539  0.1432
  626TIP3   OH226072   2.966   1.708   7.316  0.0181  0.3262 -0.1520
  626TIP3    H126073   2.938   1.643   7.251  0.2804 -0.0463  0.1063
  626TIP3    H226074   2.891   1.718   7.374 -0.0587  0.3288 -0.2515
  627TIP3   OH226075   4.921   2.392   8.791  0.1006  0.1033 -0.0780
  627TIP3    H126076   4.868   2.428   8.721 -0.8598 -1.1267 -0.0198
  627TIP3    H226077   4.898   2.444   8.868  1.5194  1.7823 -0.7162
  628TIP3   OH226078   6.916   4.820   7.171  0.1022  0.1960  0.1138
  628TIP3    H126079   6.989   4.767   7.203 -1.9297 -1.1873  2.9475
  628TIP3    H226080   6.870   4.848   7.251 -2.6154  0.7395 -1.5061
  629TIP3   OH226081   2.792   6.528   9.524  0.2947 -0.0536  0.5684
  629TIP3    H126082   2.875   6.566   9.497 -0.4337  1.9321  0.9849
  629TIP3    H226083   2.734   6.538   9.449  0.1723 -0.6259  0.5789
  630TIP3   OH226084   3.478   4.850   6.986  0.5691 -0.0762 -0.3117
  630TIP3    H126085   3.503   4.935   7.022 -1.0440  0.2399  0.1716
  630TIP3    H226086   3.419   4.813   7.052 -0.9065 -0.3412 -1.7245
  631TIP3   OH226087   0.494   3.331   7.566 -0.3806  0.5918  0.5955
  631TIP3    H126088   0.570   3.379   7.532 -0.8873  1.1466  0.2252
  631TIP3    H226089   0.432   3.328   7.493 -0.9841  0.7283  1.0941
  632TIP3   OH226090   5.871   0.003   9.025 -0.3524 -0.6653 -0.1732
  632TIP3    H126091   5.833  -0.084   9.021 -2.3340  0.0413  1.6487
  632TIP3    H226092   5.933  -0.001   9.099  0.4380 -0.8095 -0.8256
  633TIP3   OH226093   2.795   3.207   6.575  0.3157  0.0413  0.1750
  633TIP3    H126094   2.703   3.216   6.600  0.1661  0.5240 -0.5368
  633TIP3    H226095   2.815   3.285   6.523  1.1134 -0.0838  0.2695
  634TIP3   OH226096   6.104   3.613   9.151  0.0768  0.5012 -0.0474
  634TIP3    H126097   6.036   3.645   9.092  0.9027  1.9905 -0.2632
  634TIP3    H226098   6.181   3.603   9.095  0.4052  0.2008  0.4507
  635TIP3   OH226099   3.740   4.835   8.343  0.0436  0.9546 -0.0066
  635TIP3    H126100   3.668   4.842   8.281  0.5170 -2.7727 -1.1926
  635TIP3    H226101   3.711   4.772   8.409  2.1440 -0.7718 -0.5946
  636TIP3   OH226102   4.101   1.154   8.154 -0.7860 -0.1816  0.2578
  636TIP3    H126103   4.173   1.091   8.148 -1.4210 -0.7911 -1.4439
  636TIP3    H226104   4.042   1.117   8.219 -0.2204 -0.3335  0.6994
  637TIP3   OH226105   6.358   5.982   9.037  0.0620  0.0617  0.2073
  637TIP3    H126106   6.451   5.969   9.015  0.3759  2.5592 -0.3372
  637TIP3    H226107   6.357   5.990   9.132  0.3095 -0.5813  0.2661
  638TIP3   OH226108   2.366   1.449   8.497  0.2056  0.0343 -0.4398
  638TIP3    H126109   2.390   1.367   8.540 -1.2968 -1.1743 -1.7717
  638TIP3    H226110   2.324   1.500   8.566 -2.9752 -2.2098 -0.4829
  639TIP3   OH226111   2.340   0.482   9.279  0.2372  0.2031  0.3418
  639TIP3    H126112   2.387   0.416   9.227 -1.4592 -0.8957  0.1104
  639TIP3    H226113   2.279   0.522   9.216 -1.6096 -0.9053  1.3416
  640TIP3   OH226114   3.672   5.646   9.376  1.1557 -0.1866  0.0595
  640TIP3    H126115   3.691   5.714   9.311 -0.3747  1.6735  1.4486
  640TIP3    H226116   3.743   5.652   9.440  2.4546 -1.7606 -1.1491
  641TIP3   OH226117   5.423   3.742   8.248 -0.6235  0.0843 -0.0834
  641TIP3    H126118   5.475   3.809   8.204 -1.4515  0.7055 -0.1456
  641TIP3    H226119   5.376   3.698   8.178  1.7344 -2.2643 -0.3402
  642TIP3   OH226120   5.764   2.737   8.371 -0.1972  0.3704 -0.0708
  642TIP3    H126121   5.673   2.761   8.353 -0.2225  0.4542  0.1567
  642TIP3    H226122   5.768   2.643   8.356 -0.5424  0.2072  0.7843
  643TIP3   OH226123   5.033   2.075   6.760 -0.0694 -0.2314  0.0031
  643TIP3    H126124   5.003   2.159   6.793  0.8328  0.5107 -1.0033
  643TIP3    H226125   4.957   2.040   6.712  0.4235  1.4311 -2.1581
  644TIP3   OH226126   5.695   4.333   9.012 -0.0971  0.0790  0.6422
  644TIP3    H126127   5.654   4.381   8.940  0.3937 -0.7040 -0.1792
  644TIP3    H226128   5.639   4.350   9.087 -0.9899  0.3841 -0.0782
  645TIP3   OH226129   1.348   4.806   7.720 -0.2282  0.1046  0.0050
  645TIP3    H126130   1.371   4.793   7.628 -1.7131 -0.7191 -0.2845
  645TIP3    H226131   1.428   4.785   7.768  1.2071  2.5488 -1.1496
  646TIP3   OH226132   6.376   2.938   8.144  0.0734  0.7352  0.4157
  646TIP3    H126133   6.345   3.011   8.090 -0.5596 -0.1859 -0.5028
  646TIP3    H226134   6.312   2.931   8.214  0.2390  1.1724  0.6145
  647TIP3   OH226135   2.760   3.135   8.690 -0.2317  0.0759 -0.5094
  647TIP3    H126136   2.817   3.109   8.762  0.6954  1.3566 -0.7496
  647TIP3    H226137   2.809   3.114   8.611 -1.3841 -1.6370 -0.8126
  648TIP3   OH226138   4.367   3.892   9.840 -0.0916 -0.7741  0.1300
  648TIP3    H126139   4.376   3.797   9.830 -1.2434 -1.0264  1.2843
  648TIP3    H226140   4.426   3.928   9.774  0.8270 -2.2850  0.0757
  649TIP3   OH226141   3.421   2.262   6.674 -0.6281 -0.3115  0.2813
  649TIP3    H126142   3.448   2.347   6.640  0.5975 -0.9320 -0.3730
  649TIP3    H226143   3.503   2.213   6.682 -1.1794 -1.0522  1.7425
  650TIP3   OH226144   3.785   1.973   9.113  0.5459  0.1489  0.3801
  650TIP3    H126145   3.797   2.043   9.177  1.9460 -0.3657  0.7169
  650TIP3    H226146   3.871   1.933   9.105  0.0738 -0.6860 -0.8074
  651TIP3   OH226147   6.001   4.400   7.289  0.2975  0.6318  0.1623
  651TIP3    H126148   5.906   4.398   7.287  0.2800 -2.4243  0.0065
  651TIP3    H226149   6.027   4.404   7.197  0.3641  1.7188  0.2125
  652TIP3   OH226150   5.766   1.549   6.633  0.2103  0.4072 -0.4144
  652TIP3    H126151   5.674   1.524   6.638  0.4426 -0.1896  2.6727
  652TIP3    H226152   5.813   1.468   6.652  1.4446  0.6324 -2.2619
  653TIP3   OH226153   0.692   6.286   9.331 -0.1324 -0.0260  0.3330
  653TIP3    H126154   0.780   6.286   9.295  0.0128 -1.3949  0.6278
  653TIP3    H226155   0.699   6.339   9.411 -0.1934  2.0151 -0.9604
  654TIP3   OH226156   6.656   7.209   8.170  0.5533 -0.1205  0.0238
  654TIP3    H126157   6.742   7.247   8.190  0.3116  0.9057 -0.8080
  654TIP3    H226158   6.638   7.236   8.080 -0.6949 -0.2309  0.2193
  655TIP3   OH226159   7.173   5.562   8.830 -1.0497  0.4779 -0.2229
  655TIP3    H126160   7.182   5.656   8.846 -0.7140  0.4319 -0.1323
  655TIP3    H226161   7.261   5.527   8.843 -1.0314  0.2488 -0.9505
  656TIP3   OH226162   0.816   3.776   8.229  0.0540 -0.0199 -0.3971
  656TIP3    H126163   0.784   3.850   8.177 -1.5198 -0.7559 -0.5150
  656TIP3    H226164   0.894   3.810   8.272 -1.8931  2.5148  1.4422
  657TIP3   OH226165   6.833   4.922   7.699  0.3476  0.0952 -0.1352
  657TIP3    H126166   6.892   4.871   7.754 -1.1126 -1.7769 -0.2053
  657TIP3    H226167   6.790   4.983   7.759  1.3302  0.5301  0.1457
  658TIP3   OH226168   4.256   0.083   8.928  0.7500  0.6347  0.3641
  658TIP3    H126169   4.338   0.065   8.883 -0.0836 -0.5159 -0.7595
  658TIP3    H226170   4.256   0.024   9.003  0.0999 -0.8222 -0.7399
  659TIP3   OH226171   5.264   7.240   7.602 -0.0370 -0.3941  0.1350
  659TIP3    H126172   5.306   7.311   7.651 -0.5767 -0.7093  1.0831
  659TIP3    H226173   5.220   7.283   7.529  0.7981  0.0831 -0.1092
  660TIP3   OH226174   6.635   6.322   6.255  0.4781 -0.1827 -0.8472
  660TIP3    H126175   6.588   6.348   6.176 -0.4407  0.3483 -0.1515
  660TIP3    H226176   6.701   6.391   6.268 -0.3138  0.5017 -0.3760
  661TIP3   OH226177   4.454   5.837   7.454  0.1571  0.2037  0.8297
  661TIP3    H126178   4.472   5.774   7.384  1.4264  1.4962 -0.0785
  661TIP3    H226179   4.495   5.799   7.531  2.1824  0.5089 -0.0209
  662TIP3   OH226180   1.858   6.940   7.519  0.1771 -0.2904  0.4967
  662TIP3    H126181   1.847   6.866   7.580 -1.1641 -0.3552  0.2076
  662TIP3    H226182   1.774   6.946   7.474  0.5995  0.8195 -0.1689
  663TIP3   OH226183   2.601   4.332   9.000  0.8345  0.4909 -0.2427
  663TIP3    H126184   2.608   4.274   9.075  0.8376  1.4479  0.5182
  663TIP3    H226185   2.666   4.299   8.938  0.1975 -0.8642 -0.2307
  664TIP3   OH226186   6.329   6.440   8.001 -0.1009  0.0563  0.3351
  664TIP3    H126187   6.273   6.491   8.059 -0.0334  0.9173 -0.3396
  664TIP3    H226188   6.414   6.482   8.006  0.0330 -0.1686 -0.0014
  665TIP3   OH226189   7.416   5.944   6.899  0.3543  0.6356  0.1385
  665TIP3    H126190   7.451   5.880   6.838 -0.0253  0.2183  0.3549
  665TIP3    H226191   7.365   6.004   6.844  0.5471  0.6381 -0.0367
  666TIP3   OH226192   4.246   5.141   8.384 -0.1259 -0.0496 -0.5412
  666TIP3    H126193   4.319   5.086   8.357 -0.7840 -0.4474 -1.5471
  666TIP3    H226194   4.269   5.168   8.473  1.0029 -0.5693 -0.6536
  667TIP3   OH226195   4.659   7.493   8.258 -0.1618 -0.1082 -0.1803
  667TIP3    H126196   4.686   7.503   8.349  2.4792  1.9211 -1.0475
  667TIP3    H226197   4.723   7.431   8.220 -0.9229 -0.5452 -0.7841
  668TIP3   OH226198   3.604   7.005   8.455 -0.7674  0.7408  0.2301
  668TIP3    H126199   3.691   7.045   8.446  1.0281 -1.8707  3.5756
  668TIP3    H226200   3.608   6.928   8.398 -0.3787 -0.0047  1.2327
  669TIP3   OH226201   0.117   7.174   8.865  0.1825 -0.3811 -0.2219
  669TIP3    H126202   0.109   7.168   8.770 -0.6713  0.3315 -0.2113
  669TIP3    H226203   0.026   7.171   8.896  0.2368  2.0577  0.3762
  670TIP3   OH226204   4.679   3.691   7.939 -0.3959  1.0493  0.1104
  670TIP3    H126205   4.763   3.656   7.912  0.2395  1.0476  1.9111
  670TIP3    H226206   4.617   3.620   7.925  0.2178  0.4734  0.2991
  671TIP3   OH226207   0.930   2.346   7.583 -0.1823  0.4655 -0.5227
  671TIP3    H126208   1.022   2.350   7.557 -0.3928  0.2082 -1.3517
  671TIP3    H226209   0.930   2.288   7.659  0.2558 -0.1791 -0.9920
  672TIP3   OH226210   5.732   0.443   8.290  0.1538  0.2809  0.3811
  672TIP3    H126211   5.674   0.499   8.341 -0.2618 -1.5904  2.0872
  672TIP3    H226212   5.693   0.440   8.203 -0.5486  1.5264  0.6312
  673TIP3   OH226213   4.880   1.005   9.115  0.7277 -0.2144  0.0524
  673TIP3    H126214   4.927   1.078   9.074  1.5541  1.2514  3.3231
  673TIP3    H226215   4.948   0.939   9.129  0.4459 -0.7110 -0.8284
  674TIP3   OH226216   6.629   5.940   8.671  0.0174 -0.0356 -0.2253
  674TIP3    H126217   6.685   5.868   8.642  0.7751  0.5228 -0.1496
  674TIP3    H226218   6.540   5.906   8.660  0.3629 -1.1807  0.2750
  675TIP3   OH226219   5.732   7.059   9.014  0.8651  0.3274  0.1756
  675TIP3    H126220   5.660   7.122   9.017  1.0025  0.4579  1.1268
  675TIP3    H226221   5.688   6.973   9.011  0.5420  0.2418  3.3389
  676TIP3   OH226222   3.311   6.777   8.303 -0.5878 -0.4985 -0.3033
  676TIP3    H126223   3.234   6.724   8.325 -1.8148  1.5781  0.6760
  676TIP3    H226224   3.373   6.760   8.374 -1.8336  0.9614  1.1861
  677TIP3   OH226225   0.785   4.810   9.239  0.8439  0.3425  0.0219
  677TIP3    H126226   0.757   4.897   9.213  1.7519  0.3261 -1.0632
  677TIP3    H226227   0.705   4.765   9.263  0.0842  0.7138 -1.7185
  678TIP3   OH226228   5.465   3.232   8.100 -0.3929  0.2546 -0.0790
  678TIP3    H126229   5.434   3.192   8.182  0.6541  2.4292  1.4862
  678TIP3    H226230   5.492   3.158   8.046  2.2737 -1.2702  2.9763
  679TIP3   OH226231   3.684   2.233   7.606 -0.1158 -0.5036 -0.4228
  679TIP3    H126232   3.733   2.280   7.538  0.2706 -0.0989  0.1217
  679TIP3    H226233   3.706   2.280   7.687 -0.1006 -1.3419  0.0612
  680TIP3   OH226234   3.715   1.588   7.757  0.4405  1.0094 -0.1434
  680TIP3    H126235   3.677   1.625   7.837  0.4448 -1.4824  1.1113
  680TIP3    H226236   3.777   1.654   7.727  0.7148  1.8933  2.1303
  681TIP3   OH226237   6.093   1.399   9.492 -0.2242  0.5119 -0.1052
  681TIP3    H126238   6.176   1.358   9.468  0.0796  0.8944  0.3005
  681TIP3    H226239   6.110   1.493   9.487 -1.2773  0.6594 -2.3518
  682TIP3   OH226240   0.824   2.618   8.990  0.5740 -0.0560 -0.0765
  682TIP3    H126241   0.876   2.662   8.922  0.2708 -1.1844 -1.0865
  682TIP3    H226242   0.871   2.536   9.006 -0.9709 -1.2000 -1.1723
  683TIP3   OH226243   3.553   4.421   8.825 -0.0315 -0.3997  0.6992
  683TIP3    H126244   3.639   4.464   8.829 -1.0848  1.7758  2.2449
  683TIP3    H226245   3.490   4.494   8.830 -1.9872 -1.9491 -0.0264
  684TIP3   OH226246   1.777   6.381   6.673 -0.0453 -0.3778  0.2980
  684TIP3    H126247   1.695   6.406   6.716  0.0832 -0.1286  0.3996
  684TIP3    H226248   1.752   6.310   6.614 -0.3579 -0.2130  0.2303
  685TIP3   OH226249   4.907   0.515   7.981 -0.0351  0.6655 -0.0302
  685TIP3    H126250   4.822   0.535   8.021 -0.3987 -0.0958 -0.4243
  685TIP3    H226251   4.942   0.601   7.958  0.1518  1.1493  1.8376
  686TIP3   OH226252   6.387   6.177   6.751  0.0254  0.8124 -0.0667
  686TIP3    H126253   6.410   6.176   6.658 -0.4856  2.1644 -0.2318
  686TIP3    H226254   6.450   6.119   6.793 -0.3442 -0.6004 -1.3949
  687TIP3   OH226255   2.619   2.551   7.969 -0.0434 -0.2692  0.0858
  687TIP3    H126256   2.542   2.516   8.013 -0.2742  0.3956  0.2184
  687TIP3    H226257   2.684   2.561   8.039  0.2712 -1.1088 -0.0761
  688TIP3   OH226258   1.648   0.203   8.618 -0.1356  0.6747 -0.3528
  688TIP3    H126259   1.616   0.258   8.546  1.3152  1.3101 -0.5510
  688TIP3    H226260   1.727   0.161   8.583 -1.4235 -1.9556 -0.3582
  689TIP3   OH226261   6.140   6.552   7.371 -0.0633 -0.1801  0.1003
  689TIP3    H126262   6.206   6.579   7.307 -0.6146  0.7978 -0.0752
  689TIP3    H226263   6.190   6.513   7.442  0.6089 -0.6568 -0.6126
  690TIP3   OH226264   3.545   1.509   9.382  0.3250 -0.2822 -0.8899
  690TIP3    H126265   3.631   1.518   9.423 -0.4103  1.2056  0.4637
  690TIP3    H226266   3.559   1.447   9.310  2.8748  1.0281 -1.6957
  691TIP3   OH226267   4.587   4.851   7.853  0.2864  0.2309 -0.1036
  691TIP3    H126268   4.547   4.873   7.769  0.1913  1.1442  0.1692
  691TIP3    H226269   4.587   4.933   7.902  2.2299  0.2042  0.0204
  692TIP3   OH226270   1.808   0.123   7.716  0.5091 -0.2433 -0.1474
  692TIP3    H126271   1.861   0.194   7.751 -0.4498  0.1386  0.5735
  692TIP3    H226272   1.739   0.166   7.666  0.5575 -0.7113 -0.6306
  693TIP3   OH226273   7.499   0.640   9.325  0.3049 -0.3649  0.3456
  693TIP3    H126274   7.449   0.717   9.297 -0.2840 -0.6928  0.4590
  693TIP3    H226275   7.509   0.651   9.420  2.0432  0.5991  0.0936
  694TIP3   OH226276   1.530   3.144   7.301  0.5013 -0.2351  0.2020
  694TIP3    H126277   1.493   3.233   7.295 -0.8522 -0.7994 -0.3087
  694TIP3    H226278   1.514   3.106   7.214  1.7161 -0.7546  0.1807
  695TIP3   OH226279   0.516   4.403   6.456  0.5181  0.4124 -0.3512
  695TIP3    H126280   0.487   4.489   6.426  1.0164  0.2606 -1.3117
  695TIP3    H226281   0.442   4.368   6.505 -0.3553  0.6562 -1.4523
  696TIP3   OH226282   6.275   4.715   9.468 -0.0144 -0.2170 -0.0510
  696TIP3    H126283   6.209   4.729   9.535  0.1842 -0.4889  0.2068
  696TIP3    H226284   6.237   4.751   9.388 -1.3685 -2.2190 -0.3791
  697TIP3   OH226285   3.560   1.810   7.414  0.6243  0.0682  0.0783
  697TIP3    H126286   3.498   1.860   7.360  1.8789  1.9316  0.2726
  697TIP3    H226287   3.630   1.785   7.354  1.0367  0.3964  0.4150
  698TIP3   OH226288   1.659   6.438   7.290 -0.3118  0.3178  0.1359
  698TIP3    H126289   1.718   6.378   7.244 -0.5878 -0.9425  1.3556
  698TIP3    H226290   1.588   6.454   7.228 -0.5466 -1.1402 -0.0038
  699TIP3   OH226291   3.289   1.911   6.684  0.2897 -0.5966 -0.0712
  699TIP3    H126292   3.213   1.886   6.737 -1.3760  1.7792 -1.1234
  699TIP3    H226293   3.287   1.851   6.610 -0.0200 -1.1478  0.3774
  700TIP3   OH226294   1.259   3.116   8.635  0.3280  0.4483  0.1113
  700TIP3    H126295   1.294   3.108   8.724 -2.6684 -0.3322  1.3590
  700TIP3    H226296   1.167   3.091   8.644 -0.4487  1.7882 -2.9622
  701TIP3   OH226297   1.893   3.310   7.166 -0.5662 -0.1877 -0.4229
  701TIP3    H126298   1.986   3.289   7.167 -0.8163 -1.4291  0.7754
  701TIP3    H226299   1.858   3.262   7.091 -0.0096  1.6635 -1.9526
  702TIP3   OH226300   7.255   6.192   9.239  0.3110  0.1452  0.5780
  702TIP3    H126301   7.320   6.258   9.261 -0.6730  1.6299 -0.6904
  702TIP3    H226302   7.284   6.155   9.156 -0.2101  0.4804  0.2400
  703TIP3   OH226303   2.248   1.345   6.949  0.3773 -0.3334 -0.4355
  703TIP3    H126304   2.181   1.361   6.883 -0.5154  2.6825  1.0000
  703TIP3    H226305   2.324   1.395   6.920  0.6172 -0.5058 -0.1117
  704TIP3   OH226306   7.592   2.869   9.332  0.8206 -0.1850 -0.6505
  704TIP3    H126307   7.574   2.780   9.304  0.9360 -0.3186 -0.3067
  704TIP3    H226308   7.676   2.891   9.290  0.8064 -0.2482 -0.7128
  705TIP3   OH226309   1.293   2.327   8.518 -0.1018  0.3784 -0.0857
  705TIP3    H126310   1.255   2.242   8.539  0.4367  0.1788  0.0734
  705TIP3    H226311   1.251   2.387   8.580  2.2852 -0.3642  2.4869
  706TIP3   OH226312   2.262   6.604   9.013 -0.0324  0.2657  0.0521
  706TIP3    H126313   2.262   6.522   9.063  0.4704 -0.8347 -1.6762
  706TIP3    H226314   2.343   6.601   8.963 -0.3681  1.4771 -0.5909
  707TIP3   OH226315   2.584   3.684   9.341 -0.4938  0.3903 -0.4156
  707TIP3    H126316   2.585   3.779   9.346 -0.2012  0.4091 -0.6950
  707TIP3    H226317   2.545   3.665   9.255  0.0948  0.2842 -0.6671
  708TIP3   OH226318   0.422   1.913   8.993  0.0194  0.3964 -0.1265
  708TIP3    H126319   0.457   1.959   9.069  3.3866 -0.1876 -1.1671
  708TIP3    H226320   0.418   1.821   9.019  0.1350  0.3420 -0.2962
  709TIP3   OH226321   4.564   4.011   8.960 -0.3957 -0.2071  0.0897
  709TIP3    H126322   4.578   4.026   9.054 -0.2736 -0.8494  0.1796
  709TIP3    H226323   4.650   3.985   8.927 -0.3085  0.5860 -0.3188
  710TIP3   OH226324   3.120   1.848   7.980 -0.1593  0.5180  0.3280
  710TIP3    H126325   3.066   1.833   7.902  2.0142 -1.7813 -0.8366
  710TIP3    H226326   3.092   1.934   8.011 -2.4363  0.6864 -1.8615
  711TIP3   OH226327   6.933   0.619   8.338  0.6523  0.4125  0.0698
  711TIP3    H126328   6.980   0.672   8.403  1.0490  1.0639 -0.7393
  711TIP3    H226329   6.877   0.562   8.391  1.0699  0.8303  0.9951
  712TIP3   OH226330   3.047   6.771   7.534 -0.2786 -0.0107  0.5635
  712TIP3    H126331   3.025   6.860   7.506  0.6897  0.1795  0.3633
  712TIP3    H226332   3.123   6.747   7.480 -1.8189 -1.7927 -0.9530
  713TIP3   OH226333   3.176   7.144   9.188  0.7057  0.2624 -0.0209
  713TIP3    H126334   3.100   7.176   9.237  0.2218  0.3846 -0.8264
  713TIP3    H226335   3.240   7.215   9.195  0.5362  0.3983  0.1999
  714TIP3   OH226336   1.530   1.665   7.524  0.5999 -0.3078 -0.2994
  714TIP3    H126337   1.440   1.632   7.513  0.5771 -0.5465  0.5390
  714TIP3    H226338   1.579   1.624   7.453  0.0338 -0.1262 -0.8035
  715TIP3   OH226339   0.828   3.307   7.931  0.0711 -0.1209 -0.1810
  715TIP3    H126340   0.813   3.347   8.016  0.4205 -1.9299  0.7809
  715TIP3    H226341   0.746   3.319   7.883 -0.2908  0.4905  0.5768
  716TIP3   OH226342   4.143   6.113   7.783  0.1742  0.0791  0.0226
  716TIP3    H126343   4.199   6.180   7.824 -0.1987  2.9693 -3.6797
  716TIP3    H226344   4.198   6.036   7.777  0.7699 -0.0470  4.1264
  717TIP3   OH226345   4.207   0.769   8.617 -0.6960  0.3612 -0.2344
  717TIP3    H126346   4.206   0.749   8.711  0.8284 -0.9069 -0.4515
  717TIP3    H226347   4.151   0.701   8.578  0.7133 -0.7115 -0.4743
  718TIP3   OH226348   3.959   6.341   9.220  0.2637 -0.5120  0.2226
  718TIP3    H126349   3.945   6.408   9.286 -2.8471 -0.0712 -0.7311
  718TIP3    H226350   4.017   6.383   9.156  2.8909 -0.7761  2.2642
  719TIP3   OH226351   1.205   7.520   9.265 -0.1305  0.1840 -0.4113
  719TIP3    H126352   1.199   7.478   9.179 -1.3821 -2.6894  0.9142
  719TIP3    H226353   1.294   7.500   9.295  0.4436  1.5294 -1.1312
  720TIP3   OH226354   5.564   0.725   8.029 -0.5199  0.2846  0.3448
  720TIP3    H126355   5.490   0.687   7.982  1.2325 -1.7430 -0.9846
  720TIP3    H226356   5.560   0.685   8.116  0.1595 -1.5139 -0.4040
  721TIP3   OH226357   4.024   6.413   7.051  0.0408  0.6458  0.0501
  721TIP3    H126358   3.995   6.470   6.980 -1.7959 -0.5759 -0.2486
  721TIP3    H226359   4.000   6.460   7.131  0.2872  1.1204 -0.1494
  722TIP3   OH226360   3.809   0.636   9.150 -0.0936 -0.3344  0.9668
  722TIP3    H126361   3.803   0.590   9.233 -0.4147  0.4980  1.4120
  722TIP3    H226362   3.794   0.728   9.171 -1.2891 -0.2370 -0.1543
  723TIP3   OH226363   5.546   1.758   9.411 -0.2756  1.0773 -0.8413
  723TIP3    H126364   5.534   1.664   9.396  0.7147  0.8923 -0.5507
  723TIP3    H226365   5.461   1.797   9.388 -0.6276  0.1432 -1.1824
  724TIP3   OH226366   3.907   4.939   7.033  0.3937  0.6625  0.0270
  724TIP3    H126367   3.860   5.010   6.989 -0.3428 -0.1193 -0.4751
  724TIP3    H226368   3.994   4.939   6.992  1.0862  2.4511  1.3177
  725TIP3   OH226369   5.985   4.574   8.786  0.3392 -0.6930 -0.0344
  725TIP3    H126370   5.982   4.668   8.802 -1.8820 -0.3157 -2.0298
  725TIP3    H226371   6.046   4.564   8.713 -1.5500 -0.3280 -1.7776
  726TIP3   OH226372   1.893   4.899   8.264  0.3132  0.1415  0.6748
  726TIP3    H126373   1.824   4.836   8.245  0.8191 -0.4806  0.8607
  726TIP3    H226374   1.847   4.979   8.288 -0.3379 -0.1323  0.3518
  727TIP3   OH226375   0.560   5.271   9.222  0.3782  0.0965 -0.0244
  727TIP3    H126376   0.586   5.326   9.296 -1.4938  0.4760  0.4225
  727TIP3    H226377   0.587   5.320   9.145  0.9015  0.4802  0.3989
  728TIP3   OH226378   6.028   6.168   8.230  0.5147  0.5012 -0.0193
  728TIP3    H126379   6.110   6.120   8.225 -0.1173 -0.5776 -0.3598
  728TIP3    H226380   6.005   6.187   8.138  0.1660  0.3908  0.0404
  729TIP3   OH226381   3.259   5.957   7.332 -0.2267  0.3809 -0.2807
  729TIP3    H126382   3.321   5.888   7.310 -0.0163  0.2186  0.7496
  729TIP3    H226383   3.248   6.007   7.251  1.0303  0.2449 -0.5544
  730TIP3   OH226384   1.224   0.375   7.885  0.3264 -0.2424 -0.1267
  730TIP3    H126385   1.214   0.468   7.864  1.0291 -0.1154  0.0710
  730TIP3    H226386   1.258   0.375   7.975 -0.0289 -0.7030  0.0091
  731TIP3   OH226387   4.519   2.662   7.424  0.0199  0.0988  0.1656
  731TIP3    H126388   4.463   2.612   7.483  1.2674 -0.7703  0.6665
  731TIP3    H226389   4.546   2.739   7.474 -2.1175  1.5107 -0.6962
  732TIP3   OH226390   5.282   4.062   9.469 -0.4096  0.4302 -0.0941
  732TIP3    H126391   5.299   4.015   9.387 -1.5682 -0.7484  0.3118
  732TIP3    H226392   5.258   3.994   9.531 -0.0535  1.3695  1.0990
  733TIP3   OH226393   6.449   3.342   8.931  0.2618 -0.2530  0.0034
  733TIP3    H126394   6.469   3.277   8.998  0.0012 -0.9564 -0.5890
  733TIP3    H226395   6.530   3.349   8.880  0.4454  0.2479  0.3542
  734TIP3   OH226396   6.983   5.952   9.015 -0.1716 -0.1510  0.5311
  734TIP3    H126397   6.930   6.013   8.964 -0.8699 -0.5501  0.7637
  734TIP3    H226398   7.061   5.937   8.961 -0.9063 -0.5767 -0.4364
  735TIP3   OH226399   6.961   6.306   9.274 -0.0305  0.2950 -0.5123
  735TIP3    H126400   7.028   6.238   9.279 -0.4476 -0.0841  0.0789
  735TIP3    H226401   6.936   6.308   9.182  0.0059 -0.3419 -0.5438
  736TIP3   OH226402   2.048   2.965   9.327 -0.0742  0.0696 -0.7308
  736TIP3    H126403   2.013   3.049   9.295  0.3333  1.0204  1.1497
  736TIP3    H226404   2.123   2.990   9.380  1.3897 -1.6916 -1.8795
  737TIP3   OH226405   2.256   3.937   6.727 -0.2080 -0.2147  0.1683
  737TIP3    H126406   2.196   3.873   6.689  1.0664 -0.9263 -0.7405
  737TIP3    H226407   2.208   4.019   6.725 -0.6632 -0.4760 -1.8839
  738TIP3   OH226408   3.576   4.026   9.159  0.2143 -0.1971  0.2231
  738TIP3    H126409   3.598   4.083   9.085 -2.1391  1.5943  0.7941
  738TIP3    H226410   3.536   3.949   9.118  0.9706 -0.2677 -0.4248
  739TIP3   OH226411   0.480   4.035   7.174  0.2016 -0.7693 -0.0103
  739TIP3    H126412   0.385   4.033   7.168  0.1516 -0.2387  0.5047
  739TIP3    H226413   0.508   3.946   7.153 -0.4652 -1.1726  0.7774
  740TIP3   OH226414   2.603   2.119   7.541 -0.6713  0.1332 -0.1600
  740TIP3    H126415   2.585   2.180   7.613 -1.0594 -0.1309 -0.0294
  740TIP3    H226416   2.597   2.172   7.462  0.9983  0.7162  0.0548
  741TIP3   OH226417   2.849   0.998   8.152  0.3557  0.2617 -0.1348
  741TIP3    H126418   2.865   0.913   8.111 -1.6284  1.1535 -3.0537
  741TIP3    H226419   2.769   0.986   8.202 -0.8911  0.7230 -1.9152
  742TIP3   OH226420   3.667   6.631   9.400 -0.2515  0.2452 -0.4402
  742TIP3    H126421   3.677   6.602   9.309  1.6029  0.0045 -0.2092
  742TIP3    H226422   3.578   6.665   9.405 -0.3646  0.3442 -2.3700
  743TIP3   OH226423   0.826   1.953   9.198 -0.1059  0.7107  0.0969
  743TIP3    H126424   0.770   2.028   9.183 -0.2114  0.4853 -0.6845
  743TIP3    H226425   0.785   1.881   9.150  0.0908  0.1944  0.6755
  744TIP3   OH226426   5.920   2.267   7.718 -0.5674  0.1371  0.5327
  744TIP3    H126427   5.981   2.328   7.676 -1.1350  0.2126 -0.2061
  744TIP3    H226428   5.947   2.264   7.809  0.5724  0.1397  0.2076
  745TIP3   OH226429   7.486   3.589   9.007  0.8904 -0.1817 -0.4769
  745TIP3    H126430   7.409   3.549   8.967 -1.2668  2.0372  1.1620
  745TIP3    H226431   7.491   3.550   9.095  1.1897  0.2261 -0.3063
  746TIP3   OH226432   0.905   7.013   7.913  0.1121  0.1764 -0.3308
  746TIP3    H126433   0.876   7.020   7.822  0.5768  0.9516 -0.4232
  746TIP3    H226434   0.955   6.932   7.916 -0.5094 -0.2256 -0.5947
  747TIP3   OH226435   4.113   3.382   7.737  0.0917  0.1764 -0.0810
  747TIP3    H126436   4.208   3.378   7.726 -0.0143 -0.9069 -0.7498
  747TIP3    H226437   4.078   3.379   7.647 -0.5698  1.3952  0.1058
  748TIP3   OH226438   3.243   6.420   9.368  0.4879  0.2269  0.6097
  748TIP3    H126439   3.181   6.374   9.424  1.1837 -0.9105  0.4944
  748TIP3    H226440   3.297   6.470   9.429 -1.4487  2.4689  0.6105
  749TIP3   OH226441   1.990   7.055   9.297  0.1624 -0.0777 -0.1332
  749TIP3    H126442   1.943   6.997   9.357  0.7432 -0.3474  0.0625
  749TIP3    H226443   2.074   7.012   9.282  0.6488  0.7542  0.1073
  750TIP3   OH226444   5.674   7.125   8.324  0.4127  0.5653 -0.1911
  750TIP3    H126445   5.627   7.118   8.241  0.6419  1.7612 -0.4366
  750TIP3    H226446   5.746   7.061   8.316 -0.5717 -0.5758 -0.1927
  751TIP3   OH226447   1.853   2.487   7.329 -0.0739  0.1079  0.2647
  751TIP3    H126448   1.900   2.404   7.320 -1.3686 -0.8580  1.8335
  751TIP3    H226449   1.807   2.497   7.246  2.2802  0.7543 -1.0537
  752TIP3   OH226450   5.670   2.227   7.835 -0.0712  0.1129  0.1570
  752TIP3    H126451   5.689   2.183   7.918 -0.4964 -2.8530 -1.1890
  752TIP3    H226452   5.754   2.225   7.788 -0.3830 -0.3699 -0.3864
  753TIP3   OH226453   5.900   1.161   7.548 -0.3369  0.5715 -0.1929
  753TIP3    H126454   5.967   1.188   7.486  0.8823 -0.2448  0.7110
  753TIP3    H226455   5.876   1.072   7.520  1.2230 -0.3650  1.2205
  754TIP3   OH226456   0.311   5.344   7.295 -0.0971 -0.7178 -0.0557
  754TIP3    H126457   0.310   5.355   7.200  0.3962  1.3989  0.1464
  754TIP3    H226458   0.234   5.290   7.314 -2.2495  1.7034 -1.3678
  755TIP3   OH226459   6.317   0.173   7.861  0.2795  0.0111  0.3728
  755TIP3    H126460   6.296   0.258   7.901  0.2688 -0.3627  1.1904
  755TIP3    H226461   6.279   0.178   7.774  0.6674  1.0156  0.2426
  756TIP3   OH226462   3.546   4.495   8.181  0.4262 -0.7398  0.3709
  756TIP3    H126463   3.596   4.516   8.261  0.1011  0.2368  0.3309
  756TIP3    H226464   3.613   4.484   8.114  0.6161  0.4319  0.3474
  757TIP3   OH226465   5.836   1.847   9.038  0.0955 -0.6114  0.5808
  757TIP3    H126466   5.813   1.802   9.119  1.7740 -1.3886  0.6524
  757TIP3    H226467   5.755   1.846   8.986  0.2732 -4.6924  0.1058
  758TIP3   OH226468   0.404   6.023   8.048 -0.5477  0.0399 -0.0108
  758TIP3    H126469   0.457   5.944   8.059 -1.6494 -0.9595 -1.5295
  758TIP3    H226470   0.468   6.094   8.046  0.8467 -1.1475 -2.2730
  759TIP3   OH226471   5.971   4.420   8.190  0.1751 -0.4646  0.4666
  759TIP3    H126472   6.056   4.405   8.232  1.9085  1.5554 -1.9506
  759TIP3    H226473   5.922   4.474   8.252  1.1235 -0.6705  1.4229
  760TIP3   OH226474   3.820   0.026   8.110  0.2831 -0.1108 -0.6761
  760TIP3    H126475   3.863   0.109   8.130 -0.9047  0.1101  1.2273
  760TIP3    H226476   3.892  -0.035   8.093  1.3399  0.5636  1.0786
  761TIP3   OH226477   6.185   6.256   8.986  0.4213  0.3837 -0.0761
  761TIP3    H126478   6.162   6.298   8.904  0.8670 -1.4806 -1.1992
  761TIP3    H226479   6.137   6.173   8.986  1.7796 -0.4453  0.6941
  762TIP3   OH226480   4.733   0.513   7.717  0.8083  0.0343  0.6016
  762TIP3    H126481   4.778   0.435   7.748  0.6781 -0.6854 -0.9289
  762TIP3    H226482   4.712   0.494   7.625  0.7424  1.8551  0.1987
  763TIP3   OH226483   2.976   1.422   9.649  0.2198  0.0313  0.3068
  763TIP3    H126484   2.928   1.433   9.731 -0.8899  2.1711 -0.5507
  763TIP3    H226485   2.971   1.328   9.630 -2.1835 -0.0591  1.1056
  764TIP3   OH226486   5.677   3.155   9.094 -0.4379 -0.3510 -0.0267
  764TIP3    H126487   5.764   3.117   9.108  0.1444  0.9082 -0.0423
  764TIP3    H226488   5.650   3.187   9.180  0.5132  2.0232 -0.5266
  765TIP3   OH226489   2.065   3.271   9.666  0.0468 -0.2304 -0.0881
  765TIP3    H126490   2.066   3.348   9.609 -2.0265  0.7216  1.0548
  765TIP3    H226491   2.100   3.302   9.749 -0.0227 -0.7466  0.1386
  766TIP3   OH226492   2.717   0.834   7.287 -0.1373  0.0169  0.5375
  766TIP3    H126493   2.748   0.913   7.241  0.2538 -0.2045  0.4116
  766TIP3    H226494   2.622   0.844   7.290 -0.5073 -1.1840 -2.6736
  767TIP3   OH226495   6.731   0.001   8.785 -0.1165 -0.7985 -0.2453
  767TIP3    H126496   6.650  -0.050   8.781  0.7913 -2.2085 -2.1156
  767TIP3    H226497   6.782  -0.029   8.709 -0.3180  4.3269 -2.8209
  768TIP3   OH226498   6.524   4.640   9.222 -0.2923  0.2278 -0.3176
  768TIP3    H126499   6.480   4.561   9.191 -1.1175 -0.1309  1.6310
  768TIP3    H226500   6.613   4.633   9.186 -0.6413 -1.0849 -0.9891
  769TIP3   OH226501   3.434   5.891   9.404 -0.3732  0.5876 -0.3630
  769TIP3    H126502   3.445   5.981   9.373 -0.9840  1.1124  0.8724
  769TIP3    H226503   3.454   5.837   9.327  0.3102  1.7573 -1.0430
  770TIP3   OH226504   0.962   7.148   8.970 -0.2483 -0.1258 -0.2720
  770TIP3    H126505   0.883   7.199   8.988  0.5902  1.3029 -0.4130
  770TIP3    H226506   0.965   7.140   8.875  0.1234  0.4580 -0.3194
  771TIP3   OH226507   3.063   1.727   8.550 -0.3795  0.2644 -0.6649
  771TIP3    H126508   3.056   1.696   8.641 -0.0165  0.3546 -0.6058
  771TIP3    H226509   3.134   1.676   8.513 -0.1070  0.6756 -0.7136
  772TIP3   OH226510   1.838   0.259   7.321  0.0093  0.3813 -0.2750
  772TIP3    H126511   1.770   0.233   7.257 -0.2369  1.8189 -0.6218
  772TIP3    H226512   1.919   0.226   7.283 -0.4009 -0.7985 -0.1781
  773TIP3   OH226513   4.569   4.060   8.551  0.3331  0.0811  0.5766
  773TIP3    H126514   4.665   4.050   8.552  0.2575 -0.8936 -0.4406
  773TIP3    H226515   4.553   4.132   8.491  0.3928 -0.1758  0.2548
  774TIP3   OH226516   0.162   7.427   6.518  0.0003 -0.1865  0.9125
  774TIP3    H126517   0.108   7.504   6.536 -0.2874 -0.1482 -0.0380
  774TIP3    H226518   0.210   7.449   6.438  0.7091 -0.5914  1.2170
  775TIP3   OH226519   2.803   5.106   9.565 -0.1572 -0.1201  0.0341
  775TIP3    H126520   2.813   5.160   9.643  0.9449  0.0393 -0.2019
  775TIP3    H226521   2.721   5.136   9.525  0.1893  1.0280  0.1664
  776TIP3   OH226522   1.265   4.037   9.139  0.5199  0.3817  0.0967
  776TIP3    H126523   1.252   4.125   9.175  0.6909  0.2356  0.5190
  776TIP3    H226524   1.360   4.028   9.131  0.8905 -1.3498  4.1310
  777TIP3   OH226525   1.258   2.585   8.674  0.0207  0.2080  0.5819
  777TIP3    H126526   1.336   2.576   8.619  0.7110  0.7413  1.4621
  777TIP3    H226527   1.196   2.633   8.619  0.9218  1.2843  0.4746
  778TIP3   OH226528   7.386   3.367   6.479  0.3309 -0.4332 -0.4440
  778TIP3    H126529   7.302   3.321   6.475  0.1222  0.0251 -1.7527
  778TIP3    H226530   7.362   3.457   6.503  0.5251 -0.4734 -0.0956
  779TIP3   OH226531   6.777   2.914   8.983 -0.2380  0.2102 -0.2459
  779TIP3    H126532   6.767   2.850   8.913  1.4605  0.1264 -0.4457
  779TIP3    H226533   6.767   2.863   9.064 -2.1674  0.3028 -0.3844
  780TIP3   OH226534   5.118   1.457   8.919 -0.4139 -0.3042  0.5078
  780TIP3    H126535   5.091   1.493   9.004  0.1660 -0.6675  0.8522
  780TIP3    H226536   5.206   1.493   8.905 -0.4689 -0.3245  0.1030
  781TIP3   OH226537   0.444   6.153   9.423  0.1286 -1.1419  0.3798
  781TIP3    H126538   0.449   6.231   9.478 -2.3565 -1.2355  0.8325
  781TIP3    H226539   0.504   6.170   9.351 -1.7833  2.1351 -0.6244
  782TIP3   OH226540   1.643   7.415   9.008 -0.4573 -0.0601 -0.1354
  782TIP3    H126541   1.605   7.493   8.969 -0.1228 -0.6130 -1.6417
  782TIP3    H226542   1.568   7.364   9.039 -0.6538  1.0599  1.3419
  783TIP3   OH226543   7.562   4.113   9.470  0.0119 -0.4302  0.5880
  783TIP3    H126544   7.594   4.023   9.472  0.0809 -0.4004  0.8453
  783TIP3    H226545   7.468   4.105   9.488 -0.3687 -0.6244 -1.3466
  784TIP3   OH226546   1.874   2.045   9.244  0.2405 -0.2405 -0.1161
  784TIP3    H126547   1.812   2.113   9.270 -1.7147 -1.5184 -1.1693
  784TIP3    H226548   1.959   2.079   9.270 -0.8103  1.9219  0.7520
  785TIP3   OH226549   0.036   7.013   7.834 -0.4315  0.4459  0.3230
  785TIP3    H126550   0.042   6.954   7.909 -0.6867  0.0226  0.0151
  785TIP3    H226551   0.107   6.986   7.777 -1.6249 -0.7815 -0.6594
  786TIP3   OH226552   0.244   6.438   7.372  0.1267 -0.0170  0.7100
  786TIP3    H126553   0.239   6.530   7.398  1.2943 -0.0534  1.0954
  786TIP3    H226554   0.300   6.437   7.295  0.2610 -0.4288  0.8084
  787TIP3   OH226555   2.347   7.170   8.360  0.5536  0.3783  0.3927
  787TIP3    H126556   2.407   7.118   8.307 -0.0177  0.6724 -0.5569
  787TIP3    H226557   2.294   7.105   8.407  0.5651  0.1033  0.0313
  788TIP3   OH226558   4.822   4.286   6.800  0.3510  0.0473 -0.0784
  788TIP3    H126559   4.821   4.284   6.895 -0.5625  1.4673 -0.0255
  788TIP3    H226560   4.733   4.266   6.774  0.1454  1.4398 -0.5416
  789TIP3   OH226561   1.099   5.113   7.930 -1.2229  0.1382 -0.0363
  789TIP3    H126562   1.024   5.170   7.916 -0.7122  1.1894  1.3150
  789TIP3    H226563   1.108   5.107   8.025 -0.2558 -0.8685 -0.1624
  790TIP3   OH226564   0.911   3.493   6.490 -0.6349  0.4223  0.1090
  790TIP3    H126565   0.956   3.574   6.512 -0.1266 -0.2030  1.5101
  790TIP3    H226566   0.830   3.496   6.540  0.2141 -0.7131  1.6314
  791TIP3   OH226567   6.066   2.582   8.172  0.2855  0.1075  0.0106
  791TIP3    H126568   6.025   2.526   8.238 -0.3674  2.3741  1.6375
  791TIP3    H226569   6.160   2.568   8.185  0.1817  0.7701  1.7067
  792TIP3   OH226570   1.188   7.563   7.746 -0.0236  0.0045 -0.0488
  792TIP3    H126571   1.152   7.582   7.832  0.0318 -2.8392  0.7080
  792TIP3    H226572   1.220   7.473   7.753  1.7184  0.3349 -2.4902
  793TIP3   OH226573   2.652   1.536   8.557 -0.3135  0.1182  0.0522
  793TIP3    H126574   2.587   1.494   8.501 -0.2716 -0.1835  0.2239
  793TIP3    H226575   2.674   1.469   8.622  0.3959  0.1070 -0.1840
  794TIP3   OH226576   2.953   0.052   9.103 -0.0774  0.1130 -0.1683
  794TIP3    H126577   2.875  -0.003   9.094 -0.2138 -0.6459  3.9424
  794TIP3    H226578   2.925   0.126   9.156  1.2347  1.8123 -1.7070
  795TIP3   OH226579   6.964   6.879   7.927 -0.7000  0.4690  0.2461
  795TIP3    H126580   6.987   6.970   7.907  0.1854  0.1821 -0.1307
  795TIP3    H226581   6.876   6.883   7.962 -1.7387  1.2256 -2.2017
  796TIP3   OH226582   0.665   6.750   8.364 -0.4679  0.2955 -0.1297
  796TIP3    H126583   0.715   6.825   8.333 -1.0738  0.7980  0.0778
  796TIP3    H226584   0.730   6.691   8.402  0.0981  0.3603 -0.9893
  797TIP3   OH226585   2.462   0.095   8.119 -0.2106 -0.5270  0.0714
  797TIP3    H126586   2.420   0.010   8.111  0.5698 -0.9256  0.1174
  797TIP3    H226587   2.553   0.080   8.093 -0.0858  0.3126 -0.0184
  798TIP3   OH226588   2.489   5.388   9.188  0.6168  0.6071 -0.3733
  798TIP3    H126589   2.438   5.457   9.147  0.2951  0.1087 -0.8358
  798TIP3    H226590   2.425   5.319   9.208  0.5742  1.2665  1.9924
  799TIP3   OH226591   3.162   5.705   9.094 -0.1165  0.6269 -0.5667
  799TIP3    H126592   3.183   5.799   9.094 -3.6553  1.5544  0.3889
  799TIP3    H226593   3.078   5.699   9.140 -0.4106 -2.9469 -1.3032
  800TIP3   OH226594   6.065   6.291   9.228 -0.2518 -0.0052 -0.5700
  800TIP3    H126595   6.091   6.328   9.144 -0.0736  3.1547  0.7302
  800TIP3    H226596   6.145   6.292   9.281 -0.2114 -2.5247 -0.4524
  801TIP3   OH226597   1.316   1.565   8.256  0.1885 -0.2203 -0.1610
  801TIP3    H126598   1.289   1.477   8.231  1.1672 -1.0101  1.3763
  801TIP3    H226599   1.410   1.566   8.243  0.0004  1.1553 -1.6525
  802TIP3   OH226600   4.154   2.783   8.248 -0.3953 -0.0610 -0.3175
  802TIP3    H126601   4.200   2.777   8.332 -1.9193  0.3950  0.5994
  802TIP3    H226602   4.192   2.714   8.194  1.8964  0.7889  0.0777
  803TIP3   OH226603   3.566   2.450   8.491  0.3940  0.1896 -0.0854
  803TIP3    H126604   3.506   2.382   8.523  0.6459  0.3072  0.6660
  803TIP3    H226605   3.569   2.514   8.562  0.8417  0.5458 -0.4203
  804TIP3   OH226606   7.391   5.091   9.177 -0.5493 -0.0616 -0.1509
  804TIP3    H126607   7.364   5.013   9.127  1.8603 -0.2211 -1.3835
  804TIP3    H226608   7.352   5.079   9.263 -0.2908 -2.6650 -0.3021
  805TIP3   OH226609   4.476   4.632   9.033  0.1505 -0.0938 -0.3796
  805TIP3    H126610   4.459   4.556   9.090 -1.3822  0.2876 -0.2827
  805TIP3    H226611   4.500   4.702   9.094  1.4951 -0.4617 -0.4634
  806TIP3   OH226612   6.027   0.478   8.808 -0.0733  0.1946  0.2821
  806TIP3    H126613   5.987   0.391   8.812 -0.4243  0.3527  0.3388
  806TIP3    H226614   5.952   0.538   8.806  0.1499  0.4576 -0.8764
  807TIP3   OH226615   7.192   5.712   7.749  0.4295  0.3492 -0.3000
  807TIP3    H126616   7.100   5.721   7.775  0.4282 -0.1408 -0.1282
  807TIP3    H226617   7.196   5.751   7.662  0.3300  1.5620  0.2256
  808TIP3   OH226618   5.823   7.668   7.235 -0.2120 -0.1366 -0.1871
  808TIP3    H126619   5.867   7.631   7.312  0.3844 -0.7704 -0.8137
  808TIP3    H226620   5.755   7.604   7.214  0.9786 -1.0540 -1.4208
  809TIP3   OH226621   5.705   2.444   8.313  0.0038  0.0715 -0.0803
  809TIP3    H126622   5.619   2.408   8.335 -0.2667  0.5598 -0.3125
  809TIP3    H226623   5.767   2.383   8.351 -0.4429  0.3242  1.0879
  810TIP3   OH226624   4.102   3.104   7.509  0.2951  0.3370 -0.6398
  810TIP3    H126625   4.139   3.028   7.464 -0.8244 -0.5695 -0.0768
  810TIP3    H226626   4.152   3.179   7.476  0.8653 -0.5453 -1.8194
  811TIP3   OH226627   1.391   7.660   8.671 -0.3451  0.3050 -0.6614
  811TIP3    H126628   1.428   7.729   8.616 -0.4821  0.2199 -0.8656
  811TIP3    H226629   1.458   7.592   8.673  0.9906  1.5796  1.8405
  812TIP3   OH226630   3.022   2.221   7.874  0.4308 -0.0289 -0.2651
  812TIP3    H126631   3.044   2.172   7.953 -0.7879  0.4404  0.3968
  812TIP3    H226632   2.926   2.214   7.867  0.5908 -0.6904 -2.1277
  813TIP3   OH226633   7.070   1.721   8.202 -0.4981  0.9408  0.0137
  813TIP3    H126634   7.113   1.778   8.138  1.4556  0.0858  0.5141
  813TIP3    H226635   7.117   1.736   8.284 -1.3764  0.2026  0.6836
  814TIP3   OH226636   7.329   5.220   8.606  0.3196 -0.3981  0.4344
  814TIP3    H126637   7.365   5.299   8.646  1.8003 -1.5199  1.4082
  814TIP3    H226638   7.362   5.221   8.516 -0.7855  0.7494  0.0172
  815TIP3   OH226639   3.199   5.416   8.354 -0.4932  0.4368 -0.2461
  815TIP3    H126640   3.132   5.483   8.365  0.6782  1.4712  1.1031
  815TIP3    H226641   3.232   5.401   8.443  0.6438 -0.4581 -0.7943
  816TIP3   OH226642   7.059   6.831   9.238  0.3248 -0.0112 -0.1292
  816TIP3    H126643   7.055   6.740   9.268 -0.9521  0.3853  0.9869
  816TIP3    H226644   7.138   6.835   9.184  1.4257 -1.3505  1.2832
  817TIP3   OH226645   5.929   4.488   9.035  0.1226  0.3567  0.2218
  817TIP3    H126646   5.861   4.420   9.028  1.2789 -1.0182  1.7264
  817TIP3    H226647   5.943   4.516   8.944  1.5612 -3.4732 -0.9523
  818TIP3   OH226648   6.518   0.828   7.512 -0.3622 -0.4572 -0.3456
  818TIP3    H126649   6.557   0.761   7.568 -1.6961 -1.3904 -0.4861
  818TIP3    H226650   6.586   0.846   7.447  1.5750  1.2831  1.9629
  819TIP3   OH226651   5.281   0.885   8.471 -0.2890 -0.1420  0.5137
  819TIP3    H126652   5.319   0.804   8.506  0.5158 -0.0662 -0.1613
  819TIP3    H226653   5.334   0.905   8.394 -1.5813  0.0751 -0.3513
  820TIP3   OH226654   2.429   7.423   8.238  0.1786  0.1081  0.3168
  820TIP3    H126655   2.394   7.334   8.227 -1.0127  0.7264 -1.1829
  820TIP3    H226656   2.372   7.478   8.185 -0.4811  2.1611  2.9697
  821TIP3   OH226657   0.808   2.039   7.962 -0.0058 -0.2046  0.0025
  821TIP3    H126658   0.778   2.120   8.003 -0.3871 -0.3818  0.0722
  821TIP3    H226659   0.783   1.970   8.023 -1.9864 -0.6402 -1.2110
  822TIP3   OH226660   0.158   6.262   8.899 -0.5096  0.5277  0.5473
  822TIP3    H126661   0.221   6.190   8.894  0.2503  1.2364 -0.3562
  822TIP3    H226662   0.192   6.319   8.968 -0.5924  0.5142  0.5999
  823TIP3   OH226663   2.044   3.805   6.582  0.0822 -0.2540  0.2619
  823TIP3    H126664   2.066   3.822   6.491  1.1081  0.5853  0.6438
  823TIP3    H226665   1.963   3.754   6.579 -0.6665  0.9685 -1.0701
  824TIP3   OH226666   6.578   2.993   8.388 -0.0311  0.3565  0.3847
  824TIP3    H126667   6.490   3.003   8.350  0.7605  0.9010 -1.4028
  824TIP3    H226668   6.602   2.903   8.370 -0.0052  0.3620  0.3921
  825TIP3   OH226669   6.194   4.159   8.052 -0.6355 -0.3895 -0.1699
  825TIP3    H126670   6.169   4.112   7.973 -0.3051  1.3058 -1.3474
  825TIP3    H226671   6.265   4.217   8.023 -0.3330  0.0769  1.4367
  826TIP3   OH226672   3.979   0.099   9.210  0.1152 -0.2804 -0.3462
  826TIP3    H126673   3.923   0.166   9.170  1.0274  0.4525 -0.4269
  826TIP3    H226674   4.060   0.145   9.231  0.3046 -1.0636  0.7526
  827TIP3   OH226675   2.230   3.580   9.155 -0.2536 -0.1575  0.3170
  827TIP3    H126676   2.194   3.629   9.229  0.6036  1.6435 -0.4081
  827TIP3    H226677   2.313   3.623   9.135  0.9387 -2.3998  0.0891
  828TIP3   OH226678   5.004   0.048   9.504  0.3208 -0.4727 -0.1842
  828TIP3    H126679   5.061   0.017   9.434  0.2159  0.2730 -0.6016
  828TIP3    H226680   5.034   0.136   9.524 -0.1479 -0.3874  0.1788
  829TIP3   OH226681   0.516   6.126   6.670  0.4256  0.6231  0.6851
  829TIP3    H126682   0.561   6.200   6.711 -0.2345  2.8719 -2.3094
  829TIP3    H226683   0.586   6.076   6.627  0.7107  0.3121  1.4904
  830TIP3   OH226684   1.637   5.994   9.033 -0.2852 -0.0121 -0.0940
  830TIP3    H126685   1.595   5.926   9.085  0.1667  0.8882  1.5062
  830TIP3    H226686   1.570   6.023   8.972 -1.4605  0.2206  1.2716
  831TIP3   OH226687   1.591   5.347   8.559 -0.1155  0.1597 -0.4026
  831TIP3    H126688   1.502   5.313   8.550  0.4660 -2.3625  1.9932
  831TIP3    H226689   1.636   5.317   8.479 -0.8022 -0.7924 -0.4477
  832TIP3   OH226690   3.062   0.102   9.656  0.0919 -0.2063 -0.4764
  832TIP3    H126691   3.061   0.011   9.624  1.0900 -0.0387 -1.0460
  832TIP3    H226692   3.031   0.096   9.746  0.3835 -1.1535 -0.4270
  833TIP3   OH226693   4.344   4.811   8.103 -0.3784  0.0477 -0.5496
  833TIP3    H126694   4.330   4.773   8.016 -1.9372 -1.5231  0.3172
  833TIP3    H226695   4.389   4.742   8.152  0.2298  0.8074 -0.0155
  834TIP3   OH226696   7.308   7.621   7.783 -0.1096  0.4177  0.2202
  834TIP3    H126697   7.223   7.577   7.778 -0.2956  0.7741  0.2144
  834TIP3    H226698   7.353   7.594   7.703  0.5729 -1.3700  1.1475
  835TIP3   OH226699   6.984   5.628   7.184 -0.2528 -0.0273  0.3364
  835TIP3    H126700   7.045   5.660   7.251  0.6874 -1.1150  0.0288
  835TIP3    H226701   6.959   5.706   7.135 -0.8722  0.7797  1.8530
  836TIP3   OH226702   5.226   5.730   8.178  0.1745  0.1648  0.1268
  836TIP3    H126703   5.296   5.792   8.200  0.6423  0.7920 -2.6519
  836TIP3    H226704   5.194   5.699   8.262  2.0974  1.7643  1.5655
  837TIP3   OH226705   1.323   6.538   8.166 -0.3503 -0.1062 -0.5321
  837TIP3    H126706   1.321   6.599   8.092 -0.6065  0.2186 -0.2645
  837TIP3    H226707   1.338   6.594   8.243  1.6426 -0.6200 -0.5051
  838TIP3   OH226708   5.799   3.423   9.272 -0.5861  0.0659  0.5264
  838TIP3    H126709   5.849   3.451   9.349 -0.0701  2.3179 -0.5576
  838TIP3    H226710   5.709   3.446   9.292 -0.2094  2.4334 -0.2288
  839TIP3   OH226711   7.245   2.966   8.353  0.4137  0.1411  0.1966
  839TIP3    H126712   7.271   2.935   8.267  0.3586 -1.1898  0.6404
  839TIP3    H226713   7.327   2.982   8.399  0.5176 -1.8459  0.8126
  840TIP3   OH226714   1.996   0.207   6.949  0.0964  0.1964 -0.1698
  840TIP3    H126715   2.019   0.205   7.042 -2.9767 -1.6190  0.7128
  840TIP3    H226716   1.946   0.288   6.939  0.0160  0.1528 -0.1215
  841TIP3   OH226717   5.482   6.632   9.286 -0.0098  0.5065 -0.1814
  841TIP3    H126718   5.523   6.573   9.349  0.9748  0.1204 -1.1522
  841TIP3    H226719   5.502   6.719   9.318 -1.4153  0.3474  1.2303
  842TIP3   OH226720   3.329   4.310   8.224  0.0297 -0.1378 -0.2377
  842TIP3    H126721   3.299   4.306   8.315 -1.4420  2.2622 -0.5167
  842TIP3    H226722   3.414   4.352   8.228 -0.3699  0.6614 -0.0083
  843TIP3   OH226723   0.554   7.311   7.998  0.7383  0.0495 -0.4217
  843TIP3    H126724   0.533   7.318   7.905 -0.4230 -0.4057 -0.2099
  843TIP3    H226725   0.477   7.346   8.043  0.5325 -1.3729  0.3934
  844TIP3   OH226726   4.425   6.970   9.063 -0.2872  0.3085  0.3263
  844TIP3    H126727   4.372   7.006   8.992 -0.9528  0.5162  0.9202
  844TIP3    H226728   4.460   7.048   9.107  2.6787  0.2312 -1.5871
  845TIP3   OH226729   1.064   1.143   8.488  0.6996 -0.0314 -0.4302
  845TIP3    H126730   1.101   1.168   8.573  1.7014  0.7800 -1.0948
  845TIP3    H226731   1.084   1.216   8.430 -2.0176  0.5055 -0.8401
  846TIP3   OH226732   3.235   5.183   9.679  0.0403 -0.2359  0.0137
  846TIP3    H126733   3.285   5.217   9.605 -0.1155 -0.8289 -0.3656
  846TIP3    H226734   3.145   5.212   9.663  0.3538  1.5352  1.1083
  847TIP3   OH226735   1.131   7.645   8.544  0.0787  0.6549  0.4799
  847TIP3    H126736   1.217   7.658   8.586 -0.0414  3.9608  0.0386
  847TIP3    H226737   1.144   7.679   8.455 -0.9925 -1.5010 -0.5484
  848TIP3   OH226738   0.004   2.223   9.391 -0.8528  0.7725  0.1656
  848TIP3    H126739   0.061   2.282   9.342 -1.0600 -0.4714 -1.6861
  848TIP3    H226740   0.056   2.143   9.404 -0.6818  1.1735  2.3617
  849TIP3   OH226741   2.706   5.281   7.135 -0.0333 -0.2017  0.4877
  849TIP3    H126742   2.758   5.221   7.189 -0.1838  0.0279  0.8964
  849TIP3    H226743   2.726   5.256   7.045 -0.5307 -1.2415  0.6527
  850TIP3   OH226744   6.168   5.940   8.465  0.8514 -0.4163  0.2099
  850TIP3    H126745   6.079   5.913   8.446  0.4828  2.4572 -3.2538
  850TIP3    H226746   6.209   5.950   8.379  2.9085  3.0499  1.3677
  851TIP3   OH226747   0.947   7.084   9.335  0.5205  1.1509 -0.0397
  851TIP3    H126748   0.882   7.078   9.265  0.1799  0.4177  0.3260
  851TIP3    H226749   1.018   7.134   9.297  0.5117  0.4292 -1.0544
  852TIP3   OH226750   5.110   0.216   7.242  0.4931  0.3964 -0.2296
  852TIP3    H126751   5.193   0.227   7.288  0.8639 -0.0884 -0.7639
  852TIP3    H226752   5.121   0.135   7.192 -1.4683 -1.4705  2.1443
  853TIP3   OH226753   6.935   5.068   6.927 -0.0876 -0.3181  0.4831
  853TIP3    H126754   6.994   5.008   6.882 -0.0612 -0.9827  1.3721
  853TIP3    H226755   6.947   5.152   6.883  0.6789 -0.7100 -0.0725
  854TIP3   OH226756   4.917   1.873   7.640  0.3706  0.2685 -0.1058
  854TIP3    H126757   4.865   1.889   7.719  0.1907 -1.8192  0.2651
  854TIP3    H226758   4.923   1.958   7.597 -0.5398  1.2133  1.5461
  855TIP3   OH226759   4.944   1.252   7.732  0.1165  0.1951 -0.4455
  855TIP3    H126760   5.004   1.305   7.786  0.9941 -0.7937 -0.4123
  855TIP3    H226761   4.876   1.313   7.705  1.0249  1.3130 -0.3007
  856TIP3   OH226762   0.968   6.141   8.968  0.3236  0.6872 -0.7331
  856TIP3    H126763   1.015   6.181   8.894 -0.6908 -0.8325 -2.2829
  856TIP3    H226764   0.876   6.164   8.952  0.0282 -0.1770 -0.2860
  857TIP3   OH226765   4.237   4.607   7.066 -0.0096 -0.0428 -0.2863
  857TIP3    H126766   4.328   4.614   7.095 -0.2671 -1.2599  0.9082
  857TIP3    H226767   4.216   4.514   7.073 -1.1251  0.0955 -1.3067
  858TIP3   OH226768   0.809   6.620   8.083 -0.0982  0.2184 -0.3234
  858TIP3    H126769   0.801   6.564   8.006  0.3928  1.6700 -1.4767
  858TIP3    H226770   0.748   6.692   8.067  2.7509  2.6104 -1.3077
  859TIP3   OH226771   6.261   6.853   7.428  0.0845 -0.3553 -0.5169
  859TIP3    H126772   6.314   6.850   7.348 -0.7319 -4.6996 -1.1799
  859TIP3    H226773   6.173   6.878   7.398 -0.1841 -1.8302 -1.0867
  860TIP3   OH226774   6.679   3.282   8.082  0.4114  0.2359  0.3321
  860TIP3    H126775   6.738   3.235   8.140 -1.1484 -0.3713  1.5095
  860TIP3    H226776   6.683   3.373   8.112  0.4856  0.1353  0.6292
  861TIP3   OH226777   1.512   3.417   9.227  0.3479  0.3498  0.0569
  861TIP3    H126778   1.518   3.357   9.153  1.4384  1.2086 -0.5795
  861TIP3    H226779   1.487   3.501   9.189 -0.5800  0.4574  0.8600
  862TIP3   OH226780   5.572   4.691   8.132 -0.6293  0.3293  0.2002
  862TIP3    H126781   5.542   4.776   8.099 -0.8274  0.5614  0.9570
  862TIP3    H226782   5.556   4.695   8.227  1.8330  0.4986  0.6701
  863TIP3   OH226783   4.456   3.079   7.455 -0.2449  0.0034 -0.5121
  863TIP3    H126784   4.468   2.994   7.495 -0.7262  0.2504  0.1773
  863TIP3    H226785   4.533   3.092   7.400  0.2026 -0.5301 -0.0049
  864TIP3   OH226786   7.321   2.552   6.513 -0.0162 -0.1618  0.4968
  864TIP3    H126787   7.330   2.585   6.424  0.2511 -1.1442  0.1371
  864TIP3    H226788   7.245   2.598   6.549  0.3383  0.8053  0.0363
  865TIP3   OH226789   3.004   4.625   9.151  0.0817 -0.2024 -0.4562
  865TIP3    H126790   3.019   4.551   9.093  0.4531  0.1377 -0.7996
  865TIP3    H226791   3.075   4.621   9.215 -1.2382 -1.5553  1.0289
  866TIP3   OH226792   1.956   0.647   7.598  0.3995  0.1240  0.1657
  866TIP3    H126793   1.965   0.594   7.519 -0.2915 -2.6362  1.7726
  866TIP3    H226794   1.903   0.722   7.571  0.5227 -0.5175 -2.0530
  867TIP3   OH226795   4.522   1.897   8.166  0.0726  0.1922 -0.6267
  867TIP3    H126796   4.532   1.933   8.254  0.4333  0.0235 -0.5980
  867TIP3    H226797   4.476   1.814   8.179 -1.7161  1.1093 -0.7854
  868TIP3   OH226798   0.577   1.377   7.986 -0.1058 -0.6070  0.1497
  868TIP3    H126799   0.633   1.303   7.964  0.2926 -0.3688  0.3455
  868TIP3    H226800   0.632   1.432   8.043 -0.7214 -0.6424  0.7956
  869TIP3   OH226801   6.407   6.280   8.464 -0.2076  0.1189  0.0083
  869TIP3    H126802   6.430   6.205   8.410 -1.1676 -0.1966  0.0174
  869TIP3    H226803   6.315   6.298   8.443 -0.6783 -0.1365  1.6494
  870TIP3   OH226804   1.784   2.793   8.285  0.6624 -0.0596  0.1001
  870TIP3    H126805   1.815   2.815   8.197  0.5465  0.0016  0.0744
  870TIP3    H226806   1.698   2.834   8.291  0.7400  0.0755  0.3004
  871TIP3   OH226807   3.967   4.898   9.693  0.5358  0.1168  0.0996
  871TIP3    H126808   3.962   4.802   9.691 -0.6406  0.1824 -1.4783
  871TIP3    H226809   4.061   4.917   9.694  0.8110 -1.0510 -1.0419
  872TIP3   OH226810   4.140   2.045   8.399  0.2111  0.3052  0.7533
  872TIP3    H126811   4.201   2.023   8.470  0.1903 -1.0114  0.3800
  872TIP3    H226812   4.077   2.104   8.440  1.3841  1.2305  1.2957
  873TIP3   OH226813   6.036   2.747   8.436 -0.1908 -0.4781 -0.4862
  873TIP3    H126814   6.088   2.704   8.368 -0.7872 -0.3419 -1.0385
  873TIP3    H226815   5.951   2.762   8.395  0.0082  1.2777 -0.3439
  874TIP3   OH226816   5.171   4.008   8.740 -0.0514  0.0041  0.0324
  874TIP3    H126817   5.095   4.062   8.719  0.2629 -0.0944 -1.4478
  874TIP3    H226818   5.166   3.935   8.679  2.1581  0.8863 -1.2932
  875TIP3   OH226819   3.565   3.973   7.423 -0.4168  0.0881 -0.2761
  875TIP3    H126820   3.602   3.901   7.372  0.3182 -0.1257  0.5343
  875TIP3    H226821   3.562   3.940   7.512 -0.0654  1.0569  0.1077
  876TIP3   OH226822   1.315   6.376   6.838 -0.1721 -0.5306  0.2119
  876TIP3    H126823   1.302   6.345   6.927  2.0295 -2.9863 -0.1943
  876TIP3    H226824   1.233   6.357   6.793 -1.0103 -0.0147  1.4816
  877TIP3   OH226825   1.960   5.878   7.860 -0.2784  0.3197 -0.5640
  877TIP3    H126826   1.866   5.893   7.848 -0.1438  0.9559 -0.9087
  877TIP3    H226827   2.000   5.961   7.835  0.0957  1.8477  4.1086
  878TIP3   OH226828   2.477   0.039   8.875 -0.7890 -0.1670  0.5570
  878TIP3    H126829   2.570   0.060   8.884 -0.7063 -0.0247 -0.5382
  878TIP3    H226830   2.472  -0.055   8.891 -0.5742 -0.0423  1.3945
  879TIP3   OH226831   3.548   3.750   8.333 -0.0689  0.1811 -0.4306
  879TIP3    H126832   3.541   3.831   8.284  1.0895 -0.2392 -1.3451
  879TIP3    H226833   3.634   3.754   8.376  0.5863 -1.0869 -1.5356
  880TIP3   OH226834   1.006   2.705   8.543 -0.7530 -0.7613  0.2247
  880TIP3    H126835   0.938   2.764   8.511 -0.0921  0.5423  1.1585
  880TIP3    H226836   1.002   2.712   8.638 -0.8643 -2.4933  0.3937
  881TIP3   OH226837   2.635   4.289   7.937 -0.7026  1.0245  0.2144
  881TIP3    H126838   2.617   4.226   8.007 -0.8910 -0.0023 -0.7473
  881TIP3    H226839   2.729   4.285   7.924 -0.4377  2.3312  1.4142
  882TIP3   OH226840   0.059   1.363   7.992 -0.3150 -0.4833 -1.1055
  882TIP3    H126841   0.148   1.392   7.974 -0.2826 -0.4311 -0.8722
  882TIP3    H226842   0.069   1.297   8.061 -0.7176  2.0581  1.5531
  883TIP3   OH226843   2.006   4.243   6.429 -0.7002  0.3904 -0.8960
  883TIP3    H126844   2.060   4.286   6.362 -0.7693  1.0552 -0.5374
  883TIP3    H226845   2.029   4.287   6.510 -0.8426 -0.2057 -0.5295
  884TIP3   OH226846   1.420   3.119   9.365 -0.2009 -0.3329  0.5088
  884TIP3    H126847   1.371   3.099   9.286 -0.6133  3.5175 -0.4202
  884TIP3    H226848   1.353   3.145   9.429  0.2492 -1.7405  1.6095
  885TIP3   OH226849   5.166   7.458   6.753 -0.0360  0.1494  0.6920
  885TIP3    H126850   5.142   7.504   6.673 -1.2026 -0.9977  0.3571
  885TIP3    H226851   5.256   7.487   6.771  0.7760 -0.5803 -1.7881
  886TIP3   OH226852   5.383   7.321   7.217 -0.0777 -0.3200 -0.6242
  886TIP3    H126853   5.422   7.264   7.283 -2.0768 -1.1768 -0.1223
  886TIP3    H226854   5.325   7.380   7.266 -0.2659  0.1981 -1.4359
  887TIP3   OH226855   4.281   7.233   7.156 -0.4085  0.2048  0.3117
  887TIP3    H126856   4.204   7.275   7.195 -1.5859 -1.1085 -0.5019
  887TIP3    H226857   4.284   7.267   7.067 -0.3552 -0.1616  0.1749
  888TIP3   OH226858   7.296   5.606   9.634 -0.0496 -0.2476  0.0988
  888TIP3    H126859   7.270   5.686   9.680 -0.0797 -0.0815 -0.1996
  888TIP3    H226860   7.213   5.564   9.611 -0.0382 -0.2250  0.0167
  889TIP3   OH226861   2.757   5.409   9.633  0.3780  0.4676 -0.3005
  889TIP3    H126862   2.687   5.402   9.698  1.0357 -2.1469  0.2667
  889TIP3    H226863   2.714   5.389   9.549  0.2650 -0.2978 -0.0686
  890TIP3   OH226864   6.479   1.217   9.213  0.4096 -0.1162  0.7236
  890TIP3    H126865   6.533   1.191   9.288 -0.1130 -0.5799  0.9502
  890TIP3    H226866   6.448   1.305   9.235 -1.0528 -0.8626  1.8225
  891TIP3   OH226867   7.677   2.091   8.090 -0.3948 -0.2156 -0.1082
  891TIP3    H126868   7.668   2.184   8.110 -1.2524  0.4051 -2.9127
  891TIP3    H226869   7.619   2.076   8.016  1.6903 -2.3750 -1.4817
  892TIP3   OH226870   5.859   2.664   9.257  0.1870 -0.0338  0.6096
  892TIP3    H126871   5.805   2.692   9.183  1.1418  0.1137 -0.0691
  892TIP3    H226872   5.938   2.717   9.249  0.5488 -0.4415  1.3937
  893TIP3   OH226873   3.912   4.812   8.642  0.2620 -0.4309  0.1057
  893TIP3    H126874   3.987   4.769   8.685 -0.3222 -0.2523  1.3566
  893TIP3    H226875   3.836   4.778   8.689 -0.3809  0.0466 -0.5855
  894TIP3   OH226876   0.811   4.961   6.576 -0.2720 -0.5894  0.0392
  894TIP3    H126877   0.749   4.892   6.550 -0.5256 -0.4907  0.3785
  894TIP3    H226878   0.875   4.916   6.631  0.2195 -0.7827 -0.6783
  895TIP3   OH226879   5.082   6.825   9.415 -0.1319 -0.6521 -0.0730
  895TIP3    H126880   5.131   6.900   9.450 -0.7724 -0.4640  0.4553
  895TIP3    H226881   5.062   6.850   9.324  2.2740 -1.5055 -0.9079
  896TIP3   OH226882   4.292   2.731   7.669  0.3441 -0.2654  0.2031
  896TIP3    H126883   4.376   2.684   7.671 -0.0377 -0.9906 -0.2367
  896TIP3    H226884   4.251   2.711   7.753  1.1229  1.0845  0.9337
  897TIP3   OH226885   6.429   7.479   9.087  0.0023 -0.0177 -0.2854
  897TIP3    H126886   6.429   7.477   8.991 -0.9622 -2.0667 -0.2976
  897TIP3    H226887   6.381   7.400   9.112 -1.5973  1.5187  1.8684
  898TIP3   OH226888   3.771   5.765   7.859 -0.4382 -0.2094 -0.3960
  898TIP3    H126889   3.794   5.856   7.837 -1.4531 -0.1416 -1.2429
  898TIP3    H226890   3.777   5.719   7.775 -0.5154 -0.8038 -0.0738
  899TIP3   OH226891   0.245   5.780   6.623  0.3164 -0.0975 -0.4109
  899TIP3    H126892   0.338   5.799   6.639 -0.0169  0.7958  0.5420
  899TIP3    H226893   0.213   5.746   6.706 -0.2829 -0.1136 -0.6477
  900TIP3   OH226894   2.925   6.217   8.958 -0.5773  0.0350 -0.0067
  900TIP3    H126895   2.865   6.148   8.928  0.0016 -0.6291  0.3198
  900TIP3    H226896   2.868   6.292   8.975 -1.0156  0.1725 -1.9289
  901TIP3   OH226897   4.963   1.522   6.740  0.0035 -0.0303 -0.6120
  901TIP3    H126898   4.888   1.486   6.786  1.4020 -2.2851  0.0352
  901TIP3    H226899   4.955   1.490   6.651  0.2889 -0.4346 -0.4941
  902TIP3   OH226900   4.226   5.636   7.468 -0.2680  0.8471  0.0021
  902TIP3    H126901   4.251   5.557   7.420 -0.8321  1.0960 -0.7285
  902TIP3    H226902   4.303   5.659   7.520  0.0697  0.1007 -0.1600
  903TIP3   OH226903   2.220   5.161   6.985 -0.2775 -0.3902 -0.2639
  903TIP3    H126904   2.148   5.214   6.951 -1.0872 -1.5846 -0.4884
  903TIP3    H226905   2.298   5.192   6.938 -0.5342  1.2275  0.3121
  904TIP3   OH226906   2.206   2.052   7.892  0.1035 -0.0177  0.2590
  904TIP3    H126907   2.224   2.141   7.859  1.1049 -0.1410  0.4288
  904TIP3    H226908   2.112   2.051   7.908 -0.5457 -0.0487 -2.9133
  905TIP3   OH226909   5.306   4.429   7.868 -0.3338  0.5226  0.2573
  905TIP3    H126910   5.231   4.388   7.825 -1.6622  1.0101  1.9401
  905TIP3    H226911   5.348   4.481   7.800 -0.9741 -0.4988 -0.9477
  906TIP3   OH226912   1.281   5.202   7.493  0.1001  0.1525  0.5213
  906TIP3    H126913   1.366   5.241   7.472  0.7693 -2.1481 -1.4788
  906TIP3    H226914   1.292   5.168   7.582  1.9509 -1.5927 -0.2835
  907TIP3   OH226915   6.198   7.125   7.225  0.1047  0.5342 -0.0864
  907TIP3    H126916   6.124   7.090   7.274  0.7199  0.3935  0.7548
  907TIP3    H226917   6.199   7.075   7.143 -1.1210  0.9959 -0.4089
  908TIP3   OH226918   7.012   6.834   6.580  0.5527  0.1499  0.1220
  908TIP3    H126919   7.022   6.790   6.495  0.2277 -0.4618  0.3883
  908TIP3    H226920   6.919   6.857   6.583  0.7555  1.0451 -0.0928
  909TIP3   OH226921   0.772   2.516   7.812  0.1769  0.5489 -0.4496
  909TIP3    H126922   0.807   2.535   7.724  1.5877 -0.1968 -0.0721
  909TIP3    H226923   0.823   2.573   7.870  1.3840 -1.1143  0.1953
  910TIP3   OH226924   0.812   1.261   7.978  0.8890 -0.3354  0.0170
  910TIP3    H126925   0.810   1.211   8.059 -1.2798 -1.2866 -0.5396
  910TIP3    H226926   0.839   1.198   7.911 -2.1716 -1.0370 -0.7426
  911TIP3   OH226927   2.875   5.881   8.282  0.1647  0.4569 -0.1629
  911TIP3    H126928   2.820   5.954   8.255 -1.4415 -0.1452  1.2794
  911TIP3    H226929   2.935   5.919   8.346  0.5804  0.8568 -0.7790
  912TIP3   OH226930   6.563   1.968   7.347  0.4655  0.0020  0.3197
  912TIP3    H126931   6.537   2.007   7.264 -1.8310 -0.6804  0.6609
  912TIP3    H226932   6.655   1.991   7.356  1.1677 -0.9325 -2.9962
  913TIP3   OH226933   2.716   0.783   9.325  0.4294  0.6389  0.3603
  913TIP3    H126934   2.754   0.863   9.288  2.1064 -0.5831 -0.6907
  913TIP3    H226935   2.750   0.713   9.270 -2.7809 -0.6627 -0.1661
  914TIP3   OH226936   5.600   6.612   7.901  0.9038  0.2005 -0.2970
  914TIP3    H126937   5.617   6.547   7.969  1.0761  0.3517 -0.1944
  914TIP3    H226938   5.602   6.696   7.947 -1.8451  0.1520  0.0847
  915TIP3   OH226939   2.099   3.505   8.799  0.1678  0.0942  0.4022
  915TIP3    H126940   2.055   3.438   8.746 -0.6445  0.1708  0.9513
  915TIP3    H226941   2.107   3.580   8.740  1.1726 -0.5023 -0.2501
  916TIP3   OH226942   2.206   4.874   6.843 -0.1397 -0.2582  0.6171
  916TIP3    H126943   2.289   4.886   6.796  0.0416 -0.8455  0.7801
  916TIP3    H226944   2.207   4.942   6.910  0.1850 -0.2235  0.5797
  917TIP3   OH226945   4.311   6.578   9.235  0.0656  0.5379  0.0443
  917TIP3    H126946   4.378   6.512   9.253  0.6561  1.3365  0.8793
  917TIP3    H226947   4.265   6.587   9.318 -1.3465 -0.2672 -0.6230
  918TIP3   OH226948   4.324   7.546   8.657  0.3673  0.1000  0.2631
  918TIP3    H126949   4.235   7.529   8.687 -0.1128 -0.7979 -1.4871
  918TIP3    H226950   4.326   7.639   8.638  0.6390  0.6606  2.7572
  919TIP3   OH226951   0.345   0.741   8.158 -0.2304  0.3022 -0.3117
  919TIP3    H126952   0.427   0.696   8.178  0.0896  0.2787 -1.5799
  919TIP3    H226953   0.354   0.828   8.197 -0.3691 -0.3140  1.1304
  920TIP3   OH226954   2.598   3.987   7.452  0.1553 -0.1366 -0.4768
  920TIP3    H126955   2.672   3.936   7.419 -0.4822 -1.5611  0.2222
  920TIP3    H226956   2.532   3.922   7.475 -0.8316  1.0302  0.1251
  921TIP3   OH226957   7.481   2.994   7.189 -0.0548 -0.2090 -0.0277
  921TIP3    H126958   7.521   2.960   7.109  0.7559  1.1963 -0.2676
  921TIP3    H226959   7.431   3.071   7.160  2.8758  2.3451  1.0840
  922TIP3   OH226960   2.827   3.787   7.439  0.0232 -0.5974 -0.0156
  922TIP3    H126961   2.773   3.718   7.400  1.0083 -0.8488 -0.9809
  922TIP3    H226962   2.898   3.739   7.482 -0.2247 -0.2480  0.7971
  923TIP3   OH226963   4.005   5.600   9.345 -0.4391  0.2520  0.1128
  923TIP3    H126964   3.988   5.515   9.386  0.8383 -0.0105  0.1302
  923TIP3    H226965   4.040   5.578   9.258 -0.1349  0.7657  0.1045
  924TIP3   OH226966   3.455   4.891   7.856  0.0398 -0.0926 -0.1838
  924TIP3    H126967   3.365   4.877   7.886 -0.4105  0.4303 -1.2561
  924TIP3    H226968   3.475   4.814   7.804  1.0121 -1.2595  1.7744
  925TIP3   OH226969   2.222   0.407   7.379  0.3144 -0.0931 -0.3328
  925TIP3    H126970   2.229   0.393   7.473 -0.3265 -1.9847 -0.5190
  925TIP3    H226971   2.144   0.461   7.368 -0.5413 -1.1920  0.1574
  926TIP3   OH226972   7.571   5.651   9.350 -0.1927  0.7130 -0.3532
  926TIP3    H126973   7.639   5.701   9.306 -1.1958  1.2886 -1.3188
  926TIP3    H226974   7.495   5.710   9.352 -0.8278 -0.0828  0.2292
  927TIP3   OH226975   0.419   0.202   6.783  0.8434  0.0236 -0.3800
  927TIP3    H126976   0.335   0.195   6.736  0.9532 -2.2237 -0.3392
  927TIP3    H226977   0.474   0.256   6.726 -0.4644  1.1805 -0.6077
  928TIP3   OH226978   1.476   0.762   8.292 -0.0206  0.5147 -0.6141
  928TIP3    H126979   1.448   0.711   8.215 -1.4442  1.7780 -0.9791
  928TIP3    H226980   1.406   0.749   8.356  0.6290  0.3533  0.0816
  929TIP3   OH226981   6.241   7.632   8.827 -0.0465 -0.1014 -0.0394
  929TIP3    H126982   6.205   7.638   8.738  1.5560 -1.1680 -0.8186
  929TIP3    H226983   6.218   7.715   8.868 -2.6556 -0.4127 -0.7083
  930TIP3   OH226984   4.244   4.780   7.768 -0.3971 -0.6864 -0.0020
  930TIP3    H126985   4.274   4.736   7.688 -1.7134  1.3270 -1.7122
  930TIP3    H226986   4.264   4.872   7.754 -1.3771 -0.1765  1.6712
  931TIP3   OH226987   7.011   4.255   7.795  0.6278 -0.2482  0.8888
  931TIP3    H126988   7.078   4.200   7.754  1.2331  1.3954 -0.4596
  931TIP3    H226989   7.002   4.330   7.736 -1.3149  0.3318  1.8334
  932TIP3   OH226990   6.418   4.595   7.454  0.0805 -0.5307 -0.1084
  932TIP3    H126991   6.388   4.608   7.364 -0.7618  1.1446  0.3609
  932TIP3    H226992   6.359   4.530   7.490  0.2302 -0.9838 -0.6568
  933TIP3   OH226993   6.326   4.357   7.565  0.0317 -0.0396  0.4430
  933TIP3    H126994   6.283   4.292   7.510  2.5736 -0.1677 -1.5923
  933TIP3    H226995   6.285   4.346   7.651 -0.8911 -3.1067 -0.2421
  934TIP3   OH226996   0.976   0.276   8.427 -0.9548 -0.4712  0.0121
  934TIP3    H126997   0.886   0.248   8.411 -1.0547 -1.1356  1.5305
  934TIP3    H226998   0.978   0.296   8.521  0.4695 -0.4245 -0.0082
  935TIP3   OH226999   5.786   5.079   8.172 -0.1398  0.2657  0.3463
  935TIP3    H127000   5.756   5.033   8.094  0.8846 -2.1160  1.2250
  935TIP3    H227001   5.864   5.127   8.143  0.2042 -0.5610 -0.1557
  936TIP3   OH227002   2.626   6.615   7.389  0.4846 -0.7139  0.6543
  936TIP3    H127003   2.631   6.642   7.297  0.7323 -0.7593  0.6544
  936TIP3    H227004   2.716   6.593   7.412  0.4459 -0.5482  0.9572
  937TIP3   OH227005   3.277   2.289   8.336  0.2937 -0.4831  0.0906
  937TIP3    H127006   3.239   2.202   8.328  0.7894 -0.5704 -5.0512
  937TIP3    H227007   3.202   2.348   8.332  0.0889 -0.6316  1.4720
  938TIP3   OH227008   3.635   6.219   7.874 -0.2128  0.3948  0.0259
  938TIP3    H127009   3.558   6.254   7.919 -0.1453 -0.4962  0.8579
  938TIP3    H227010   3.709   6.253   7.924 -0.1331 -0.5123  0.5352
  939TIP3   OH227011   3.143   0.016   8.037 -0.0972 -0.3580  0.4178
  939TIP3    H127012   3.110   0.068   7.964  0.9074 -0.1905  0.0593
  939TIP3    H227013   3.065  -0.024   8.076 -0.5977 -1.2462 -1.3684
  940TIP3   OH227014   0.651   3.484   7.019  0.2646  0.2176  0.2070
  940TIP3    H127015   0.660   3.481   6.923 -1.7694 -0.2106 -0.0213
  940TIP3    H227016   0.696   3.564   7.045  1.2057  0.1351 -1.0528
  941TIP3   OH227017   5.722   7.311   8.744 -0.2629  0.1069  0.4426
  941TIP3    H127018   5.694   7.304   8.835 -0.3665 -1.3388  0.3283
  941TIP3    H227019   5.782   7.237   8.732  1.8057  1.7397  0.0195
  942TIP3   OH227020   0.743   6.121   7.845  0.2426  0.0586 -0.7631
  942TIP3    H127021   0.822   6.107   7.792  1.6626  0.4054  1.1744
  942TIP3    H227022   0.773   6.115   7.935 -1.4477  2.6849  0.0872
  943TIP3   OH227023   7.643   2.531   8.855  0.4193  0.1853  0.1603
  943TIP3    H127024   7.685   2.591   8.793 -0.0179 -0.1510 -0.4678
  943TIP3    H227025   7.555   2.567   8.868  0.2597 -0.1523  0.0184
  944TIP3   OH227026   6.555   1.981   8.380  0.0287  0.1165 -0.2979
  944TIP3    H127027   6.562   2.076   8.391  2.4206 -0.0134 -0.1714
  944TIP3    H227028   6.621   1.945   8.441 -1.1071 -1.6524 -0.0472
  945TIP3   OH227029   7.568   4.491   9.197 -0.2379  0.8971 -0.2970
  945TIP3    H127030   7.533   4.575   9.227 -1.0055  0.8743 -1.0895
  945TIP3    H227031   7.502   4.457   9.136 -0.2694 -0.5959  0.5047
  946TIP3   OH227032   3.028   0.459   7.843  0.4105  0.2639  0.1651
  946TIP3    H127033   3.094   0.525   7.822 -0.4454  1.2895  0.5762
  946TIP3    H227034   2.960   0.470   7.777 -0.7345  1.2706  1.4421
  947TIP3   OH227035   5.417   6.646   7.042  0.0253 -1.1513 -0.4126
  947TIP3    H127036   5.501   6.603   7.022  0.3552  0.4041 -2.6893
  947TIP3    H227037   5.356   6.610   6.978 -1.3736 -2.8248  1.6758
  948TIP3   OH227038   0.681   6.544   7.199 -0.1206 -0.8126 -0.4152
  948TIP3    H127039   0.711   6.492   7.124  2.0309 -0.9144  0.4305
  948TIP3    H227040   0.762   6.576   7.239 -1.3120  1.3384  0.4209
  949TIP3   OH227041   4.260   2.226   7.953 -0.1509 -0.2313 -0.0436
  949TIP3    H127042   4.250   2.155   8.017  0.0256  0.1970  0.4637
  949TIP3    H227043   4.180   2.277   7.961 -0.5835 -0.7579 -0.8985
  950TIP3   OH227044   5.309   6.299   8.182  0.5510 -0.2659  0.0850
  950TIP3    H127045   5.396   6.329   8.207  0.8281  0.9775 -2.0588
  950TIP3    H227046   5.290   6.347   8.101 -2.5585  0.2934  1.0024
  951TIP3   OH227047   5.815   4.003   8.706  0.3973  0.4744 -0.5766
  951TIP3    H127048   5.750   4.029   8.772  1.1112 -1.9131  1.2085
  951TIP3    H227049   5.764   3.956   8.640  0.0495  0.0994 -0.0564
  952TIP3   OH227050   2.128   4.176   6.748 -0.4789  0.2079  0.0940
  952TIP3    H127051   2.090   4.259   6.721 -0.6424 -0.9058 -3.6119
  952TIP3    H227052   2.202   4.200   6.804  0.2834  2.9438 -1.9080
  953TIP3   OH227053   2.845   5.319   7.723  0.2735  0.0146 -0.5958
  953TIP3    H127054   2.925   5.351   7.680  1.2208 -2.7223 -1.0425
  953TIP3    H227055   2.798   5.271   7.655 -0.1667 -1.0584  0.4235
  954TIP3   OH227056   6.450   5.186   6.798  0.0151  0.1882 -0.4478
  954TIP3    H127057   6.416   5.100   6.823  1.7564 -0.2440  0.5803
  954TIP3    H227058   6.476   5.177   6.707 -1.0392  0.0374 -0.7424
  955TIP3   OH227059   4.087   2.852   9.039  0.3800  0.0874  0.4180
  955TIP3    H127060   4.061   2.942   9.020  0.1971 -0.3450 -1.6037
  955TIP3    H227061   4.173   2.844   8.999 -0.5581 -1.2528 -1.4615
  956TIP3   OH227062   3.595   4.591   6.901 -0.1791 -0.1412  0.2014
  956TIP3    H127063   3.541   4.623   6.828  1.4435  0.5324 -0.7727
  956TIP3    H227064   3.589   4.660   6.967  1.5399  1.2282 -0.9911
  957TIP3   OH227065   1.128   4.694   9.014  0.8113 -0.6502  0.0675
  957TIP3    H127066   1.201   4.633   9.017  0.1517 -1.7679 -2.7982
  957TIP3    H227067   1.066   4.662   9.079  1.8206 -1.1470  0.7931
  958TIP3   OH227068   5.327   5.192   7.705 -0.3607 -0.2895 -0.1578
  958TIP3    H127069   5.366   5.279   7.712  0.8824 -0.8642  0.3620
  958TIP3    H227070   5.309   5.181   7.611 -0.5560  0.5197 -0.2240
  959TIP3   OH227071   3.389   3.324   8.598  0.0077  0.0372 -0.6920
  959TIP3    H127072   3.337   3.370   8.531  0.7471  0.8172 -0.7501
  959TIP3    H227073   3.472   3.306   8.554 -0.5151 -2.0662 -0.9168
  960TIP3   OH227074   2.066   3.697   8.608  0.5069 -0.1902  0.2523
  960TIP3    H127075   1.991   3.724   8.554 -1.0839 -3.3495  0.6602
  960TIP3    H227076   2.141   3.701   8.549  0.1195  3.0127 -0.1861
  961TIP3   OH227077   3.496   2.764   9.382 -0.0308 -0.0658 -0.4302
  961TIP3    H127078   3.558   2.834   9.358 -0.2692 -0.5386 -2.6206
  961TIP3    H227079   3.434   2.807   9.441  0.6579  1.1966 -0.5718
  962TIP3   OH227080   5.988   5.590   8.737  0.9149  0.8382 -0.0647
  962TIP3    H127081   6.013   5.629   8.821  0.0902 -0.0952  0.6400
  962TIP3    H227082   6.042   5.635   8.673  0.6940  2.4578  0.8161
  963TIP3   OH227083   5.040   6.411   7.760  0.1089 -0.2592 -0.2186
  963TIP3    H127084   5.081   6.370   7.684  1.0994 -0.0890  0.1989
  963TIP3    H227085   5.058   6.504   7.750 -0.7543 -0.1046 -0.3558
  964TIP3   OH227086   6.520   7.220   6.838  0.1663 -0.1048 -0.2207
  964TIP3    H127087   6.473   7.241   6.918 -0.1684 -0.2307 -0.3782
  964TIP3    H227088   6.472   7.145   6.802 -0.7276  0.9851 -1.3987
  965TIP3   OH227089   7.094   2.576   8.819 -0.2392 -0.0661  0.2400
  965TIP3    H127090   7.067   2.647   8.877 -0.5595 -0.1218  0.1622
  965TIP3    H227091   7.062   2.497   8.861  0.2075 -0.1749  0.3785
  966TIP3   OH227092   1.313   6.508   7.578  0.8344 -0.6766 -0.5192
  966TIP3    H127093   1.223   6.488   7.602  0.1608  1.1974 -1.2719
  966TIP3    H227094   1.365   6.481   7.653 -0.5657 -0.0905  0.7038
  967TIP3   OH227095   0.775   2.571   7.519  0.3354 -0.5841  0.1751
  967TIP3    H127096   0.825   2.490   7.517 -1.0578 -1.4684 -2.0975
  967TIP3    H227097   0.794   2.614   7.436 -1.5452 -0.2792 -0.1540
  968TIP3   OH227098   0.006   4.527   8.253  0.3572  0.9518 -0.2888
  968TIP3    H127099   0.034   4.618   8.255 -1.3019  1.4891  0.6298
  968TIP3    H227100   0.044   4.488   8.332 -0.0628  1.2257  0.0526
  969TIP3   OH227101   5.800   6.344   8.847 -0.0099  0.2090 -0.4964
  969TIP3    H127102   5.871   6.310   8.792 -0.1500 -0.8589 -0.0534
  969TIP3    H227103   5.842   6.410   8.901  0.1893  1.0920 -1.6786
  970TIP3   OH227104   1.795   2.813   9.298  0.2553 -0.1664  0.3093
  970TIP3    H127105   1.806   2.838   9.206  0.0682 -1.7391 -0.1683
  970TIP3    H227106   1.874   2.846   9.341 -0.3645  1.9765 -0.0671
  971TIP3   OH227107   7.341   3.301   8.162 -0.4766  0.7202 -0.5559
  971TIP3    H127108   7.286   3.374   8.191 -1.0064  0.2179 -0.2745
  971TIP3    H227109   7.395   3.281   8.238  0.9909  1.9967 -1.2013
  972TIP3   OH227110   3.388   7.568   8.089 -0.0266 -0.3114 -0.0315
  972TIP3    H127111   3.438   7.594   8.012 -0.1838  1.1342  0.3270
  972TIP3    H227112   3.305   7.614   8.082 -0.6467 -1.3451  0.2558
  973TIP3   OH227113   4.562   2.869   7.593 -0.3023 -0.8666 -0.2716
  973TIP3    H127114   4.561   2.826   7.678  0.7937 -1.1781 -0.4089
  973TIP3    H227115   4.647   2.912   7.588 -1.3108  1.2775 -0.1910
  974TIP3   OH227116   3.309   3.520   7.190  0.1162  0.4244  0.9278
  974TIP3    H127117   3.246   3.592   7.196 -1.0844 -0.7431  3.2838
  974TIP3    H227118   3.309   3.497   7.097  0.0507  2.9860  0.2133
  975TIP3   OH227119   6.080   5.003   9.532  0.1189 -0.0970  0.0638
  975TIP3    H127120   6.163   5.043   9.505 -1.2301  4.3855  1.5674
  975TIP3    H227121   6.026   5.005   9.453  0.0959  1.1935  0.0916
  976TIP3   OH227122   4.043   6.584   7.270  0.5932  0.6701 -0.3240
  976TIP3    H127123   4.001   6.662   7.234 -1.2476  0.2807  0.8658
  976TIP3    H227124   4.038   6.596   7.364  0.7022 -0.6870 -0.1371
  977TIP3   OH227125   0.675   6.636   8.693  0.4335 -0.1301 -0.4548
  977TIP3    H127126   0.638   6.558   8.653  0.2867 -0.9210  1.1644
  977TIP3    H227127   0.762   6.644   8.652  0.4037 -1.0559 -0.7352
  978TIP3   OH227128   7.174   2.541   7.076 -0.5754  0.2947 -0.7298
  978TIP3    H127129   7.092   2.524   7.122  0.2864 -0.5620  0.5820
  978TIP3    H227130   7.203   2.626   7.108  1.4847 -1.5098  2.7965
  979TIP3   OH227131   5.906   0.249   8.261 -0.1032  0.6464 -0.0740
  979TIP3    H127132   5.897   0.226   8.168  0.6603  1.7741 -0.4590
  979TIP3    H227133   5.835   0.312   8.276  0.5255  1.4331 -0.2645
  980TIP3   OH227134   5.128   3.503   7.013 -0.3914  0.1805  0.4264
  980TIP3    H127135   5.147   3.591   7.044  0.5212  0.3477 -0.5144
  980TIP3    H227136   5.212   3.457   7.019 -0.6902 -0.4016  0.2248
  981TIP3   OH227137   5.474   5.820   7.723  0.4596 -0.5091 -0.1004
  981TIP3    H127138   5.423   5.787   7.797  0.9721 -1.5529 -0.1907
  981TIP3    H227139   5.418   5.887   7.683 -0.0388 -0.3122  0.9115
  982TIP3   OH227140   0.146   6.882   8.700  0.7304 -0.2586 -0.4245
  982TIP3    H127141   0.155   6.973   8.672  0.8399  0.1045  0.7398
  982TIP3    H227142   0.105   6.838   8.626 -1.0660  1.1314 -0.3308
  983TIP3   OH227143   5.236   5.058   8.476  0.0647  0.5727  0.1493
  983TIP3    H127144   5.157   5.043   8.527  0.1877  2.6636  1.0744
  983TIP3    H227145   5.207   5.062   8.386 -0.7517  0.4861  0.4065
  984TIP3   OH227146   5.488   0.976   8.284 -0.4949 -0.6724 -0.0295
  984TIP3    H127147   5.514   0.998   8.195 -1.3577 -0.3664 -0.2225
  984TIP3    H227148   5.531   1.041   8.339  0.0117 -0.8416 -0.2248
  985TIP3   OH227149   2.576   0.737   8.414 -0.4225  0.0812  0.3098
  985TIP3    H127150   2.532   0.767   8.493 -0.2546  0.0468  0.4162
  985TIP3    H227151   2.660   0.701   8.444 -0.2551  0.2806  0.0955
  986TIP3   OH227152   6.489   7.529   8.440 -0.0376 -0.4384  0.1197
  986TIP3    H127153   6.535   7.550   8.359 -0.4657 -0.9121 -0.2608
  986TIP3    H227154   6.461   7.438   8.428 -0.0572 -0.5318  0.8269
  987TIP3   OH227155   5.118   0.760   7.361  0.1673  0.2311  0.0990
  987TIP3    H127156   5.115   0.811   7.280  1.6783 -0.7294 -0.6091
  987TIP3    H227157   5.095   0.671   7.334  0.3348 -0.0273  0.7977
  988TIP3   OH227158   4.120   7.023   9.506 -0.7761  0.1120 -0.1664
  988TIP3    H127159   4.081   7.109   9.519  0.2607  0.6585 -0.5221
  988TIP3    H227160   4.116   7.008   9.411 -0.0449  0.2232 -0.2189
  989TIP3   OH227161   0.432   2.493   9.092 -0.3205  0.1822  0.4523
  989TIP3    H127162   0.469   2.534   9.170 -1.0597  0.9597  0.4167
  989TIP3    H227163   0.475   2.408   9.086  0.4675  0.5201  1.1429
  990TIP3   OH227164   7.426   6.978   7.636  1.0812  0.4387  0.1051
  990TIP3    H127165   7.460   7.058   7.596  0.8353 -0.8545 -3.0044
  990TIP3    H227166   7.331   6.986   7.629  1.0686 -0.4152 -0.9828
  991TIP3   OH227167   5.117   5.662   8.429 -0.3850  0.3104 -0.2429
  991TIP3    H127168   5.116   5.574   8.468  1.2519 -0.5020 -1.8424
  991TIP3    H227169   5.125   5.721   8.503  0.1970 -1.0098  0.8061
  992TIP3   OH227170   4.088   7.015   7.145 -0.5256 -0.1629 -0.1904
  992TIP3    H127171   4.093   7.021   7.049 -1.4507  2.3036 -0.1473
  992TIP3    H227172   4.015   7.073   7.169 -1.6456 -2.2702  1.9035
  993TIP3   OH227173   0.614   4.313   8.857 -0.4941 -0.1402  0.0176
  993TIP3    H127174   0.522   4.295   8.878 -0.8119  0.4352 -0.8585
  993TIP3    H227175   0.657   4.228   8.867 -0.5819  0.0453  3.0251
  994TIP3   OH227176   6.358   5.684   8.207  0.1588  0.2192 -0.0373
  994TIP3    H127177   6.295   5.710   8.141 -1.5141 -2.2387  0.4525
  994TIP3    H227178   6.383   5.594   8.183 -1.6460 -1.3611  3.2991
  995TIP3   OH227179   4.339   6.032   8.566 -0.3451 -0.6287 -0.2458
  995TIP3    H127180   4.433   6.038   8.551 -0.2369 -0.3319  0.5024
  995TIP3    H227181   4.300   6.034   8.478  0.3195 -0.3342 -0.5380
  996TIP3   OH227182   5.195   5.838   6.548  0.1826 -0.2069 -0.1285
  996TIP3    H127183   5.219   5.747   6.563 -0.0428  0.0208  1.7899
  996TIP3    H227184   5.248   5.865   6.473 -0.3435 -2.1301 -1.2473
  997TIP3   OH227185   7.033   5.388   7.496 -0.4258 -0.3261 -0.1364
  997TIP3    H127186   7.036   5.305   7.450 -0.5427 -2.0731  2.7580
  997TIP3    H227187   6.943   5.395   7.529 -0.3984  0.9186 -0.2517
  998TIP3   OH227188   6.712   1.168   7.288  0.3919 -0.4993 -0.0130
  998TIP3    H127189   6.760   1.221   7.224 -0.4048 -1.1533 -1.1906
  998TIP3    H227190   6.778   1.143   7.353  1.1584  0.4293 -0.4166
  999TIP3   OH227191   2.094   7.349   8.331 -0.5554 -0.6765 -0.4259
  999TIP3    H127192   2.156   7.286   8.294 -0.4150 -1.0344  0.4184
  999TIP3    H227193   2.114   7.431   8.285  1.1658 -0.5576  0.4752
 1000TIP3   OH227194   5.466   0.752   8.656 -0.3226  0.5099 -0.5107
 1000TIP3    H127195   5.449   0.744   8.750  0.0982  3.1699 -0.1199
 1000TIP3    H227196   5.510   0.671   8.633  1.7871  0.7326  2.1650
 1001TIP3   OH227197   0.720   1.726   9.016  0.4028 -0.3624  0.4586
 1001TIP3    H127198   0.686   1.703   9.102  2.1828  0.1091  1.3343
 1001TIP3    H227199   0.794   1.666   9.003  0.2826 -0.2853 -0.6620
 1002TIP3   OH227200   1.380   7.037   7.314  0.0785  0.0704 -0.3545
 1002TIP3    H127201   1.339   6.951   7.303  3.0200 -1.2754 -1.8302
 1002TIP3    H227202   1.325   7.097   7.263 -1.9238 -0.8841  0.5496
 1003TIP3   OH227203   6.707   2.766   9.198 -0.5393 -0.5698 -0.9117
 1003TIP3    H127204   6.615   2.777   9.223 -0.3925 -1.4104  0.1037
 1003TIP3    H227205   6.716   2.671   9.183  0.5934 -0.8163  0.9586
 1004TIP3   OH227206   2.605   2.799   7.350 -0.0922 -0.0876  1.0078
 1004TIP3    H127207   2.595   2.814   7.256  2.3088  0.5028  0.7902
 1004TIP3    H227208   2.524   2.832   7.389 -0.4865  1.0640 -0.7168
 1005TIP3   OH227209   5.646   7.554   8.134  0.6277 -0.1814  0.1644
 1005TIP3    H127210   5.643   7.518   8.045  0.0337 -2.1292  0.9117
 1005TIP3    H227211   5.729   7.600   8.139  2.6791 -3.5090 -0.2096
 1006TIP3   OH227212   7.162   7.275   8.770  0.0590  0.3488  0.4349
 1006TIP3    H127213   7.252   7.293   8.744 -0.0107 -0.3401 -0.3276
 1006TIP3    H227214   7.117   7.359   8.759 -0.0740  0.0398 -2.2449
 1007TIP3   OH227215   2.936   4.030   8.784 -0.2386  0.2681 -0.1562
 1007TIP3    H127216   3.026   3.998   8.798 -0.2041  0.4416  0.0266
 1007TIP3    H227217   2.922   4.093   8.855 -2.3175 -3.4418  3.1373
 1008TIP3   OH227218   3.282   0.777   9.198  0.1851  0.4357 -0.8078
 1008TIP3    H127219   3.274   0.734   9.113  1.6272  1.6699 -1.6320
 1008TIP3    H227220   3.374   0.764   9.222 -0.5620 -1.3050  1.3975
 1009TIP3   OH227221   1.540   3.168   7.989 -0.0493 -0.3625 -0.1321
 1009TIP3    H127222   1.452   3.188   7.957 -0.4039 -1.4794  0.1133
 1009TIP3    H227223   1.531   3.163   8.084  0.5543  0.7727  0.0048
 1010TIP3   OH227224   2.832   1.057   9.287  0.4242 -0.1863  0.6373
 1010TIP3    H127225   2.880   0.997   9.345 -0.3484 -0.4375  1.0289
 1010TIP3    H227226   2.896   1.082   9.221  0.8556 -1.1990  0.6477
 1011TIP3   OH227227   3.636   4.145   7.735  0.1508 -0.2772 -0.3218
 1011TIP3    H127228   3.607   4.072   7.790  0.0418  0.0993  0.1342
 1011TIP3    H227229   3.684   4.105   7.663 -0.1383 -0.8112 -0.2164
 1012TIP3   OH227230   0.048   3.936   7.333  0.0677 -0.7617 -0.1007
 1012TIP3    H127231   0.133   3.892   7.324 -0.4619 -2.3971  2.1631
 1012TIP3    H227232  -0.016   3.868   7.315 -0.7714 -0.5362  1.8159
 1013TIP3   OH227233   4.061   2.111   8.725 -0.2187 -0.1180 -0.1527
 1013TIP3    H127234   3.996   2.140   8.661  2.3375  0.9329 -2.4727
 1013TIP3    H227235   4.099   2.192   8.759  0.9464 -0.6957 -0.0281
 1014TIP3   OH227236   5.778   7.633   9.497 -0.1147 -0.3166 -0.1030
 1014TIP3    H127237   5.844   7.666   9.436 -1.5138  0.0067 -1.5197
 1014TIP3    H227238   5.826   7.616   9.578  1.4878  0.9235 -0.7401
 1015TIP3   OH227239   1.237   3.104   7.520  0.5155  0.4050  0.2255
 1015TIP3    H127240   1.170   3.068   7.462 -0.6470 -0.6209  2.1241
 1015TIP3    H227241   1.214   3.197   7.528  0.7501  0.5884 -0.9657
 1016TIP3   OH227242   3.021   7.586   7.644  0.7511  0.0363 -0.2039
 1016TIP3    H127243   3.056   7.506   7.682 -0.6369  0.1899  1.5255
 1016TIP3    H227244   2.967   7.557   7.571  0.6157 -0.5794  0.1377
 1017TIP3   OH227245   4.011   4.266   8.865  0.2314 -0.6610  0.0509
 1017TIP3    H127246   4.079   4.295   8.926  0.4157  0.1589 -0.5248
 1017TIP3    H227247   3.942   4.333   8.873  0.2833 -0.5142 -0.6768
 1018TIP3   OH227248   5.661   7.458   7.213  0.4663 -0.1477  0.6047
 1018TIP3    H127249   5.735   7.399   7.199 -0.1861 -0.6188 -1.1444
 1018TIP3    H227250   5.595   7.405   7.258  0.4959 -0.2670  0.5067
 1019TIP3   OH227251   4.979   4.207   8.659 -0.1038  0.2457 -0.1309
 1019TIP3    H127252   4.998   4.266   8.586  0.0888  0.7231  0.2992
 1019TIP3    H227253   4.981   4.264   8.737  1.8689 -0.6154  0.5237
 1020TIP3   OH227254   6.493   4.478   8.275  0.1167  0.3369  0.2114
 1020TIP3    H127255   6.507   4.420   8.200 -0.1206 -2.6659  2.3208
 1020TIP3    H227256   6.421   4.535   8.248 -0.0879 -0.7762 -1.7522
 1021TIP3   OH227257   4.619   5.841   8.596 -0.5227  0.0078  0.5299
 1021TIP3    H127258   4.525   5.823   8.597 -0.7938  1.2920  1.5714
 1021TIP3    H227259   4.625   5.930   8.561  0.2521  0.2106  1.1696
 1022TIP3   OH227260   3.588   3.860   6.751 -0.5177  0.0739  0.2732
 1022TIP3    H127261   3.680   3.884   6.741 -0.2903 -0.7850  0.1657
 1022TIP3    H227262   3.584   3.769   6.720 -0.2974 -1.8412  5.0224
 1023TIP3   OH227263   1.216   0.898   7.054  0.7967 -0.1464  0.1741
 1023TIP3    H127264   1.266   0.961   7.106  0.7274  0.6536 -0.6942
 1023TIP3    H227265   1.152   0.951   7.007  1.5218 -0.6768 -1.4995
 1024TIP3   OH227266   1.681   4.746   8.183  0.0520 -0.1563 -0.3184
 1024TIP3    H127267   1.615   4.807   8.215  0.6474  0.5934 -0.5080
 1024TIP3    H227268   1.679   4.756   8.088  0.3467 -0.2234 -0.3316
 1025TIP3   OH227269   3.386   6.560   8.928 -0.6244 -0.5403  0.3229
 1025TIP3    H127270   3.393   6.496   8.999  0.9204 -0.0397  0.6636
 1025TIP3    H227271   3.448   6.629   8.952  0.1365 -0.4772 -1.6416
 1026TIP3   OH227272   0.799   3.103   8.197 -0.1156 -1.2211  0.3024
 1026TIP3    H127273   0.780   3.118   8.290  1.1919  0.7766  0.3257
 1026TIP3    H227274   0.718   3.127   8.152 -0.2915 -0.7205  0.8588
 1027TIP3   OH227275   2.354   3.663   7.380  0.0622  0.2934  0.2467
 1027TIP3    H127276   2.289   3.623   7.437  0.5620 -0.5986  0.2068
 1027TIP3    H227277   2.414   3.709   7.439  0.1491  0.0013  0.3872
 1028TIP3   OH227278   1.724   0.659   8.409  0.0665 -0.1164  0.0150
 1028TIP3    H127279   1.631   0.668   8.389  0.2491  0.3430 -0.6846
 1028TIP3    H227280   1.736   0.706   8.492 -0.1185  0.8512 -0.4888
 1029TIP3   OH227281   7.418   6.163   8.288  0.0305 -0.1453  0.5489
 1029TIP3    H127282   7.473   6.128   8.219  1.0038  2.9582 -0.4081
 1029TIP3    H227283   7.472   6.157   8.367 -0.9659 -3.3901  1.1420
 1030TIP3   OH227284   2.100   2.804   8.654 -0.1635  0.4466 -0.3295
 1030TIP3    H127285   2.143   2.884   8.683  1.3129 -0.4556  0.1056
 1030TIP3    H227286   2.158   2.768   8.587 -0.4195 -0.6220 -0.0088
 1031TIP3   OH227287   7.535   3.162   9.670 -0.0046  0.6885 -0.8518
 1031TIP3    H127288   7.486   3.099   9.617  0.6465  1.6616 -2.6964
 1031TIP3    H227289   7.571   3.110   9.741 -0.0261 -0.9174 -1.9521
 1032TIP3   OH227290   1.777   3.792   6.853  0.0178 -0.2877 -0.7687
 1032TIP3    H127291   1.728   3.734   6.794  0.7925  0.1537 -1.8973
 1032TIP3    H227292   1.735   3.782   6.938 -0.6655 -1.5319 -1.2300
 1033TIP3   OH227293   2.787   2.666   9.322 -0.1418 -0.0178 -0.4570
 1033TIP3    H127294   2.820   2.729   9.258  1.7636  2.1884  2.4438
 1033TIP3    H227295   2.704   2.704   9.352 -0.3336 -0.3156 -0.6062
 1034TIP3   OH227296   5.677   1.309   7.631  0.2980  0.3464 -0.0724
 1034TIP3    H127297   5.610   1.250   7.598  0.6606 -0.7389  1.0555
 1034TIP3    H227298   5.756   1.255   7.636  0.3878  0.5852  2.0149
 1035TIP3   OH227299   2.655   6.647   8.518 -0.3505  0.6743  0.8370
 1035TIP3    H127300   2.669   6.724   8.574  0.7151  0.9487  0.1993
 1035TIP3    H227301   2.718   6.582   8.549 -0.3211  0.5315  0.4842
 1036TIP3   OH227302   2.780   2.378   7.485 -0.1764 -0.0985  0.0491
 1036TIP3    H127303   2.857   2.426   7.456 -1.3293  1.3821 -0.7678
 1036TIP3    H227304   2.755   2.421   7.567 -1.1092  0.6441 -0.5903
 1037TIP3   OH227305   2.263   2.861   9.046  0.0618 -0.1817  0.3993
 1037TIP3    H127306   2.213   2.941   9.061  0.7815  0.3148  0.2142
 1037TIP3    H227307   2.201   2.801   9.004 -0.2810  0.5400 -0.1401
 1038TIP3   OH227308   3.034   5.830   9.413  0.0349 -0.5568  0.1551
 1038TIP3    H127309   3.122   5.800   9.436 -0.2628 -0.2704  1.8619
 1038TIP3    H227310   2.982   5.750   9.408 -0.1141 -0.5891  1.6795
 1039TIP3   OH227311   4.142   3.894   8.859 -0.2180  0.7936  0.4389
 1039TIP3    H127312   4.127   3.821   8.799  0.4045  1.7314 -0.9134
 1039TIP3    H227313   4.058   3.908   8.902 -0.8754  0.5426 -0.7336
 1040TIP3   OH227314   4.560   2.019   9.125  0.0669  0.0653  0.4950
 1040TIP3    H127315   4.520   2.094   9.081 -0.2849 -1.6277 -2.3384
 1040TIP3    H227316   4.650   2.046   9.141 -0.5213  1.7163  1.2491
 1041TIP3   OH227317   2.038   1.287   8.721 -0.2813  0.6181  0.2455
 1041TIP3    H127318   2.022   1.256   8.632  2.2292  1.0241 -0.4160
 1041TIP3    H227319   2.078   1.212   8.765 -3.1585 -0.2164  1.6899
 1042TIP3   OH227320   7.203   3.147   7.477  0.0641  0.6118  0.1484
 1042TIP3    H127321   7.189   3.060   7.440  1.4207 -0.6013  2.2999
 1042TIP3    H227322   7.226   3.131   7.569 -0.3807  3.2933  0.8104
 1043TIP3   OH227323   4.217   1.114   8.865 -0.5876 -0.3340  0.2745
 1043TIP3    H127324   4.312   1.110   8.854 -0.3503  2.3937  0.6348
 1043TIP3    H227325   4.191   1.024   8.881  1.7220 -1.3999 -1.3428
 1044TIP3   OH227326   7.277   4.974   7.856 -0.1021  0.3023  0.3073
 1044TIP3    H127327   7.306   5.055   7.899  1.4256 -0.9270  1.7368
 1044TIP3    H227328   7.220   4.932   7.921  0.9868 -0.8348  0.5727
 1045TIP3   OH227329   4.005   3.492   7.500  0.5504  0.5093 -0.0933
 1045TIP3    H127330   3.922   3.537   7.518  0.8525  1.3085 -0.6425
 1045TIP3    H227331   4.043   3.540   7.426  0.9759 -0.5385 -0.5823
 1046TIP3   OH227332   4.560   6.013   9.393  0.1422  0.7267  0.3750
 1046TIP3    H127333   4.521   6.026   9.306  0.0916  0.3518  0.3387
 1046TIP3    H227334   4.543   6.095   9.439 -0.2025  0.7731  0.1717
 1047TIP3   OH227335   5.586   4.168   7.979 -0.0941 -0.5716  0.1511
 1047TIP3    H127336   5.640   4.231   7.932 -1.3879 -1.0661 -2.1415
 1047TIP3    H227337   5.512   4.220   8.012  0.5808 -0.3074  1.2837
 1048TIP3   OH227338   7.457   1.522   7.584  0.1305  0.4076 -0.0682
 1048TIP3    H127339   7.472   1.616   7.590 -1.2402  0.6705 -0.3074
 1048TIP3    H227340   7.399   1.502   7.657  1.8646 -0.6135  1.0957
 1049TIP3   OH227341   5.953   2.029   8.169 -0.3151 -0.2947  0.1957
 1049TIP3    H127342   5.966   1.980   8.088  0.8968  2.2946 -1.3233
 1049TIP3    H227343   6.026   2.003   8.225 -0.2764 -0.9644 -0.1637
 1050TIP3   OH227344   1.923   3.633   9.040 -0.2272 -0.2434 -0.0129
 1050TIP3    H127345   1.963   3.557   8.997 -1.7071 -1.3019  0.4036
 1050TIP3    H227346   1.977   3.707   9.013  0.9949 -1.3775 -0.7914
 1051TIP3   OH227347   3.529   1.073   8.798 -0.5128  0.1762  0.0556
 1051TIP3    H127348   3.481   0.992   8.784  1.1964 -0.6833 -1.2783
 1051TIP3    H227349   3.598   1.072   8.731  0.0067  2.3821  0.4667
 1052TIP3   OH227350   0.251   4.497   9.088 -0.0006  0.0308  0.0582
 1052TIP3    H127351   0.290   4.584   9.078  0.8013 -0.4358 -1.1816
 1052TIP3    H227352   0.174   4.511   9.142  0.0042  1.5568 -0.2908
 1053TIP3   OH227353   4.863   4.915   8.853 -0.6691 -0.5304  0.1829
 1053TIP3    H127354   4.808   4.837   8.860  1.5817 -2.0934  2.4344
 1053TIP3    H227355   4.888   4.935   8.943  1.1549  1.0152 -0.5967
 1054TIP3   OH227356   4.309   4.233   7.433 -0.0841  0.0900 -0.0294
 1054TIP3    H127357   4.353   4.153   7.404 -0.0349  0.5603 -1.3243
 1054TIP3    H227358   4.368   4.304   7.406 -1.2209  0.6856 -1.0248
 1055TIP3   OH227359   6.009   4.822   8.070  0.1929 -0.4155  0.9327
 1055TIP3    H127360   5.919   4.846   8.051  1.1159  1.9668 -0.9951
 1055TIP3    H227361   6.025   4.743   8.019 -0.9416 -1.2404  1.8060
 1056TIP3   OH227362   2.583   6.090   8.603  0.7202  0.0476  0.1062
 1056TIP3    H127363   2.516   6.157   8.586  1.5401  1.0153  0.5229
 1056TIP3    H227364   2.559   6.017   8.547 -0.6765  0.3741  0.2388
 1057TIP3   OH227365   7.126   5.360   9.235 -0.7887 -0.4357 -0.5508
 1057TIP3    H127366   7.049   5.304   9.234 -0.7152 -0.5348 -0.6747
 1057TIP3    H227367   7.161   5.350   9.324 -0.0878 -1.5368 -0.9252
 1058TIP3   OH227368   2.817   5.015   8.405  0.3067 -0.6095 -0.4084
 1058TIP3    H127369   2.912   5.018   8.398  0.5153  1.9308  1.7636
 1058TIP3    H227370   2.797   4.925   8.432  1.9235 -1.5025 -2.0288
 1059TIP3   OH227371   1.856   6.322   7.130 -0.1985  0.1905  0.4159
 1059TIP3    H127372   1.885   6.386   7.065 -0.4258 -1.3756 -1.3053
 1059TIP3    H227373   1.931   6.264   7.142 -0.8829 -0.8440 -0.1699
 1060TIP3   OH227374   7.524   2.073   8.481  0.3836 -0.7764 -0.4477
 1060TIP3    H127375   7.457   2.019   8.524  1.6274 -2.3425 -0.3891
 1060TIP3    H227376   7.509   2.060   8.387 -0.8076  0.7268 -0.5072
 1061TIP3   OH227377   1.873   4.048   6.632 -0.6928  0.5710 -0.5328
 1061TIP3    H127378   1.937   3.978   6.624 -0.9231 -0.0562  2.2323
 1061TIP3    H227379   1.921   4.127   6.606  2.1652  0.5276  3.5807
 1062TIP3   OH227380   6.308   3.083   7.894 -0.7627 -0.4507 -0.1636
 1062TIP3    H127381   6.330   3.123   7.809 -1.2735  0.3486  0.0720
 1062TIP3    H227382   6.285   3.157   7.950  0.7863 -0.8541  1.0666
 1063TIP3   OH227383   1.040   4.916   8.863  0.4780 -0.1255 -0.0625
 1063TIP3    H127384   1.070   4.907   8.772 -3.5650 -0.1006 -1.6278
 1063TIP3    H227385   1.054   4.830   8.902  1.5860 -0.3605 -0.9418
 1064TIP3   OH227386   6.710   4.378   6.664 -0.3420 -0.3238 -0.1605
 1064TIP3    H127387   6.633   4.415   6.621 -0.7668 -0.4972  0.4307
 1064TIP3    H227388   6.675   4.305   6.717  0.1741 -0.1883  0.3764
 1065TIP3   OH227389   6.349   7.502   8.113 -0.1754 -0.3959  0.4891
 1065TIP3    H127390   6.440   7.509   8.141  0.3852  2.0044 -1.5293
 1065TIP3    H227391   6.347   7.429   8.052  0.8231  0.5883 -0.7567
 1066TIP3   OH227392   0.726   7.678   7.326  0.7706  0.6073  0.7254
 1066TIP3    H127393   0.645   7.629   7.337  1.6372 -0.7046  1.5744
 1066TIP3    H227394   0.785   7.617   7.280  1.1363  1.6949 -0.2915
 1067TIP3   OH227395   0.114   3.666   8.603  0.2256  0.1697  0.5065
 1067TIP3    H127396   0.176   3.738   8.612  0.6716 -0.2878  1.1771
 1067TIP3    H227397   0.093   3.641   8.693 -2.4420  1.5613  0.3948
 1068TIP3   OH227398   4.836   7.590   9.314 -0.2334  0.4811 -0.2890
 1068TIP3    H127399   4.833   7.627   9.403 -0.9981 -0.3863  0.0705
 1068TIP3    H227400   4.747   7.599   9.281 -0.3442 -0.6215 -0.3447
 1069TIP3   OH227401   5.830   0.916   9.314  0.6843 -0.3249  0.2931
 1069TIP3    H127402   5.818   1.003   9.275 -1.6180 -0.8640 -0.3416
 1069TIP3    H227403   5.862   0.934   9.403 -0.7613  1.2369  0.5503
 1070TIP3   OH227404   0.153   5.551   7.560  0.4625  0.0644  0.2277
 1070TIP3    H127405   0.160   5.643   7.535 -2.4235 -0.1331 -1.8283
 1070TIP3    H227406   0.145   5.553   7.656  1.3373  1.8390  0.2986
 1071TIP3   OH227407   3.642   5.463   6.634 -0.7891 -0.5151  0.0389
 1071TIP3    H127408   3.672   5.457   6.725 -1.4305 -0.2645  0.2705
 1071TIP3    H227409   3.709   5.416   6.584  0.0920  0.1847  0.5214
 1072TIP3   OH227410   2.996   0.827   7.398 -0.8312 -0.4073 -0.5528
 1072TIP3    H127411   2.993   0.911   7.444  0.3701 -0.6131 -0.0840
 1072TIP3    H227412   2.908   0.790   7.410 -0.4333 -0.6684  1.9676
 1073TIP3   OH227413   7.555   2.439   7.805 -0.6349  0.3369  0.3788
 1073TIP3    H127414   7.581   2.531   7.812  1.0901 -0.1752  1.0759
 1073TIP3    H227415   7.478   2.432   7.862 -2.4162  1.8580 -1.6550
 1074TIP3   OH227416   0.899   3.234   8.763 -0.0713 -0.3236 -0.2126
 1074TIP3    H127417   0.872   3.196   8.679  1.2951 -0.8396 -0.4458
 1074TIP3    H227418   0.915   3.326   8.744  0.8575 -0.5672 -0.6954
 1075TIP3   OH227419   6.047   1.264   7.333  0.0058  0.1297  0.2774
 1075TIP3    H127420   6.043   1.282   7.239  0.5351 -0.7441  0.0747
 1075TIP3    H227421   6.066   1.348   7.373 -1.7758  0.8339 -0.2453
 1076TIP3   OH227422   0.519   1.663   8.419 -0.7214 -0.6190 -0.0755
 1076TIP3    H127423   0.439   1.652   8.367 -1.2352 -1.0338  0.7744
 1076TIP3    H227424   0.544   1.573   8.442 -0.7054 -0.4195  0.6898
 1077TIP3   OH227425   7.068   4.831   6.846 -1.3958 -0.4370  0.5388
 1077TIP3    H127426   7.037   4.803   6.760  1.9360 -0.0119 -0.9874
 1077TIP3    H227427   7.145   4.776   6.862 -0.5735  1.0981  2.1176
 1078TIP3   OH227428   1.966   5.290   8.709  0.2622  0.1343  0.5608
 1078TIP3    H127429   2.041   5.240   8.742 -0.9796 -2.2765  0.0044
 1078TIP3    H227430   1.972   5.281   8.614 -1.0153 -0.6218  0.5278
 1079TIP3   OH227431   2.861   1.779   9.540  0.3918  0.6673 -0.0096
 1079TIP3    H127432   2.943   1.738   9.569  0.9323  0.5916 -1.5827
 1079TIP3    H227433   2.888   1.842   9.473 -0.7405  1.4449  0.2524
 1080TIP3   OH227434   6.283   1.519   7.692  0.6289 -0.5042 -0.2007
 1080TIP3    H127435   6.306   1.459   7.621 -0.4828  0.1585 -1.1694
 1080TIP3    H227436   6.367   1.555   7.722  1.0641  0.0137 -1.9326
 1081TIP3   OH227437   7.206   4.578   7.703 -1.1835  0.1614  0.0374
 1081TIP3    H127438   7.258   4.581   7.783 -0.2719  1.9285 -0.5665
 1081TIP3    H227439   7.270   4.568   7.633 -1.9612 -1.2226 -0.5035
 1082TIP3   OH227440   3.256   7.252   7.652 -0.2094 -0.7077 -0.1989
 1082TIP3    H127441   3.317   7.188   7.688 -1.3034 -2.4772 -1.3547
 1082TIP3    H227442   3.175   7.240   7.702 -0.6628 -0.7858 -0.9235
 1083TIP3   OH227443   5.813   5.637   7.799  0.0196 -0.0800  0.8009
 1083TIP3    H127444   5.782   5.547   7.809 -2.4028  0.4925 -0.7419
 1083TIP3    H227445   5.857   5.639   7.714  0.2578  0.1379  0.9268
 1084TIP3   OH227446   5.472   3.602   8.906  0.0388  0.0467 -0.0796
 1084TIP3    H127447   5.455   3.609   8.812 -0.0886  1.9151  0.0367
 1084TIP3    H227448   5.558   3.561   8.911 -0.4495 -1.1391 -0.9578
 1085TIP3   OH227449   5.991   4.496   7.662 -0.4366 -0.1616 -0.0332
 1085TIP3    H127450   6.033   4.414   7.689 -1.2495 -0.9898 -1.1829
 1085TIP3    H227451   6.059   4.542   7.612  0.3581  0.3726  1.4875
 1086TIP3   OH227452   7.335   7.555   8.336  0.0558 -0.3182 -0.1763
 1086TIP3    H127453   7.347   7.494   8.409  2.0063  1.4124  1.0465
 1086TIP3    H227454   7.305   7.636   8.377  0.7044  0.5312 -1.3375
 1087TIP3   OH227455   1.206   4.232   7.101  0.2788  0.1391  0.1112
 1087TIP3    H127456   1.286   4.185   7.125  0.2158 -0.0611 -0.0670
 1087TIP3    H227457   1.203   4.307   7.161 -0.2802 -0.7724  1.2604
 1088TIP3   OH227458   4.427   6.886   8.708  0.2107  0.3413  0.3361
 1088TIP3    H127459   4.520   6.899   8.731  0.3741  1.3923 -0.8248
 1088TIP3    H227460   4.421   6.911   8.616 -0.8925 -1.4693 -0.1190
 1089TIP3   OH227461   0.998   7.609   7.185 -0.0074  0.1052  0.3223
 1089TIP3    H127462   1.090   7.583   7.189 -0.4182 -1.3155  2.3144
 1089TIP3    H227463   1.000   7.705   7.182  1.5320  0.0613 -1.1099
 1090TIP3   OH227464   7.255   6.711   8.231 -0.2001 -0.5406  0.3124
 1090TIP3    H127465   7.223   6.706   8.141  0.0204  0.0788  0.1934
 1090TIP3    H227466   7.348   6.691   8.225  0.5511  2.5028 -0.0810
 1091TIP3   OH227467   5.191   2.995   6.839  0.2431 -0.1173 -0.6812
 1091TIP3    H127468   5.197   2.901   6.820  0.5054 -0.3408  0.4368
 1091TIP3    H227469   5.282   3.022   6.853  0.5343  0.9634 -3.8173
 1092TIP3   OH227470   1.020   7.359   8.379 -0.3837 -0.1987  0.4960
 1092TIP3    H127471   1.089   7.390   8.321  0.3617  2.3350  2.5644
 1092TIP3    H227472   1.016   7.424   8.449 -4.3919 -0.6040  0.8860
 1093TIP3   OH227473   1.218   0.244   8.880 -0.7472 -0.1844 -0.4651
 1093TIP3    H127474   1.227   0.178   8.949 -1.1160  1.1057  0.8609
 1093TIP3    H227475   1.305   0.284   8.874 -1.1238  0.8219  0.4501
 1094TIP3   OH227476   0.481   1.832   7.895  0.3418 -0.1779 -0.1600
 1094TIP3    H127477   0.427   1.765   7.936 -0.8632  0.4365 -0.6960
 1094TIP3    H227478   0.550   1.850   7.958 -1.3398  0.6136  1.5274
 1095TIP3   OH227479   1.393   5.946   7.687 -0.1984 -0.1796  0.2012
 1095TIP3    H127480   1.309   5.916   7.651  0.0135  1.1768 -1.5295
 1095TIP3    H227481   1.385   5.930   7.781 -2.3294 -0.2410  0.0662
 1096TIP3   OH227482   2.297   1.354   8.935 -0.1530 -0.4715 -0.0899
 1096TIP3    H127483   2.231   1.381   8.999  0.9167 -1.9171  1.7310
 1096TIP3    H227484   2.303   1.428   8.874 -1.3771  0.8840  1.3349
 1097TIP3   OH227485   6.561   3.242   7.850  0.6336  0.2912 -0.4970
 1097TIP3    H127486   6.552   3.329   7.812  1.1602  0.6121  0.0825
 1097TIP3    H227487   6.585   3.259   7.941  1.3529 -0.4630 -0.5357
 1098TIP3   OH227488   3.746   4.434   9.667  0.3147 -0.5469 -0.5171
 1098TIP3    H127489   3.740   4.351   9.714  0.8642  0.4969  1.4952
 1098TIP3    H227490   3.660   4.474   9.676  0.5647 -0.1272  0.0284
 1099TIP3   OH227491   1.090   3.465   8.715 -0.1857 -0.5210 -0.0366
 1099TIP3    H127492   1.185   3.449   8.711 -0.4016 -1.8418 -0.0811
 1099TIP3    H227493   1.055   3.424   8.637 -0.5234  2.3727 -1.5506
 1100TIP3   OH227494   1.015   4.749   7.421 -0.4697  0.5620  0.2596
 1100TIP3    H127495   1.063   4.692   7.480  1.1916  0.0359 -1.5079
 1100TIP3    H227496   0.928   4.710   7.414 -1.1501  1.3326  3.2351
 1101TIP3   OH227497   4.156   6.273   8.315 -0.0773 -0.3048  0.0565
 1101TIP3    H127498   4.064   6.248   8.317 -0.1862  0.0032  2.9441
 1101TIP3    H227499   4.158   6.360   8.354  1.4168 -0.0940 -0.4247
 1102TIP3   OH227500   5.105   5.418   8.735  0.3755  0.0423  0.0317
 1102TIP3    H127501   5.185   5.381   8.696  0.6559 -0.6513  1.1996
 1102TIP3    H227502   5.053   5.447   8.660  0.6931 -1.6351 -0.8952
 1103TIP3   OH227503   7.199   3.408   7.041 -0.4919 -0.6934  0.3707
 1103TIP3    H127504   7.185   3.443   7.129 -0.5933  0.4975 -0.0993
 1103TIP3    H227505   7.255   3.331   7.054 -0.6847 -0.6595  1.4883
 1104TIP3   OH227506   1.443   0.066   8.372  0.2165 -0.8342 -0.1646
 1104TIP3    H127507   1.366   0.123   8.381  1.1240  0.3993  0.0965
 1104TIP3    H227508   1.487   0.097   8.293  1.5349 -0.1314  0.8131
 1105TIP3   OH227509   1.737   0.016   8.819 -0.1092  0.2001 -0.0904
 1105TIP3    H127510   1.703  -0.065   8.781  0.3042  0.2100 -0.4883
 1105TIP3    H227511   1.695   0.085   8.768  0.9273  0.2088 -0.9880
 1106TIP3   OH227512   4.871   3.217   8.721  0.3693 -0.0677  0.1092
 1106TIP3    H127513   4.854   3.258   8.636  2.1223  0.8364  0.1361
 1106TIP3    H227514   4.796   3.242   8.775  0.1413  0.9425 -0.6375
 1107TIP3   OH227515   1.395   3.916   8.099 -0.3486 -0.0410  0.1166
 1107TIP3    H127516   1.437   4.001   8.116 -0.2280 -0.1189  0.2120
 1107TIP3    H227517   1.306   3.938   8.074  0.1435  0.2261 -1.5833
 1108TIP3   OH227518   6.222   1.137   9.099  0.2068  0.6373  0.1562
 1108TIP3    H127519   6.149   1.180   9.054 -0.1725 -0.4105 -0.2575
 1108TIP3    H227520   6.262   1.206   9.152  0.8194  1.9680 -1.9595
 1109TIP3   OH227521   1.619   1.233   8.758  0.0454 -0.4551  0.3192
 1109TIP3    H127522   1.685   1.198   8.817  0.1321 -0.5955  0.1395
 1109TIP3    H227523   1.558   1.281   8.815  0.5744  0.0956  0.4269
 1110TIP3   OH227524   0.592   1.422   7.497 -0.0459  0.0637  0.3298
 1110TIP3    H127525   0.571   1.337   7.536 -0.7630 -0.0597 -0.2998
 1110TIP3    H227526   0.640   1.400   7.417  1.2426  0.3093  1.0104
 1111TIP3   OH227527   3.294   3.549   7.596 -0.1770 -0.7044  0.0239
 1111TIP3    H127528   3.354   3.528   7.524 -1.5486 -1.2853 -0.9959
 1111TIP3    H227529   3.343   3.528   7.675 -0.2352 -4.7294 -0.8106
 1112TIP3   OH227530   3.486   1.605   8.387  0.0881  0.0575  0.0077
 1112TIP3    H127531   3.392   1.605   8.374  0.1534  1.5484 -0.7270
 1112TIP3    H227532   3.522   1.631   8.302  0.9842  2.1786  0.9574
 1113TIP3   OH227533   4.781   6.512   7.964 -0.3822 -0.1893 -0.2924
 1113TIP3    H127534   4.731   6.590   7.942  1.8896  1.5689  0.2959
 1113TIP3    H227535   4.873   6.541   7.962  0.4557 -2.2769  2.1137
 1114TIP3   OH227536   6.485   5.490   7.413 -0.2312 -0.3808 -0.4987
 1114TIP3    H127537   6.530   5.449   7.339 -0.8769 -2.1613  0.0234
 1114TIP3    H227538   6.408   5.434   7.427 -1.3913  1.2857  0.0237
 1115TIP3   OH227539   6.749   5.510   7.221 -0.0958 -0.0547 -0.0615
 1115TIP3    H127540   6.829   5.560   7.235  0.8131 -1.3520 -0.3679
 1115TIP3    H227541   6.777   5.436   7.167 -1.5910 -0.3196 -0.5194
 1116TIP3   OH227542   4.765   4.536   7.163  0.3778  0.1976  1.2258
 1116TIP3    H127543   4.733   4.598   7.098  2.4574  0.2210  0.1498
 1116TIP3    H227544   4.747   4.578   7.247 -0.3255  1.1961  0.6013
 1117TIP3   OH227545   1.618   4.012   6.959  0.7846  0.0699  0.4052
 1117TIP3    H127546   1.623   3.981   6.869 -1.1183 -1.2182  0.6912
 1117TIP3    H227547   1.693   3.972   7.003  0.4384 -1.1748 -0.0993
 1118TIP3   OH227548   6.196   6.501   6.912  0.6791  0.1082  0.6972
 1118TIP3    H127549   6.243   6.537   6.987 -0.2914  3.4560 -0.1060
 1118TIP3    H227550   6.242   6.536   6.836  0.3685 -1.4301 -0.2346
 1119TIP3   OH227551   1.471   4.315   8.619  0.0941 -0.3713 -0.0198
 1119TIP3    H127552   1.387   4.273   8.634 -0.1839  0.6512  1.5103
 1119TIP3    H227553   1.513   4.317   8.705 -0.1065  2.8147  0.1280
 1120TIP3   OH227554   3.066   6.678   8.397  0.3666  0.0611  0.1089
 1120TIP3    H127555   3.055   6.701   8.489 -0.8111  0.0499 -0.0165
 1120TIP3    H227556   2.993   6.619   8.377  0.8665 -0.3036 -0.7135
 1121TIP3   OH227557   2.362   0.468   8.341 -0.1511 -0.2879 -0.1254
 1121TIP3    H127558   2.350   0.544   8.285 -0.2968 -1.0294 -1.1288
 1121TIP3    H227559   2.357   0.503   8.430  0.8124  1.0262 -0.5551
 1122TIP3   OH227560   3.438   2.643   8.272  0.1571 -0.7665 -0.0465
 1122TIP3    H127561   3.342   2.643   8.264  0.2270  0.0072 -1.0482
 1122TIP3    H227562   3.455   2.591   8.350 -1.1974  0.6327  1.2659
 1123TIP3   OH227563   1.636   4.719   8.838  0.1342  0.2613 -0.3673
 1123TIP3    H127564   1.605   4.638   8.798 -1.1086  0.9580 -0.8810
 1123TIP3    H227565   1.672   4.692   8.923 -2.6893 -0.5404  0.6729
 1124TIP3   OH227566   6.248   2.637   8.617  0.6126 -0.1223 -0.2827
 1124TIP3    H127567   6.178   2.587   8.659  1.5280 -1.1846  0.0235
 1124TIP3    H227568   6.205   2.682   8.544 -0.0018 -2.5071 -1.4903
 1125TIP3   OH227569   4.518   1.741   8.644  0.3209  0.6232  0.0752
 1125TIP3    H127570   4.597   1.757   8.592  0.7445  1.1269  0.8584
 1125TIP3    H227571   4.522   1.806   8.714 -0.6219  0.4318  0.3146
 1126TIP3   OH227572   2.721   2.315   6.963 -0.3756  0.5385  0.2277
 1126TIP3    H127573   2.798   2.285   6.915 -0.2975 -1.7821  1.6026
 1126TIP3    H227574   2.755   2.377   7.028 -0.0942  1.5720 -0.8825
 1127TIP3   OH227575   4.828   1.872   8.111  0.2089  0.6129  0.5318
 1127TIP3    H127576   4.765   1.893   8.181  0.5439 -0.2960  1.1224
 1127TIP3    H227577   4.903   1.836   8.157  0.0480 -0.9297 -0.3550
 1128TIP3   OH227578   4.254   1.266   7.131  0.7733 -0.3232 -0.2316
 1128TIP3    H127579   4.172   1.272   7.180  0.1942  0.4124 -1.2699
 1128TIP3    H227580   4.228   1.258   7.039  1.8577 -0.5405 -0.5429
 1129TIP3   OH227581   3.508   5.106   7.714 -0.6654 -0.9154  0.1490
 1129TIP3    H127582   3.429   5.159   7.709 -1.4869 -2.1049  0.0859
 1129TIP3    H227583   3.483   5.032   7.769  0.8954 -0.4942  1.4791
 1130TIP3   OH227584   4.975   2.521   7.932 -0.4481  0.0719  0.1139
 1130TIP3    H127585   4.962   2.542   8.024 -0.5054  0.8815 -0.0712
 1130TIP3    H227586   5.070   2.529   7.919 -0.5089  0.5385 -0.0358
 1131TIP3   OH227587   0.089   5.736   7.102  0.2977  0.1608 -0.5198
 1131TIP3    H127588   0.020   5.691   7.151 -1.7960  0.3610 -3.0071
 1131TIP3    H227589   0.074   5.829   7.120  0.7076  0.1463 -0.1076
 1132TIP3   OH227590   7.215   4.118   7.670 -0.2430  0.4130 -0.1297
 1132TIP3    H127591   7.272   4.151   7.600 -0.7711  0.4936 -0.5234
 1132TIP3    H227592   7.251   4.032   7.691 -0.7241 -0.0817 -1.2505
 1133TIP3   OH227593   5.302   7.491   8.508 -0.1554  0.0256 -0.4916
 1133TIP3    H127594   5.394   7.464   8.497  0.4934  1.9152  0.0326
 1133TIP3    H227595   5.306   7.574   8.555 -2.0451  1.1112 -2.0860
 1134TIP3   OH227596   4.173   2.345   8.794  0.5033  0.1876 -0.7015
 1134TIP3    H127597   4.198   2.340   8.886  2.9398 -2.2009 -1.3396
 1134TIP3    H227598   4.181   2.438   8.771 -2.6203  1.2950  1.9472
 1135TIP3   OH227599   0.021   4.347   8.029  0.1586 -0.7169 -0.0110
 1135TIP3    H127600   0.094   4.286   8.021  0.9770  0.2136  0.1581
 1135TIP3    H227601   0.047   4.408   8.097 -1.4538 -1.2550  1.1667
 1136TIP3   OH227602   3.829   2.352   7.412 -0.0102 -0.1962  0.2631
 1136TIP3    H127603   3.842   2.445   7.430 -0.4773 -0.1651  0.4273
 1136TIP3    H227604   3.918   2.319   7.396  0.4858 -0.2547  2.7159
 1137TIP3   OH227605   0.579   7.433   7.609 -0.0610 -0.3706  0.2242
 1137TIP3    H127606   0.621   7.347   7.610 -0.2341 -0.4541  0.3049
 1137TIP3    H227607   0.562   7.451   7.517  3.3903  1.2425 -0.2788
 1138TIP3   OH227608   4.802   1.257   7.439 -0.2662 -0.3233 -0.1531
 1138TIP3    H127609   4.761   1.202   7.371 -0.3110  2.4210 -2.5223
 1138TIP3    H227610   4.896   1.246   7.425 -0.2754  0.1038 -0.6078
 1139TIP3   OH227611   1.211   6.538   9.166  0.1262  0.0901 -0.1129
 1139TIP3    H127612   1.262   6.572   9.240  0.2795 -0.9996  0.2981
 1139TIP3    H227613   1.216   6.607   9.100  1.7660  0.2117  0.0853
 1140TIP3   OH227614   7.336   3.526   7.877 -0.4745 -0.7189 -0.5278
 1140TIP3    H127615   7.408   3.586   7.860 -1.6848  0.9305 -0.1295
 1140TIP3    H227616   7.267   3.554   7.817 -1.2246 -1.4218 -0.0220
 1141TIP3   OH227617   1.597   0.860   8.010 -0.1354 -0.0837 -0.0251
 1141TIP3    H127618   1.639   0.822   7.933 -0.1647 -0.4418  0.1325
 1141TIP3    H227619   1.584   0.785   8.069 -1.0942  0.0018 -0.1222
 1142TIP3   OH227620   1.254   4.692   7.245  0.3142  0.2981  0.3681
 1142TIP3    H127621   1.179   4.741   7.279  0.5111  0.5104  0.4989
 1142TIP3    H227622   1.284   4.743   7.170  0.0152 -0.0570 -0.0037
 1143TIP3   OH227623   3.241   0.401   8.903  0.0372 -0.4103  0.1703
 1143TIP3    H127624   3.176   0.424   8.836  0.3989 -1.0871 -0.4347
 1143TIP3    H227625   3.230   0.306   8.915  1.3739 -0.6761 -0.4772
 1144TIP3   OH227626   0.710   3.638   8.445 -0.2535 -0.1922  0.0006
 1144TIP3    H127627   0.788   3.621   8.499 -0.5827 -0.8690  0.2735
 1144TIP3    H227628   0.742   3.696   8.376 -0.3218  2.7062  2.2212
 1145TIP3   OH227629   6.734   1.907   7.079 -0.2819 -0.1821 -0.4355
 1145TIP3    H127630   6.809   1.928   7.024  0.3256  0.0850  0.4677
 1145TIP3    H227631   6.659   1.944   7.033  0.4590  1.9776 -0.0543
 1146TIP3   OH227632   2.888   6.837   6.741 -0.1845  0.3013 -0.0265
 1146TIP3    H127633   2.819   6.884   6.694 -1.1527  0.7542  1.7752
 1146TIP3    H227634   2.886   6.874   6.829  1.3076 -0.8089  0.5031
 1147TIP3   OH227635   0.470   4.840   7.500  0.1609  0.5607 -0.6405
 1147TIP3    H127636   0.490   4.752   7.467  0.6258  0.6112 -0.5109
 1147TIP3    H227637   0.468   4.895   7.422  0.3753  0.5228 -0.6741
 1148TIP3   OH227638   0.827   0.438   9.252 -0.5161 -0.2784 -0.0625
 1148TIP3    H127639   0.826   0.454   9.346  0.3123 -0.1476 -0.0610
 1148TIP3    H227640   0.889   0.366   9.240 -0.6179 -0.2986 -0.5030
 1149TIP3   OH227641   3.023   5.219   9.175 -0.3282 -0.2261 -0.7337
 1149TIP3    H127642   3.062   5.304   9.192 -0.1702 -1.0400  5.0371
 1149TIP3    H227643   3.097   5.159   9.167 -0.4250 -0.3808 -0.4749
 1150TIP3   OH227644   0.162   1.093   7.437  0.1725  0.1156 -0.3015
 1150TIP3    H127645   0.186   1.186   7.435  0.9400 -0.0878 -1.4147
 1150TIP3    H227646   0.137   1.077   7.528 -0.3598  1.5009 -0.1733
 1151TIP3   OH227647   4.170   5.811   8.021  0.0136 -0.1670  0.1601
 1151TIP3    H127648   4.192   5.720   8.041  0.6019  0.0290  0.4394
 1151TIP3    H227649   4.238   5.839   7.959 -1.3477 -0.5359 -1.5866
 1152TIP3   OH227650   1.056   4.029   6.965 -0.0018 -0.3421  1.0649
 1152TIP3    H127651   0.970   3.993   6.989 -0.2012  0.6857  1.9723
 1152TIP3    H227652   1.069   4.101   7.026  0.4252  1.0723 -0.6379
 1153TIP3   OH227653   3.763   5.478   6.895 -0.0847 -0.5437 -0.1658
 1153TIP3    H127654   3.740   5.424   6.970  0.2330  1.9383  1.8405
 1153TIP3    H227655   3.845   5.521   6.921 -0.3623  0.9579 -1.6117
 1154TIP3   OH227656   4.642   5.949   8.158 -0.0628 -0.5274 -0.4105
 1154TIP3    H127657   4.728   5.929   8.120 -0.1082 -0.9473 -0.2962
 1154TIP3    H227658   4.580   5.906   8.101 -0.1144 -1.4400  0.3049
 1155TIP3   OH227659   6.566   4.519   6.984 -0.0838  0.1468 -0.2744
 1155TIP3    H127660   6.538   4.608   6.962 -2.2983 -0.3519  0.2998
 1155TIP3    H227661   6.493   4.463   6.957  0.8431 -1.3971  0.2808
 1156TIP3   OH227662   2.699   1.317   7.431 -0.5822  0.3831  0.1741
 1156TIP3    H127663   2.653   1.376   7.371  2.3736  2.8010  0.0714
 1156TIP3    H227664   2.786   1.308   7.394 -0.0660 -1.8029  1.7461
 1157TIP3   OH227665   7.596   5.805   6.758 -0.0683 -0.4559  0.1446
 1157TIP3    H127666   7.631   5.891   6.781 -1.0405  0.0362 -0.1614
 1157TIP3    H227667   7.653   5.742   6.803 -0.2821  0.3827  1.6340
 1158TIP3   OH227668   6.155   1.006   8.358 -0.4675 -0.1428 -0.0094
 1158TIP3    H127669   6.104   1.083   8.386 -0.2601 -0.0744  0.1835
 1158TIP3    H227670   6.240   1.017   8.400  0.1793  0.4407 -1.4386
 1159TIP3   OH227671   5.986   3.325   9.073  0.0461 -0.1265  0.1057
 1159TIP3    H127672   6.044   3.392   9.110 -0.1215  0.4010 -0.5590
 1159TIP3    H227673   5.904   3.335   9.121  0.0161  0.1637 -0.0044
 1160TIP3   OH227674   3.257   2.881   9.525 -0.4767  0.7597 -0.0888
 1160TIP3    H127675   3.188   2.818   9.506  0.7776 -1.4994  2.1852
 1160TIP3    H227676   3.212   2.954   9.569 -1.5258 -0.3799  0.7957
 1161TIP3   OH227677   0.147   2.777   6.566  0.4990  0.2158 -0.0072
 1161TIP3    H127678   0.090   2.826   6.626 -3.3010 -2.6484 -0.8682
 1161TIP3    H227679   0.152   2.832   6.488 -0.5090  0.8792  0.3734
 1162TIP3   OH227680   6.523   4.850   7.469 -0.0485 -0.3863 -0.0779
 1162TIP3    H127681   6.458   4.882   7.531  1.7207  0.6115  1.3660
 1162TIP3    H227682   6.499   4.758   7.455 -0.8501 -0.4866  1.6555
 1163TIP3   OH227683   4.257   5.795   7.742 -0.6815 -0.0501 -0.2411
 1163TIP3    H127684   4.324   5.726   7.748  1.3039  1.7186 -0.7660
 1163TIP3    H227685   4.223   5.788   7.653  0.6825  0.5783 -0.8574
 1164TIP3   OH227686   3.377   3.938   8.962  0.2489  0.1158  0.1333
 1164TIP3    H127687   3.369   3.845   8.940  1.3781  0.0978 -0.2615
 1164TIP3    H227688   3.326   3.984   8.895  0.7286 -0.1504 -0.4185
 1165TIP3   OH227689   1.308   4.196   7.551  0.2577 -0.2019 -0.0441
 1165TIP3    H127690   1.330   4.168   7.640 -0.3449  1.0050  0.5015
 1165TIP3    H227691   1.330   4.289   7.549 -2.0158  0.3972 -0.3461
 1166TIP3   OH227692   1.995   2.017   8.266  0.3110 -0.1479 -0.3172
 1166TIP3    H127693   1.934   2.085   8.237 -1.4766 -1.2225  0.7416
 1166TIP3    H227694   1.966   1.995   8.355  1.2467 -1.8366 -0.3926
 1167TIP3   OH227695   1.633   2.854   7.462 -0.0808 -0.5629 -0.2174
 1167TIP3    H127696   1.630   2.807   7.379 -2.5211  1.0691 -1.1576
 1167TIP3    H227697   1.702   2.919   7.450 -0.8361  0.0726 -1.2411
 1168TIP3   OH227698   4.620   6.327   6.666 -0.1285  0.2197  0.1419
 1168TIP3    H127699   4.716   6.329   6.672 -0.1973  1.0990  1.8394
 1168TIP3    H227700   4.600   6.252   6.611  1.5674  0.8097 -1.3767
 1169TIP3   OH227701   2.158   6.618   7.845 -0.1406 -0.0475 -0.3015
 1169TIP3    H127702   2.101   6.543   7.830 -0.3887  0.2446 -0.8516
 1169TIP3    H227703   2.099   6.686   7.880  0.0355 -0.0268 -0.0426
 1170TIP3   OH227704   3.135   7.077   8.603  0.0336 -0.4680 -0.3166
 1170TIP3    H127705   3.213   7.127   8.580 -0.3147  0.1508 -0.1734
 1170TIP3    H227706   3.120   7.098   8.696 -0.6262 -0.1278 -0.4895
 1171TIP3   OH227707   6.994   0.257   9.163  0.0398 -0.3037 -0.1489
 1171TIP3    H127708   7.016   0.350   9.168 -1.0367 -0.1037  2.3989
 1171TIP3    H227709   7.065   0.219   9.111  1.2658  1.7113 -0.0704
 1172TIP3   OH227710   6.042   5.631   8.995 -0.1856 -0.1906  0.1894
 1172TIP3    H127711   6.104   5.647   9.066 -0.5037  0.8590  0.2526
 1172TIP3    H227712   5.956   5.629   9.038 -0.5806  2.2959 -0.3277
 1173TIP3   OH227713   6.039   3.078   7.411 -0.4713  0.4189 -0.4147
 1173TIP3    H127714   6.019   2.986   7.427  0.2648  0.0918 -1.2752
 1173TIP3    H227715   6.135   3.081   7.405 -0.5663  0.8726 -2.3195
 1174TIP3   OH227716   1.155   2.018   8.494 -0.0412 -0.5300 -0.5471
 1174TIP3    H127717   1.162   1.938   8.442 -0.5168 -0.6677 -0.4090
 1174TIP3    H227718   1.093   1.995   8.564  0.8941 -0.4769  0.3263
 1175TIP3   OH227719   6.847   3.261   7.402  0.2857 -0.0795  0.0568
 1175TIP3    H127720   6.809   3.236   7.487 -2.9811  1.1307 -0.8780
 1175TIP3    H227721   6.869   3.354   7.412 -2.9063  0.9396 -1.1214
 1176TIP3   OH227722   0.053   6.414   8.241  0.1894  0.5362  0.4269
 1176TIP3    H127723   0.141   6.449   8.228  0.8564 -1.2782 -0.1371
 1176TIP3    H227724   0.066   6.335   8.293 -0.7920 -1.2104 -1.8274
 1177TIP3   OH227725   0.869   2.015   8.317  0.3563  0.0433 -0.3035
 1177TIP3    H127726   0.902   2.082   8.378  0.0985  0.2227 -0.3611
 1177TIP3    H227727   0.777   2.003   8.341  0.1982  0.2598 -0.7864
 1178TIP3   OH227728   5.266   2.305   7.266 -0.2684 -0.4596 -0.2266
 1178TIP3    H127729   5.190   2.327   7.320 -0.7132  0.1479 -1.0811
 1178TIP3    H227730   5.272   2.377   7.203  2.0948  0.4319  0.9172
 1179TIP3   OH227731   5.955   3.347   7.011 -0.0128 -0.2040 -0.7332
 1179TIP3    H127732   5.982   3.319   6.924 -1.7495  0.3646 -1.4912
 1179TIP3    H227733   5.988   3.278   7.069  0.4786 -1.0073 -1.9210
 1180TIP3   OH227734   6.177   1.282   6.684  0.0275  0.3401 -0.3606
 1180TIP3    H127735   6.249   1.336   6.717  2.1862 -1.0115 -2.5699
 1180TIP3    H227736   6.218   1.199   6.659 -2.4220 -0.7174 -1.1453
 1181TIP3   OH227737   0.411   7.027   8.331 -0.6333 -0.3152  0.5493
 1181TIP3    H127738   0.504   7.026   8.352 -0.6090 -0.2292  0.4475
 1181TIP3    H227739   0.408   7.028   8.235 -0.7483 -1.6945  0.5219
 1182TIP3   OH227740   6.706   6.968   6.596 -0.2591  0.1325  0.0095
 1182TIP3    H127741   6.641   6.933   6.656  0.4908  1.3922  1.6197
 1182TIP3    H227742   6.725   6.895   6.537  0.9070 -2.1140  2.9299
 1183TIP3   OH227743   4.863   1.707   8.957  0.4879  0.2756 -0.0429
 1183TIP3    H127744   4.803   1.781   8.955  1.5113  1.1389 -2.3016
 1183TIP3    H227745   4.829   1.650   9.026 -3.4943  0.1957 -1.8516
 1184TIP3   OH227746   0.520   0.656   7.679  0.1529  0.5570  0.1039
 1184TIP3    H127747   0.460   0.582   7.681  1.8415 -0.8686  1.1462
 1184TIP3    H227748   0.574   0.642   7.602  1.1291  0.1152  0.8455
 1185TIP3   OH227749   4.444   1.204   7.749 -0.2710  0.0047  0.5094
 1185TIP3    H127750   4.454   1.217   7.844  0.2436 -0.6384  0.5510
 1185TIP3    H227751   4.528   1.232   7.712  0.2742 -1.5961  0.4497
 1186TIP3   OH227752   4.676   2.083   8.580 -0.8672 -0.2416 -0.4985
 1186TIP3    H127753   4.601   2.091   8.639 -1.4207 -0.4010 -1.1773
 1186TIP3    H227754   4.708   2.173   8.571 -0.6293 -0.2403  0.2195
 1187TIP3   OH227755   6.304   1.053   7.926  0.3198 -0.1989  0.2813
 1187TIP3    H127756   6.333   1.017   7.841  0.7515 -1.0514  0.7733
 1187TIP3    H227757   6.285   0.975   7.979 -1.4290  0.3355  0.4794
 1188TIP3   OH227758   7.432   6.655   8.842  0.5409  0.3807  0.3877
 1188TIP3    H127759   7.528   6.659   8.844  0.6063 -0.7977  0.8481
 1188TIP3    H227760   7.407   6.636   8.932  0.0113 -1.1631 -0.0491
 1189TIP3   OH227761   7.089   4.388   9.232 -0.0417 -0.5205  0.2618
 1189TIP3    H127762   7.004   4.374   9.275 -0.5435 -0.8921 -0.8312
 1189TIP3    H227763   7.119   4.300   9.210  0.6745 -0.3973  0.6888
 1190TIP3   OH227764   4.494   1.139   7.049 -0.2263 -0.4545  0.1100
 1190TIP3    H127765   4.449   1.076   6.993 -0.9146  0.0916  0.0332
 1190TIP3    H227766   4.427   1.204   7.071  1.0113  1.5749 -1.7351
 1191TIP3   OH227767   5.109   4.602   9.120  0.9575 -0.8135 -0.4402
 1191TIP3    H127768   5.103   4.588   9.025 -0.2560  0.6064 -0.6130
 1191TIP3    H227769   5.181   4.665   9.129  0.5084 -0.2864 -0.5070
 1192TIP3   OH227770   2.605   3.454   9.489 -0.0472 -0.3695 -0.2677
 1192TIP3    H127771   2.599   3.540   9.447 -1.1903  0.0368  0.6899
 1192TIP3    H227772   2.515   3.430   9.510  0.2211 -1.9497 -0.7602
 1193TIP3   OH227773   1.811   3.594   7.953 -0.2102  0.5008  0.5789
 1193TIP3    H127774   1.766   3.646   8.019 -3.0485 -0.8265 -0.1250
 1193TIP3    H227775   1.813   3.505   7.989 -2.3202 -0.3719 -1.1955
 1194TIP3   OH227776   2.496   4.161   8.193 -0.0029 -0.2410  1.0828
 1194TIP3    H127777   2.455   4.107   8.261 -0.5791 -0.8042  0.2923
 1194TIP3    H227778   2.432   4.165   8.123  1.0463 -0.6163  0.0776
 1195TIP3   OH227779   5.344   2.101   8.955 -0.2345  0.0499 -0.1706
 1195TIP3    H127780   5.297   2.184   8.944 -1.0740 -0.7099 -3.3422
 1195TIP3    H227781   5.396   2.092   8.875 -0.8432 -2.8554 -0.3614
 1196TIP3   OH227782   4.369   6.948   6.979 -0.0993  0.4155  0.1863
 1196TIP3    H127783   4.336   6.985   6.896 -0.0728  2.2730  0.9500
 1196TIP3    H227784   4.406   6.864   6.954 -2.3735 -0.2575 -1.2738
 1197TIP3   OH227785   1.617   6.883   7.398  0.0636 -0.5256 -0.0985
 1197TIP3    H127786   1.567   6.930   7.330 -0.0505 -2.4678 -1.4382
 1197TIP3    H227787   1.554   6.869   7.468 -1.1265 -2.1504 -1.3941
 1198TIP3   OH227788   4.980   6.922   8.442 -0.4662  0.8830 -0.3915
 1198TIP3    H127789   5.046   6.944   8.508  2.8181 -1.6163 -2.5671
 1198TIP3    H227790   4.966   6.828   8.453 -3.0585  1.1767 -0.6396
 1199TIP3   OH227791   3.291   1.928   9.010  0.5569 -0.1678  0.2705
 1199TIP3    H127792   3.378   1.941   9.046  1.4680 -0.5373 -1.6738
 1199TIP3    H227793   3.266   1.839   9.037  1.4802 -0.6703 -0.4738
 1200TIP3   OH227794   6.642   2.373   8.125 -0.0088  0.1540 -0.2370
 1200TIP3    H127795   6.558   2.342   8.092  1.3198 -2.2355 -1.6496
 1200TIP3    H227796   6.705   2.306   8.099  2.0618  0.8121  2.5254
 1201TIP3   OH227797   6.954   2.386   8.439  0.1187  0.3157  0.3444
 1201TIP3    H127798   6.966   2.414   8.349 -0.7688  0.0359  0.1344
 1201TIP3    H227799   7.043   2.365   8.470  0.3726 -0.0911 -0.6244
 1202TIP3   OH227800   0.287   0.803   9.068 -0.4775 -0.4041  0.1244
 1202TIP3    H127801   0.194   0.820   9.081 -0.5813 -0.3888 -0.6056
 1202TIP3    H227802   0.294   0.774   8.978  0.1899 -0.7039  0.2656
 1203TIP3   OH227803   6.630   5.581   8.032  0.2255  0.9167  0.2165
 1203TIP3    H127804   6.613   5.487   8.020  1.0605  0.9057 -1.2274
 1203TIP3    H227805   6.705   5.585   8.090  1.6945  0.5480 -1.5601
 1204TIP3   OH227806   0.315   1.364   7.928  0.0209 -0.0449  0.1793
 1204TIP3    H127807   0.408   1.374   7.944  0.0394 -0.4045  0.2994
 1204TIP3    H227808   0.306   1.370   7.833 -0.0946  2.1510  0.2684
 1205TIP3   OH227809   7.624   0.943   8.003  0.4610 -0.2869 -0.2929
 1205TIP3    H127810   7.651   0.926   8.093 -0.8302  0.8556  0.3393
 1205TIP3    H227811   7.549   0.886   7.989 -0.3978  0.7394 -0.0405
 1206TIP3   OH227812   0.523   2.516   8.742  0.3246 -0.3773  0.0105
 1206TIP3    H127813   0.456   2.468   8.694 -0.0410 -0.3089  0.4336
 1206TIP3    H227814   0.536   2.465   8.822  2.2939 -1.5149 -0.9854
 1207TIP3   OH227815   3.175   3.391   8.440  0.3699  0.9250  0.0562
 1207TIP3    H127816   3.110   3.457   8.464 -0.0063  0.9254 -0.9168
 1207TIP3    H227817   3.188   3.403   8.346  2.4954  1.5563  0.3580
 1208TIP3   OH227818   0.342   1.305   8.372  0.3422 -0.5935  0.1569
 1208TIP3    H127819   0.302   1.295   8.458 -0.1474  0.2826  0.0421
 1208TIP3    H227820   0.431   1.334   8.390  0.4164 -0.9463  0.3755
 1209TIP3   OH227821   5.404   5.455   7.705 -0.1245 -0.0506  0.2079
 1209TIP3    H127822   5.438   5.506   7.631  2.0912 -1.6386  0.0002
 1209TIP3    H227823   5.389   5.519   7.774  1.7868  1.0153 -0.2962
 1210TIP3   OH227824   1.889   5.830   9.137  0.0658  0.5032 -0.0345
 1210TIP3    H127825   1.794   5.821   9.146 -0.0065 -0.3586 -1.3619
 1210TIP3    H227826   1.902   5.915   9.095 -0.1030  0.6643  0.2374
 1211TIP3   OH227827   1.784   5.979   8.630 -0.4154 -0.2074 -0.5833
 1211TIP3    H127828   1.818   6.013   8.547  0.3521 -0.0129 -0.1973
 1211TIP3    H227829   1.716   6.041   8.655  1.4664  1.5635  0.4912
 1212TIP3   OH227830   6.037   7.151   7.644  0.3222  0.4575  0.5970
 1212TIP3    H127831   6.125   7.184   7.626  0.8618 -1.5297 -0.8134
 1212TIP3    H227832   6.050   7.081   7.708 -0.1627 -0.1103  0.0897
 1213TIP3   OH227833   7.405   0.396   6.761 -0.1965 -0.3196  0.1192
 1213TIP3    H127834   7.474   0.449   6.801 -0.8165 -0.3501  1.2590
 1213TIP3    H227835   7.324   0.432   6.797 -0.6868 -1.2877 -0.0076
 1214TIP3   OH227836   4.867   4.345   7.680 -0.0589 -0.7945 -0.0884
 1214TIP3    H127837   4.948   4.297   7.694  0.3382 -0.1479 -0.1541
 1214TIP3    H227838   4.806   4.309   7.746  0.9512  0.2829  1.5171
 1215TIP3   OH227839   5.023   5.784   7.983 -0.0473  0.0165 -0.0308
 1215TIP3    H127840   5.080   5.771   8.059  0.0926  1.0003  0.0488
 1215TIP3    H227841   4.969   5.860   8.007 -1.3773 -0.8784 -0.1188
 1216TIP3   OH227842   1.740   5.880   6.982  0.0636  0.2030 -0.1674
 1216TIP3    H127843   1.764   5.805   6.927  1.7205 -0.9768  2.0021
 1216TIP3    H227844   1.648   5.895   6.963  0.4472 -0.3921 -2.8994
 1217TIP3   OH227845   7.479   1.646   9.242 -0.2891  0.2305 -0.7389
 1217TIP3    H127846   7.449   1.556   9.232 -0.1755  0.0552  0.3676
 1217TIP3    H227847   7.528   1.664   9.162 -0.0821 -0.7873 -0.8565
 1218TIP3   OH227848   5.441   1.118   7.549 -0.2438  0.2115  0.1705
 1218TIP3    H127849   5.460   1.040   7.602 -0.1814  0.2559  0.2140
 1218TIP3    H227850   5.460   1.091   7.459 -0.3037  0.1503  0.1762
 1219TIP3   OH227851   0.945   0.773   8.583  0.1066 -0.2375 -0.0470
 1219TIP3    H127852   0.859   0.799   8.551 -0.0026 -1.1423 -0.5211
 1219TIP3    H227853   0.979   0.715   8.515  0.1287 -1.7170  1.1802
 1220TIP3   OH227854   2.911   7.468   8.620 -0.5098 -0.3052  0.1998
 1220TIP3    H127855   2.861   7.433   8.547  0.5714 -0.1129 -0.6504
 1220TIP3    H227856   2.903   7.563   8.612  1.7121 -0.1723 -1.2404
 1221TIP3   OH227857   1.604   5.764   8.258  0.5979  0.5425 -0.0142
 1221TIP3    H127858   1.547   5.692   8.284 -0.0549  1.1494  0.2690
 1221TIP3    H227859   1.610   5.757   8.163  1.7123 -0.7383  0.1202
 1222TIP3   OH227860   2.325   3.160   6.948 -0.6488  0.2095  0.2433
 1222TIP3    H127861   2.389   3.096   6.916 -0.5268  0.8136 -0.7794
 1222TIP3    H227862   2.244   3.137   6.903 -0.4555  1.1225 -0.6117
 1223TIP3   OH227863   6.772   2.238   7.776  0.4123 -0.0685  0.0620
 1223TIP3    H127864   6.708   2.305   7.801  1.5950  0.8831  0.6498
 1223TIP3    H227865   6.735   2.156   7.809 -0.4553  0.4695  0.4768
 1224TIP3   OH227866   1.172   5.709   7.450  0.7378  0.1440 -0.0268
 1224TIP3    H127867   1.113   5.637   7.428  0.7892 -0.1356  0.7077
 1224TIP3    H227868   1.254   5.687   7.406  0.1220  0.8612 -1.5839
 1225TIP3   OH227869   2.375   6.516   9.346 -0.3268 -0.0908  0.4960
 1225TIP3    H127870   2.317   6.592   9.348 -0.6367 -0.3364  1.1330
 1225TIP3    H227871   2.318   6.443   9.321 -0.3746 -0.3895  1.4344
 1226TIP3   OH227872   1.006   5.489   9.163  0.4371  0.2728 -0.4029
 1226TIP3    H127873   1.010   5.579   9.195 -1.8597  0.2590  0.0711
 1226TIP3    H227874   1.098   5.463   9.155  1.2381  1.4386  2.9831
 1227TIP3   OH227875   4.854   7.482   8.536 -0.1465  0.1705  0.3407
 1227TIP3    H127876   4.776   7.440   8.572 -0.4608 -0.2815 -0.8219
 1227TIP3    H227877   4.926   7.425   8.564 -0.5171 -0.8721 -0.7702
 1228TIP3   OH227878   2.596   0.956   8.264  0.0410 -0.3073  0.2063
 1228TIP3    H127879   2.604   1.030   8.324  1.3860 -0.0217 -0.2767
 1228TIP3    H227880   2.575   0.881   8.320  1.5677 -0.1023  1.1131
 1229TIP3   OH227881   4.916   4.691   7.821 -0.5796  0.4975 -0.1534
 1229TIP3    H127882   4.895   4.701   7.728  0.4067  0.7147 -0.3608
 1229TIP3    H227883   4.880   4.605   7.844 -2.4031  1.1788 -0.2645
 1230TIP3   OH227884   3.982   4.660   6.974 -0.0641 -0.8346  0.3403
 1230TIP3    H127885   4.055   4.618   7.020  1.5567  2.2642  0.8689
 1230TIP3    H227886   3.985   4.751   7.003 -3.0107 -0.1749 -1.1155
 1231TIP3   OH227887   3.093   0.163   8.398 -0.1674  0.4121 -0.2409
 1231TIP3    H127888   3.172   0.180   8.449  1.0333 -1.9265 -1.1715
 1231TIP3    H227889   3.122   0.168   8.306 -1.3703  0.6153 -0.6341
 1232TIP3   OH227890   7.645   0.849   8.281 -0.3191  0.3576  0.3413
 1232TIP3    H127891   7.571   0.790   8.298  0.4998 -0.8798 -0.2237
 1232TIP3    H227892   7.720   0.804   8.319  0.3942  0.8488 -0.4660
 1233TIP3   OH227893   3.875   4.147   8.641  0.0541  0.5627  0.5367
 1233TIP3    H127894   3.902   4.190   8.722  2.8591 -0.3922  0.2027
 1233TIP3    H227895   3.843   4.061   8.669 -0.7817  0.9339  0.7571
 1234TIP3   OH227896   4.097   6.663   7.553  0.0739  0.0758 -0.0651
 1234TIP3    H127897   4.144   6.590   7.593  0.3924 -0.2353 -0.9747
 1234TIP3    H227898   4.115   6.738   7.610 -1.8724 -0.9370  1.9997
 1235TIP3   OH227899   1.799   1.257   7.920 -0.4284  0.3639  0.0906
 1235TIP3    H127900   1.717   1.244   7.872  0.1117 -1.5684 -0.4121
 1235TIP3    H227901   1.828   1.169   7.942  1.9432  0.9255 -0.4911
 1236TIP3   OH227902   6.770   1.236   7.926 -0.2137 -0.2044  0.5614
 1236TIP3    H127903   6.720   1.157   7.908 -0.7302  0.3718 -0.6366
 1236TIP3    H227904   6.725   1.277   7.999 -2.2234  0.8651 -1.1711
 1237TIP3   OH227905   0.174   6.171   7.861 -0.1194 -0.3617 -0.1636
 1237TIP3    H127906   0.191   6.084   7.825 -1.5793 -0.4607 -0.6765
 1237TIP3    H227907   0.082   6.169   7.889  0.1150  0.6917  0.7808
 1238TIP3   OH227908   0.472   0.997   8.310 -0.9674  0.3490  0.1320
 1238TIP3    H127909   0.447   1.035   8.226 -0.4474 -2.4200 -1.4074
 1238TIP3    H227910   0.473   1.071   8.371 -2.3432  2.2985 -2.0453
 1239TIP3   OH227911   1.414   7.121   7.560  0.1587 -0.3250 -0.8404
 1239TIP3    H127912   1.402   7.032   7.593  0.5880 -0.6610 -1.5547
 1239TIP3    H227913   1.408   7.112   7.465 -1.3130  0.6497 -0.8693
 1240TIP3   OH227914   5.145   3.870   8.312  0.1574  0.0494 -1.0366
 1240TIP3    H127915   5.155   3.965   8.302 -0.0184  0.1527 -0.2643
 1240TIP3    H227916   5.228   3.833   8.281  0.4473  0.4903 -0.7897
 1241TIP3   OH227917   2.120   3.956   8.065 -0.0450  0.4536  0.3646
 1241TIP3    H127918   2.215   3.954   8.068  0.0955  1.1511 -1.7240
 1241TIP3    H227919   2.093   3.881   8.119  1.7319 -0.5594 -0.0546
 1242TIP3   OH227920   1.299   6.148   9.391 -0.4098 -0.0804 -0.3258
 1242TIP3    H127921   1.232   6.194   9.443  1.1927  1.2137  0.6924
 1242TIP3    H227922   1.302   6.198   9.309  0.0073  0.5089  0.0366
 1243TIP3   OH227923   4.473   2.508   7.677 -0.2578 -0.0651 -0.0241
 1243TIP3    H127924   4.548   2.503   7.736  0.5342 -0.9328 -1.0667
 1243TIP3    H227925   4.438   2.419   7.675 -0.3768 -0.0041 -0.7498
 1244TIP3   OH227926   5.901   0.769   8.081 -0.2532 -0.2828 -0.7868
 1244TIP3    H127927   5.962   0.843   8.080 -2.5574  1.7576 -2.3371
 1244TIP3    H227928   5.889   0.749   8.173  2.7658 -0.8888 -0.4067
 1245TIP3   OH227929   1.319   1.709   7.209 -0.0710 -0.2497 -0.1770
 1245TIP3    H127930   1.253   1.646   7.238  0.0782  0.0873  0.9738
 1245TIP3    H227931   1.269   1.777   7.164 -0.3428 -0.7132 -0.5796
 1246TIP3   OH227932   6.585   1.485   8.391 -0.5555  0.1552 -0.3497
 1246TIP3    H127933   6.665   1.537   8.398  0.0705 -0.6910 -1.0225
 1246TIP3    H227934   6.584   1.454   8.300 -1.1829 -0.5920 -0.0978
 1247TIP3   OH227935   3.809   5.075   8.261 -0.2987 -0.0796 -0.1017
 1247TIP3    H127936   3.886   5.057   8.207 -0.2503  0.3009 -0.1631
 1247TIP3    H227937   3.791   4.992   8.306  0.5352  0.0008  0.4028
 1248TIP3   OH227938   7.043   0.428   8.149 -0.0683  0.1301  0.1115
 1248TIP3    H127939   7.016   0.509   8.192 -2.4810  0.4030 -1.6832
 1248TIP3    H227940   7.077   0.456   8.064 -1.6559 -0.7138 -0.8527
 1249TIP3   OH227941   0.588   4.200   7.584 -0.3594 -0.2290  0.1585
 1249TIP3    H127942   0.602   4.106   7.575  1.0184  0.0849 -1.4660
 1249TIP3    H227943   0.533   4.224   7.510 -1.8102  0.0675  1.3019
 1250TIP3   OH227944   1.270   7.022   8.441  0.1896  0.2926  0.2645
 1250TIP3    H127945   1.280   6.994   8.532  0.2481  2.2520  0.8863
 1250TIP3    H227946   1.336   7.090   8.429  1.9415 -1.6227 -2.0398
 1251TIP3   OH227947   7.325   0.966   7.512 -0.5399 -0.3288  0.3077
 1251TIP3    H127948   7.362   1.054   7.521 -3.2234  0.9187  0.1812
 1251TIP3    H227949   7.361   0.917   7.586  1.0187  0.8308  0.3838
 1252TIP3   OH227950   7.056   1.026   8.590 -0.1929 -0.3164  0.9625
 1252TIP3    H127951   6.988   1.008   8.525 -0.6151  2.0138  0.6508
 1252TIP3    H227952   7.017   1.090   8.649  1.6068  0.9011  0.9249
 1253TIP3   OH227953   6.649   5.920   6.559  0.4721 -0.2555 -0.0352
 1253TIP3    H127954   6.716   5.908   6.626  0.5665  2.0611  0.3752
 1253TIP3    H227955   6.580   5.858   6.582  0.5122  0.4724  2.2465
 1254TIP3   OH227956   2.032   2.434   9.243 -0.1038  0.2192 -0.0559
 1254TIP3    H127957   1.953   2.488   9.241  0.0488  0.5102  0.9559
 1254TIP3    H227958   2.104   2.497   9.235  0.0572  0.0977  0.4314
 1255TIP3   OH227959   2.924   1.443   7.635  0.8440 -0.0738 -0.1737
 1255TIP3    H127960   2.869   1.519   7.616  0.2199 -0.6694 -0.8561
 1255TIP3    H227961   2.917   1.389   7.556  2.7248  0.0029 -0.4275
 1256TIP3   OH227962   6.293   4.863   8.513  0.2737  0.1972 -0.4060
 1256TIP3    H127963   6.256   4.899   8.432  0.0815  1.2129  0.1059
 1256TIP3    H227964   6.382   4.838   8.489 -0.1970 -0.7370 -1.2449
 1257TIP3   OH227965   2.233   2.318   8.382  0.3974 -0.1178  0.1095
 1257TIP3    H127966   2.195   2.313   8.295 -1.7889 -0.6347  1.0500
 1257TIP3    H227967   2.264   2.409   8.389 -0.8440  0.3838 -0.6415
 1258TIP3   OH227968   5.453   6.013   9.306 -0.0282  0.2245 -0.0514
 1258TIP3    H127969   5.388   5.950   9.276 -0.8310  1.2377 -0.4847
 1258TIP3    H227970   5.426   6.034   9.396  1.2796 -1.3773  0.7572
 1259TIP3   OH227971   3.302   6.002   9.126 -0.2986 -0.1437 -0.2838
 1259TIP3    H127972   3.333   6.072   9.183  1.5445  0.7645 -2.2324
 1259TIP3    H227973   3.374   5.938   9.126 -1.1984 -1.2014  0.0618
 1260TIP3   OH227974   1.702   7.596   7.163 -0.0423  0.7355  0.2243
 1260TIP3    H127975   1.770   7.585   7.096  0.1846  1.1541  0.3779
 1260TIP3    H227976   1.691   7.691   7.169 -1.3947  0.6489 -0.5508
 1261TIP3   OH227977   4.608   1.667   7.960 -0.3356 -0.0703  0.5335
 1261TIP3    H127978   4.658   1.748   7.951 -1.2990  0.5769  0.7633
 1261TIP3    H227979   4.648   1.621   8.033 -0.2545  0.5689  0.8963
 1262TIP3   OH227980   4.279   5.512   9.235  0.5237  0.6428 -0.4593
 1262TIP3    H127981   4.302   5.589   9.287  1.7244  0.7067 -1.0477
 1262TIP3    H227982   4.229   5.548   9.161 -1.3279  0.5335  0.6796
 1263TIP3   OH227983   4.675   4.270   7.877 -0.4109 -0.4147  0.7927
 1263TIP3    H127984   4.754   4.231   7.913  0.1888 -0.6096 -0.6409
 1263TIP3    H227985   4.613   4.273   7.950  0.3768 -1.7337  1.5542
 1264TIP3   OH227986   3.173   3.467   7.890  0.4131  0.1493 -0.1633
 1264TIP3    H127987   3.142   3.536   7.832 -0.7994  0.6032  0.9820
 1264TIP3    H227988   3.133   3.387   7.857 -1.6620  0.6522  0.9852
 1265TIP3   OH227989   3.036   6.681   9.461  0.2513  0.6598 -0.0422
 1265TIP3    H127990   3.112   6.736   9.482  0.2285  0.2513  1.2338
 1265TIP3    H227991   2.980   6.737   9.407  1.6184  0.8429 -1.3298
 1266TIP3   OH227992   5.113   0.674   7.727 -0.0489  0.2511  0.4764
 1266TIP3    H127993   5.104   0.580   7.713 -0.9367  0.2896  0.7348
 1266TIP3    H227994   5.060   0.714   7.658 -0.1939  0.5502  0.7592
 1267TIP3   OH227995   0.175   7.260   7.080  0.1966  0.1704 -0.4721
 1267TIP3    H127996   0.251   7.211   7.051 -0.1552 -1.1472  0.7063
 1267TIP3    H227997   0.196   7.352   7.060  3.0062  0.1286  1.6548
 1268TIP3   OH227998   6.624   6.073   7.889 -0.0422 -0.2535  0.4922
 1268TIP3    H127999   6.580   5.990   7.908 -1.1588 -0.1811 -1.4605
 1268TIP3    H228000   6.668   6.058   7.806 -1.7275  1.5777 -0.8152
 1269TIP3   OH228001   3.843   2.455   8.623 -0.3460 -0.0167 -0.0641
 1269TIP3    H128002   3.912   2.520   8.637 -1.4992  1.0059  1.1624
 1269TIP3    H228003   3.818   2.428   8.711  0.3039 -2.4261 -0.5287
 1270TIP3   OH228004   5.052   2.337   8.437  0.0235  0.3829 -0.1054
 1270TIP3    H128005   5.111   2.272   8.398 -1.3946  0.2600 -2.2064
 1270TIP3    H228006   5.097   2.421   8.425 -0.3207  0.3374 -2.0661
 1271TIP3   OH228007   4.012   5.060   8.649  0.5981  0.5344 -0.3342
 1271TIP3    H128008   3.949   5.117   8.604  1.4233  1.4119 -0.3935
 1271TIP3    H228009   3.974   4.972   8.640 -0.9638  1.1139  0.2338
 1272TIP3   OH228010   1.090   5.120   8.198 -0.2121 -0.2891 -0.2511
 1272TIP3    H128011   1.161   5.090   8.255  0.4979  0.1266 -0.9010
 1272TIP3    H228012   1.027   5.161   8.258  0.4350 -0.0068  0.2473
 1273TIP3   OH228013   2.659   7.533   7.171 -0.1571  0.2488  0.2757
 1273TIP3    H128014   2.729   7.469   7.155  0.4218  0.3040  2.3413
 1273TIP3    H228015   2.698   7.617   7.148  0.2591  0.2170  0.8484
 1274TIP3   OH228016   7.439   4.203   8.211 -0.1212  0.0030  0.4737
 1274TIP3    H128017   7.398   4.173   8.130 -0.2564  0.8139  0.2314
 1274TIP3    H228018   7.529   4.171   8.207  0.5504  1.9242 -1.0695
 1275TIP3   OH228019   5.921   4.242   7.593  0.0654  0.3116  0.2028
 1275TIP3    H128020   6.004   4.245   7.546  0.5797 -0.1682  1.0626
 1275TIP3    H228021   5.856   4.268   7.528  1.1159  3.0330  0.1161
 1276TIP3   OH228022   0.973   1.584   8.334 -0.2508 -0.5157  0.1338
 1276TIP3    H128023   0.878   1.584   8.328 -0.1522  0.3496 -2.8757
 1276TIP3    H228024   1.000   1.498   8.302  0.0247 -0.7041  0.8384
 1277TIP3   OH228025   2.419   1.558   7.604 -0.3020  0.3721 -0.4539
 1277TIP3    H128026   2.482   1.489   7.621  0.1364  0.9813  0.4805
 1277TIP3    H228027   2.371   1.528   7.526  0.2196 -0.7245 -0.3762
 1278TIP3   OH228028   0.685   0.989   9.138  0.5521  0.2591  0.3003
 1278TIP3    H128029   0.669   0.895   9.144  1.6834 -0.1371 -1.9301
 1278TIP3    H228030   0.598   1.029   9.144  0.0372 -0.9414  1.0102
 1279TIP3   OH228031   4.610   6.765   8.940 -0.1136  0.2142 -0.9370
 1279TIP3    H128032   4.538   6.826   8.958 -0.8587 -0.4326 -1.6450
 1279TIP3    H228033   4.567   6.681   8.923  0.9791 -1.6034  3.6815
 1280TIP3   OH228034   6.635   6.325   7.216  0.1203  0.2141 -0.8564
 1280TIP3    H128035   6.612   6.401   7.270  0.9700 -0.0780 -0.0483
 1280TIP3    H228036   6.562   6.316   7.155  0.0005  1.6811 -0.9786
 1281TIP3   OH228037   0.956   2.821   6.686  0.0198 -0.1249  0.3723
 1281TIP3    H128038   1.000   2.904   6.707 -1.4743  0.6711  0.4855
 1281TIP3    H228039   0.871   2.828   6.728  0.2633 -2.2155  1.3170
 1282TIP3   OH228040   5.563   4.260   6.959  0.1776 -0.0968 -0.0170
 1282TIP3    H128041   5.583   4.295   6.873  1.6939 -0.5076  0.1392
 1282TIP3    H228042   5.648   4.255   7.003 -0.3564 -1.4015  0.9170
 1283TIP3   OH228043   0.605   3.413   9.427  0.5016  0.3929 -0.5959
 1283TIP3    H128044   0.535   3.479   9.434  0.5060  0.4126 -0.7472
 1283TIP3    H228045   0.681   3.457   9.464  0.7019  0.7585 -1.4195
 1284TIP3   OH228046   0.742   4.609   7.031  0.3108 -0.7800  0.1067
 1284TIP3    H128047   0.766   4.552   7.104 -0.9171 -0.0796  1.1043
 1284TIP3    H228048   0.823   4.622   6.983  1.1209 -1.4116  1.2514
 1285TIP3   OH228049   4.873   5.059   9.360 -0.2363 -0.2080  0.1473
 1285TIP3    H128050   4.871   5.088   9.451 -0.8393  0.6114 -0.1143
 1285TIP3    H228051   4.808   5.114   9.316 -0.8070 -1.4013 -0.5457
 1286TIP3   OH228052   6.027   6.971   8.506 -0.0102 -0.0331 -0.2099
 1286TIP3    H128053   6.002   7.059   8.536 -0.6839 -0.4270  0.4323
 1286TIP3    H228054   6.040   6.921   8.587  0.8132 -0.4078 -0.5668
 1287TIP3   OH228055   3.619   1.722   7.965 -0.2790 -0.0642 -0.4062
 1287TIP3    H128056   3.634   1.664   8.039 -0.3752  0.3320 -0.0703
 1287TIP3    H228057   3.705   1.759   7.946 -0.0482 -0.9734 -1.1851
 1288TIP3   OH228058   1.353   1.701   8.630  0.2828  0.0018  0.0575
 1288TIP3    H128059   1.310   1.714   8.546  1.0278 -0.4512 -0.4027
 1288TIP3    H228060   1.308   1.762   8.690 -1.2941 -0.7566 -0.2916
 1289TIP3   OH228061   1.444   7.506   6.805 -0.0471  0.0402 -0.0101
 1289TIP3    H128062   1.450   7.448   6.881 -2.3307  1.5906  1.4956
 1289TIP3    H228063   1.354   7.495   6.773  0.5257  0.2620 -1.8013
 1290TIP3   OH228064   7.313   4.700   6.949  0.9309 -0.2589  0.0823
 1290TIP3    H128065   7.315   4.682   7.043 -0.0566  0.2812  0.2209
 1290TIP3    H228066   7.400   4.735   6.930  0.8013  0.6134  1.0055
 1291TIP3   OH228067   4.821   3.995   8.646  0.3390  0.0049 -0.0877
 1291TIP3    H128068   4.892   4.059   8.656  1.5290 -1.5607  2.9129
 1291TIP3    H228069   4.816   3.952   8.732 -2.2613 -2.0234 -1.1272
 1292TIP3   OH228070   6.527   4.017   7.832  0.5175 -0.2340 -0.7034
 1292TIP3    H128071   6.606   4.066   7.809  0.4991 -0.0524 -0.3868
 1292TIP3    H228072   6.557   3.928   7.846  1.0601  0.2688  1.6364
 1293TIP3   OH228073   6.117   0.195   7.430  0.2380 -0.5808  0.4382
 1293TIP3    H128074   6.176   0.145   7.373 -1.1502 -1.2378 -0.4745
 1293TIP3    H228075   6.171   0.220   7.505  2.0869  0.1573 -1.0628
 1294TIP3   OH228076   6.128   1.416   8.212  0.2498 -0.4062  0.1712
 1294TIP3    H128077   6.135   1.496   8.161  3.0806 -1.0142 -0.5708
 1294TIP3    H228078   6.120   1.346   8.147  1.4546 -0.9941  0.6320
 1295TIP3   OH228079   0.739   4.240   6.485 -0.6383  0.1001  0.5463
 1295TIP3    H128080   0.677   4.312   6.494 -1.2758 -0.5611  1.6330
 1295TIP3    H228081   0.690   4.172   6.439 -0.1506  0.2148 -0.1630
 1296TIP3   OH228082   2.602   1.663   7.336 -0.0827  0.5593 -0.4318
 1296TIP3    H128083   2.632   1.707   7.257 -1.3934  2.8140  0.2355
 1296TIP3    H228084   2.539   1.598   7.305  2.2614 -1.3817 -1.4787
 1297TIP3   OH228085   3.055   1.331   6.903  0.0890 -0.4987  0.3387
 1297TIP3    H128086   3.046   1.426   6.898 -0.5253 -0.5834 -0.3054
 1297TIP3    H228087   2.984   1.304   6.962 -0.3884 -0.6497 -0.2992
 1298TIP3   OH228088   2.228   1.120   9.418 -0.0617 -0.4835  0.4654
 1298TIP3    H128089   2.290   1.073   9.363 -0.0572 -0.0834  0.1266
 1298TIP3    H228090   2.206   1.058   9.488 -1.3169 -1.6266 -0.8632
 1299TIP3   OH228091   5.973   1.122   7.030 -0.6072  0.2333 -0.4757
 1299TIP3    H128092   6.021   1.079   6.959  1.0736 -1.9307  1.8134
 1299TIP3    H228093   5.881   1.105   7.009 -0.2302  0.4405 -2.5575
 1300TIP3   OH228094   6.459   7.237   8.373 -0.2083  0.5413  0.2906
 1300TIP3    H128095   6.458   7.159   8.429 -1.9044  0.5373  0.2871
 1300TIP3    H228096   6.535   7.224   8.316  1.2291  0.2633  2.1625
 1301TIP3   OH228097   7.021   6.139   8.125  0.3064 -0.2470 -0.4505
 1301TIP3    H128098   7.075   6.218   8.122  0.0608  0.1183  2.4198
 1301TIP3    H228099   7.049   6.094   8.205 -2.2367 -1.0792  0.0574
 1302TIP3   OH228100   2.171   2.897   6.812 -0.3137 -0.7693  0.0510
 1302TIP3    H128101   2.265   2.915   6.805  0.1148 -2.4548  0.8466
 1302TIP3    H228102   2.131   2.982   6.828  1.2184 -0.1658  0.8302
 1303TIP3   OH228103   6.012   1.932   8.402 -0.0721  0.2088 -0.2593
 1303TIP3    H128104   5.929   1.950   8.447 -0.1263  0.0938 -0.3141
 1303TIP3    H228105   6.062   1.878   8.464 -0.1340  0.0772 -0.3238
 1304TIP3   OH228106   2.722   1.336   9.155  0.2876 -0.3866 -0.0407
 1304TIP3    H128107   2.702   1.364   9.244  1.2495  0.0868  0.0374
 1304TIP3    H228108   2.816   1.321   9.155  0.5532  0.9695 -1.3155
 1305TIP3   OH228109   3.603   6.222   8.979 -0.1875  0.3591 -0.3977
 1305TIP3    H128110   3.571   6.309   9.002  0.9164  0.6594  0.0803
 1305TIP3    H228111   3.640   6.187   9.060  1.7576  0.5296 -1.1388
 1306TIP3   OH228112   4.211   5.891   9.265  0.0812  0.0538  0.1535
 1306TIP3    H128113   4.271   5.822   9.292  1.2678  0.3636 -1.5267
 1306TIP3    H228114   4.228   5.964   9.325  0.3367 -0.3686  0.5967
 1307TIP3   OH228115   0.549   2.079   9.170 -0.1916 -0.0670 -0.6272
 1307TIP3    H128116   0.613   2.150   9.176 -1.5872  1.3022 -1.1744
 1307TIP3    H228117   0.481   2.103   9.233 -0.2329 -1.4552 -0.1091
 1308TIP3   OH228118   7.295   5.765   9.370  0.5694 -0.5349 -0.2709
 1308TIP3    H128119   7.303   5.728   9.457  0.8262 -1.4196 -0.6637
 1308TIP3    H228120   7.286   5.859   9.385  1.0732 -0.6289  0.6792
 1309TIP3   OH228121   4.444   1.334   8.665  0.1014 -0.1221 -0.0801
 1309TIP3    H128122   4.528   1.365   8.631 -0.4111  0.0396 -1.2625
 1309TIP3    H228123   4.452   1.238   8.661 -0.3637 -0.1291 -1.8398
 1310TIP3   OH228124   4.832   3.532   8.879 -0.3768  0.3206  0.4982
 1310TIP3    H128125   4.803   3.441   8.879 -0.4774  0.3434 -0.0780
 1310TIP3    H228126   4.844   3.553   8.786 -1.7249  1.3263  0.5196
 1311TIP3   OH228127   3.373   3.736   6.918  0.0350 -0.1369  0.9300
 1311TIP3    H128128   3.327   3.653   6.906 -1.9960  1.1343 -0.8669
 1311TIP3    H228129   3.451   3.728   6.862 -1.4226 -0.0121 -1.2628
 1312TIP3   OH228130   2.511   6.971   7.905  0.4137  0.0092 -0.4674
 1312TIP3    H128131   2.420   6.943   7.920  0.9639 -2.4819 -1.3148
 1312TIP3    H228132   2.506   7.067   7.902 -2.1451 -0.0370 -0.2719
 1313TIP3   OH228133   2.508   4.418   8.540  0.0112 -0.3527  0.0332
 1313TIP3    H128134   2.482   4.509   8.554  1.2038  0.1463 -0.7926
 1313TIP3    H228135   2.468   4.370   8.612  1.4805  1.2225  1.9982
 1314TIP3   OH228136   4.624   4.254   9.393 -0.1344 -0.4934 -0.4886
 1314TIP3    H128137   4.596   4.321   9.455 -1.8920 -2.4866  1.0495
 1314TIP3    H228138   4.646   4.178   9.448  0.5073 -1.5917 -2.1876
 1315TIP3   OH228139   6.089   1.359   7.063  0.0481 -0.5106  0.3120
 1315TIP3    H128140   6.181   1.334   7.062  0.0890 -0.4646  1.6386
 1315TIP3    H228141   6.041   1.279   7.043  0.3416 -0.7340  0.5128
 1316TIP3   OH228142   2.952   1.839   7.779 -0.1068  0.6228 -0.0634
 1316TIP3    H128143   2.914   1.908   7.725  0.4310  0.1280 -1.1017
 1316TIP3    H228144   2.881   1.776   7.790 -0.2273  0.7412 -0.1573
 1317TIP3   OH228145   7.611   0.725   7.326  0.0368 -0.7016 -0.4877
 1317TIP3    H128146   7.644   0.648   7.371  0.3500  0.6620  1.7720
 1317TIP3    H228147   7.521   0.734   7.357 -0.1787 -0.4577 -1.1607
 1318TIP3   OH228148   5.944   0.529   9.524  0.8737 -0.3842  0.3258
 1318TIP3    H128149   5.971   0.445   9.561  1.7748 -0.5971 -0.7849
 1318TIP3    H228150   6.022   0.562   9.480 -0.1385 -0.1029 -1.3174
 1319TIP3   OH228151   1.192   1.584   9.113  0.3971 -0.3281  0.1360
 1319TIP3    H128152   1.098   1.600   9.122 -0.0395 -2.2939 -0.3833
 1319TIP3    H228153   1.202   1.551   9.024  1.3978 -1.1469  0.5323
 1320TIP3   OH228154   6.632   7.111   7.189 -0.3100  0.2596 -0.2188
 1320TIP3    H128155   6.586   7.027   7.187 -0.7816  0.4786  0.6451
 1320TIP3    H228156   6.643   7.129   7.282  1.1950  0.4083 -0.4112
 1321TIP3   OH228157   5.313   5.255   8.644 -0.0357 -0.2280  0.4864
 1321TIP3    H128158   5.310   5.197   8.568  2.2443 -0.7453  0.7257
 1321TIP3    H228159   5.327   5.195   8.718 -1.8625  0.2988  1.3293
 1322TIP3   OH228160   2.653   7.284   9.165 -0.7465 -0.3645 -0.0619
 1322TIP3    H128161   2.559   7.300   9.173 -0.5812  0.1103  1.1759
 1322TIP3    H228162   2.660   7.216   9.098 -1.9263  0.0467 -0.6231
 1323TIP3   OH228163   1.758   2.298   8.912 -0.6804  0.1034  0.1561
 1323TIP3    H128164   1.779   2.207   8.893  1.5766  0.6053 -0.0906
 1323TIP3    H228165   1.686   2.319   8.854  1.1225 -0.5508 -2.4774
 1324TIP3   OH228166   0.857   2.868   8.311 -0.5850  0.1224 -0.8449
 1324TIP3    H128167   0.839   2.946   8.258  0.5282  0.4754 -0.7191
 1324TIP3    H228168   0.928   2.824   8.264  1.7477  1.4072  1.2751
 1325TIP3   OH228169   6.378   1.961   8.898  0.4769  0.0442 -0.4651
 1325TIP3    H128170   6.302   1.908   8.875 -0.2720  0.7243  0.4080
 1325TIP3    H228171   6.359   2.048   8.863  1.5646 -0.1317 -1.6111
 1326TIP3   OH228172   4.758   3.107   7.577  0.5291 -0.9113  0.3400
 1326TIP3    H128173   4.777   3.132   7.486 -1.0448 -2.0745 -0.3658
 1326TIP3    H228174   4.840   3.124   7.624  0.6895  1.9099 -0.7884
 1327TIP3   OH228175   6.714   5.172   8.762 -0.4122 -0.2800  0.3829
 1327TIP3    H128176   6.697   5.251   8.711 -0.0528  0.7689  1.8244
 1327TIP3    H228177   6.638   5.116   8.745 -1.9648  1.4280  1.2848
 1328TIP3   OH228178   2.740   2.247   7.838 -0.3756  0.2307 -0.2302
 1328TIP3    H128179   2.680   2.266   7.910 -1.2202 -1.4190 -0.4628
 1328TIP3    H228180   2.734   2.324   7.781 -1.9605  0.2753 -0.0417
 1329TIP3   OH228181   3.811   5.102   9.205 -0.0062 -0.3001  0.3919
 1329TIP3    H128182   3.738   5.133   9.260  0.3256  1.0013  0.1382
 1329TIP3    H228183   3.887   5.107   9.262  0.1211 -0.2208  0.2157
 1330TIP3   OH228184   3.124   5.703   8.463  0.0749 -0.2348 -0.3424
 1330TIP3    H128185   3.201   5.700   8.405 -0.4730  0.3683 -1.1153
 1330TIP3    H228186   3.156   5.748   8.541  0.5905 -0.2402 -0.5423
 1331TIP3   OH228187   6.851   6.457   6.309 -0.5255 -0.3845  0.1167
 1331TIP3    H128188   6.893   6.537   6.341 -2.7431  1.2261 -0.6789
 1331TIP3    H228189   6.875   6.390   6.372  1.8673  0.7521  0.5329
 1332TIP3   OH228190   3.048   5.824   7.481 -0.4207  0.0993  0.9008
 1332TIP3    H128191   2.985   5.892   7.459 -1.1663 -1.1831 -1.2531
 1332TIP3    H228192   3.126   5.845   7.429  0.6044  1.0989  2.7590
 1333TIP3   OH228193   7.102   5.427   7.019 -0.2877  0.3184  0.0295
 1333TIP3    H128194   7.042   5.479   7.072 -0.8457  0.9445 -1.1764
 1333TIP3    H228195   7.064   5.428   6.931  0.9408 -0.1576 -0.5357
 1334TIP3   OH228196   7.418   7.439   7.595  0.0626 -0.0667  0.6460
 1334TIP3    H128197   7.359   7.378   7.551  1.5149  1.1304 -3.3372
 1334TIP3    H228198   7.497   7.388   7.613  0.0339 -0.1699  0.4744
 1335TIP3   OH228199   0.460   7.036   8.065  0.4980  0.5277  0.3906
 1335TIP3    H128200   0.427   6.998   7.984 -2.3061  1.1907  1.1089
 1335TIP3    H228201   0.485   7.125   8.041  0.6592  0.3908  0.0437
 1336TIP3   OH228202   2.482   5.477   8.317  0.5618 -0.3245 -0.3676
 1336TIP3    H128203   2.388   5.462   8.313  0.4506  0.5174 -2.3962
 1336TIP3    H228204   2.499   5.502   8.408 -1.3469  0.5852 -0.2128
 1337TIP3   OH228205   2.116   0.640   9.067 -0.4573  0.4065 -0.1851
 1337TIP3    H128206   2.032   0.599   9.088  0.1296  0.1025  1.7368
 1337TIP3    H228207   2.106   0.731   9.096  0.0754  0.2161  0.6011
 1338TIP3   OH228208   1.888   1.703   9.031  0.1558  0.4318  0.2828
 1338TIP3    H128209   1.952   1.763   9.069  2.3359 -0.9414 -0.9952
 1338TIP3    H228210   1.856   1.652   9.106  0.4496  1.2429  0.9708
 1339TIP3   OH228211   6.900   2.584   7.963  0.0826  0.5130  0.0652
 1339TIP3    H128212   6.826   2.524   7.952  1.5148 -0.9237 -3.0749
 1339TIP3    H228213   6.863   2.671   7.948 -1.1963 -0.0586 -0.2757
 1340TIP3   OH228214   4.233   4.348   7.133 -0.5287  0.2739  0.5299
 1340TIP3    H128215   4.226   4.262   7.092  0.2793  0.8609 -0.9122
 1340TIP3    H228216   4.318   4.347   7.177 -2.0693 -0.9494  3.7812
 1341TIP3   OH228217   4.607   1.853   8.882  0.6395  0.7347  0.1184
 1341TIP3    H128218   4.529   1.801   8.904  0.9477  0.1777 -0.0874
 1341TIP3    H228219   4.631   1.896   8.964  0.8719 -0.1070  0.4935
 1342TIP3   OH228220   2.628   2.314   8.128 -0.4196  0.2183 -0.3368
 1342TIP3    H128221   2.554   2.366   8.160  0.1184  0.4649  0.5222
 1342TIP3    H228222   2.609   2.225   8.158  0.2481  0.5062  1.0027
 1343TIP3   OH228223   2.998   5.954   9.149 -0.3317 -0.4663  0.3695
 1343TIP3    H128224   3.008   5.916   9.236 -0.1890 -1.3941 -0.0429
 1343TIP3    H228225   2.905   5.942   9.128 -0.1226 -1.3559 -0.0974
 1344TIP3   OH228226   4.671   6.333   9.776  0.0514 -0.3491 -0.0194
 1344TIP3    H128227   4.588   6.291   9.756 -0.9322  1.0155  0.9729
 1344TIP3    H228228   4.651   6.393   9.848  1.9069 -0.0033  0.2685
 1345TIP3   OH228229   2.221   0.347   7.642  0.2817  0.2550 -0.6379
 1345TIP3    H128230   2.240   0.254   7.644 -0.0654  0.1689 -1.2334
 1345TIP3    H228231   2.229   0.375   7.734  0.0461 -0.4277 -0.4050
 1346TIP3   OH228232   6.593   3.104   7.570  0.0883  0.0069 -0.0884
 1346TIP3    H128233   6.523   3.141   7.625 -0.0066 -0.6795  0.2596
 1346TIP3    H228234   6.673   3.117   7.621 -0.0572 -1.0237  0.4144
 1347TIP3   OH228235   4.037   5.786   9.548 -0.4928  0.2055 -0.4738
 1347TIP3    H128236   4.030   5.730   9.470  1.3587  2.3025 -2.3075
 1347TIP3    H228237   3.951   5.780   9.590 -1.2211 -1.8301 -2.0610
 1348TIP3   OH228238   1.549   4.887   8.393 -0.0125 -0.2797  0.6313
 1348TIP3    H128239   1.595   4.970   8.409  0.7375 -0.5291 -0.1498
 1348TIP3    H228240   1.572   4.833   8.469 -1.1019  0.4636  1.5121
 1349TIP3   OH228241   6.418   0.010   9.416 -0.0807 -0.9024 -0.1601
 1349TIP3    H128242   6.377   0.079   9.467 -0.3500 -0.8418 -0.4608
 1349TIP3    H228243   6.404   0.035   9.324  1.8822 -0.0918 -0.3088
 1350TIP3   OH228244   0.153   2.973   8.985  0.6414 -0.7143 -0.2647
 1350TIP3    H128245   0.219   3.038   8.961 -0.9373  0.6002 -1.2723
 1350TIP3    H228246   0.182   2.893   8.943  1.2374  0.0239 -1.3257
 1351TIP3   OH228247   1.432   1.012   9.008  0.2824  0.1225 -0.3157
 1351TIP3    H128248   1.513   0.969   8.981 -0.4890 -0.9580 -0.9829
 1351TIP3    H228249   1.362   0.962   8.966 -0.7303  1.2099 -0.0005
 1352TIP3   OH228250   0.995   5.633   8.321  0.2619 -0.5237 -0.0014
 1352TIP3    H128251   1.070   5.689   8.302 -0.4526  1.0449  1.5834
 1352TIP3    H228252   1.006   5.558   8.262  2.5410  0.1116 -0.4810
 1353TIP3   OH228253   3.867   4.461   6.820  0.6576 -0.1752 -0.5231
 1353TIP3    H128254   3.788   4.513   6.833 -0.7596 -2.3900  0.3952
 1353TIP3    H228255   3.929   4.495   6.885 -0.2680  0.2816  0.1513
 1354TIP3   OH228256   0.131   4.950   8.578  0.4789  0.1421  0.4760
 1354TIP3    H128257   0.200   4.963   8.513 -1.3661 -0.0658 -1.6567
 1354TIP3    H228258   0.116   4.855   8.578 -0.4647  0.2778  0.1349
 1355TIP3   OH228259   6.919   6.255   9.015  0.2572 -0.1460  0.9987
 1355TIP3    H128260   6.976   6.297   8.951  1.4700 -0.5751  1.7574
 1355TIP3    H228261   6.834   6.249   8.972  0.5611  1.2737  0.1437
 1356TIP3   OH228262   3.806   6.602   7.725  0.5857 -0.1437  0.2896
 1356TIP3    H128263   3.818   6.509   7.744  0.9895 -0.0313  0.6039
 1356TIP3    H228264   3.821   6.610   7.631 -1.2401 -0.6762 -0.0864
 1357TIP3   OH228265   2.852   6.302   9.639  0.0788 -0.2657  0.2962
 1357TIP3    H128266   2.821   6.388   9.611  0.5260 -0.2986 -0.3216
 1357TIP3    H228267   2.827   6.296   9.732  1.9889  1.4428  0.9987
 1358TIP3   OH228268   3.707   0.903   9.081  0.6213  0.0032 -0.2594
 1358TIP3    H128269   3.674   0.824   9.038 -1.2935  0.2144  0.7154
 1358TIP3    H228270   3.768   0.941   9.017 -0.4544 -0.8507 -1.8712
 1359TIP3   OH228271   1.209   4.465   8.475  0.1795 -0.2333  0.1292
 1359TIP3    H128272   1.292   4.512   8.486  0.8714 -1.5296  0.5613
 1359TIP3    H228273   1.152   4.501   8.543  0.0985  1.2288 -0.6686
 1360TIP3   OH228274   1.567   4.297   7.864  0.9085  0.1846 -0.2359
 1360TIP3    H128275   1.616   4.293   7.781  2.1971 -0.8473  0.5320
 1360TIP3    H228276   1.631   4.271   7.930 -0.4804 -0.4160  0.9136
 1361TIP3   OH228277   6.061   0.852   8.664  0.1237 -0.5196 -0.5419
 1361TIP3    H128278   5.999   0.925   8.659  0.5954 -0.0262  0.5123
 1361TIP3    H228279   6.127   0.881   8.727 -0.4358 -2.4218  0.9965
 1362TIP3   OH228280   0.373   3.730   7.594  0.1939 -0.1780  0.5097
 1362TIP3    H128281   0.455   3.780   7.597 -0.6593  1.2985  0.2647
 1362TIP3    H228282   0.371   3.680   7.676  0.3628  1.3954  1.5077
 1363TIP3   OH228283   3.013   4.902   9.542  0.5345  0.4836  0.1664
 1363TIP3    H128284   3.091   4.884   9.595  0.8662 -0.8666 -0.7500
 1363TIP3    H228285   3.047   4.947   9.464  0.2156  1.1532  0.4033
 1364TIP3   OH228286   1.525   2.316   8.729 -0.2852  0.1197 -0.4080
 1364TIP3    H128287   1.546   2.409   8.742  0.0323  0.3336 -2.2233
 1364TIP3    H228288   1.463   2.316   8.656  0.5098 -1.1634 -1.1085
 1365TIP3   OH228289   5.057   0.316   8.150  0.0540 -0.2976  0.5267
 1365TIP3    H128290   5.032   0.236   8.103 -1.4534  0.9478 -0.9126
 1365TIP3    H228291   5.030   0.387   8.093  1.2682  1.2800  1.8170
 1366TIP3   OH228292   3.289   0.553   9.423  0.5952  0.3551  0.0502
 1366TIP3    H128293   3.219   0.609   9.388  0.1178 -0.6587 -0.6700
 1366TIP3    H228294   3.245   0.471   9.444  1.4251 -0.0134  0.3553
 1367TIP3   OH228295   4.356   4.617   7.550  0.2175  0.1693  0.2643
 1367TIP3    H128296   4.431   4.616   7.491 -0.1353  2.7395 -0.3688
 1367TIP3    H228297   4.358   4.532   7.593  2.3065 -0.6010 -1.1874
 1368TIP3   OH228298   3.413   6.867   7.430 -0.1120 -0.1176  0.1311
 1368TIP3    H128299   3.391   6.848   7.339 -0.7973  3.5024 -0.6173
 1368TIP3    H228300   3.387   6.788   7.478 -0.4837 -1.8295 -2.6603
 1369TIP3   OH228301   2.835   2.488   8.991 -0.5610 -0.5126 -0.5310
 1369TIP3    H128302   2.855   2.423   9.058 -1.3815 -0.6468 -0.4094
 1369TIP3    H228303   2.749   2.463   8.958 -1.0364  0.6919 -0.2648
 1370TIP3   OH228304   0.243   1.544   8.700 -0.0750  0.3407 -0.2126
 1370TIP3    H128305   0.298   1.466   8.695 -0.3354 -0.2106  2.9914
 1370TIP3    H228306   0.159   1.512   8.732  0.4911  2.0089  3.5469
 1371TIP3   OH228307   5.894   3.169   9.338  0.2459  0.0726  0.1843
 1371TIP3    H128308   5.904   3.264   9.345 -1.0328  0.1034  2.6258
 1371TIP3    H228309   5.808   3.151   9.374  1.5162 -2.2512  2.3595
 1372TIP3   OH228310   4.858   4.103   8.014  0.4247  0.4705  0.2384
 1372TIP3    H128311   4.922   4.128   8.080  1.6621 -0.6795 -0.4876
 1372TIP3    H228312   4.898   4.030   7.967 -1.0397  0.3024 -0.8328
 1373TIP3   OH228313   0.051   5.453   9.011 -0.4872  0.2572 -0.3733
 1373TIP3    H128314   0.119   5.518   8.992 -0.3231  0.9596  2.2546
 1373TIP3    H228315  -0.031   5.497   8.988 -0.1967  0.1423 -1.6881
 1374TIP3   OH228316   2.961   4.308   9.158  0.2809 -0.2413  0.1036
 1374TIP3    H128317   2.987   4.360   9.082 -0.2750 -0.7566 -0.4556
 1374TIP3    H228318   2.974   4.217   9.130  0.9340 -0.4146  0.9494
 1375TIP3   OH228319   3.716   3.428   9.184  0.4589  0.2075  1.3439
 1375TIP3    H128320   3.744   3.507   9.232  2.5421 -0.7423  1.8139
 1375TIP3    H228321   3.625   3.445   9.162  0.2528  1.9177  3.1649
 1376TIP3   OH228322   1.186   5.822   8.256  0.1947  0.1601  0.1212
 1376TIP3    H128323   1.250   5.885   8.223  0.1131  0.3395  0.3009
 1376TIP3    H228324   1.206   5.813   8.349 -0.2361  0.4686  0.2529
 1377TIP3   OH228325   6.407   1.121   8.199  0.0749 -0.0585 -0.6022
 1377TIP3    H128326   6.358   1.099   8.120 -0.8974 -0.6419  0.1377
 1377TIP3    H228327   6.413   1.038   8.247 -1.2070  0.6726  0.9232
 1378TIP3   OH228328   0.037   4.810   8.249  0.6504 -0.3486  0.2432
 1378TIP3    H128329   0.013   4.801   8.342  0.6983  1.0237  0.4111
 1378TIP3    H228330   0.131   4.790   8.248  0.7481  0.0673  0.5734
 1379TIP3   OH228331   7.049   0.884   6.638  0.1866 -0.4851 -0.4060
 1379TIP3    H128332   7.132   0.837   6.642  0.5425  0.0414 -1.2120
 1379TIP3    H228333   6.983   0.816   6.624  0.5547 -0.8555 -0.3463
 1380TIP3   OH228334   7.621   6.309   9.523  0.0289  0.2689 -0.2356
 1380TIP3    H128335   7.566   6.269   9.591 -0.5976  1.2685 -0.1387
 1380TIP3    H228336   7.587   6.274   9.441  0.1144 -0.1396 -0.0998
 1381TIP3   OH228337   7.147   4.940   8.779 -0.2511 -0.0315  0.1238
 1381TIP3    H128338   7.198   4.998   8.723 -0.3749 -1.0832 -1.1533
 1381TIP3    H228339   7.175   4.852   8.753 -0.5066 -0.5579  1.5629
 1382TIP3   OH228340   1.245   6.618   7.010 -0.8767  0.9009  0.2054
 1382TIP3    H128341   1.268   6.709   7.030 -1.1253  0.5010  2.4820
 1382TIP3    H228342   1.151   6.621   6.992 -0.8597  1.0914  0.1335
 1383TIP3   OH228343   2.203   4.605   6.615 -0.4395 -0.0865 -0.0710
 1383TIP3    H128344   2.148   4.528   6.629  1.1564 -1.2560  0.0553
 1383TIP3    H228345   2.141   4.677   6.604 -1.9861 -1.3684 -0.1505
 1384TIP3   OH228346   4.192   3.170   7.906  0.5699  0.7048  0.0777
 1384TIP3    H128347   4.146   3.230   7.847  0.5595  1.0237  0.4062
 1384TIP3    H228348   4.227   3.102   7.848 -1.2829 -0.1876 -0.0642
 1385TIP3   OH228349   4.334   1.765   9.031 -0.3765 -0.4131  0.3912
 1385TIP3    H128350   4.285   1.839   8.995 -0.4698  0.1843  1.6870
 1385TIP3    H228351   4.296   1.688   8.988 -0.8083  0.2283 -0.3980
 1386TIP3   OH228352   7.402   7.285   6.956  0.2762  0.5842 -0.0107
 1386TIP3    H128353   7.471   7.254   7.015  0.3079  1.5348  0.4834
 1386TIP3    H228354   7.345   7.337   7.012  0.3602  1.6028 -0.8307
 1387TIP3   OH228355   6.991   0.978   7.242  0.4705  0.5199  0.1651
 1387TIP3    H128356   6.935   1.009   7.171  2.3380 -0.0894 -1.6651
 1387TIP3    H228357   6.956   1.021   7.320 -2.0710  0.6908 -0.9774
 1388TIP3   OH228358   2.759   2.892   7.632 -0.1303 -0.3358  0.3192
 1388TIP3    H128359   2.713   2.842   7.699 -0.2507 -1.0405 -0.2810
 1388TIP3    H228360   2.712   2.872   7.551  1.0939 -0.8935 -0.2713
 1389TIP3   OH228361   7.350   6.284   6.980 -0.0832 -0.1360  0.0455
 1389TIP3    H128362   7.378   6.359   6.927  3.2085 -1.0538  0.2870
 1389TIP3    H228363   7.318   6.221   6.916  0.6724  0.0600 -0.5400
 1390TIP3   OH228364   3.074   5.372   8.879 -0.2418 -0.0777  0.7321
 1390TIP3    H128365   3.089   5.286   8.840 -1.9951  0.3502 -1.0843
 1390TIP3    H228366   3.037   5.354   8.965 -0.9903 -1.1790  0.2053
 1391TIP3   OH228367   5.520   2.363   7.607 -0.1983 -0.2753  0.4482
 1391TIP3    H128368   5.559   2.310   7.676  2.0411  0.6945  0.0019
 1391TIP3    H228369   5.580   2.355   7.533 -1.5681  0.2030 -0.7657
 1392TIP3   OH228370   2.730   7.250   8.453  0.3786 -1.2509 -0.0878
 1392TIP3    H128371   2.664   7.262   8.521  1.9655 -0.1554  1.3310
 1392TIP3    H228372   2.722   7.159   8.427 -2.0963 -1.0166 -0.4462
 1393TIP3   OH228373   2.960   3.575   8.496 -0.0009  0.4998  0.4929
 1393TIP3    H128374   2.926   3.644   8.553  0.0269  0.1908  0.8895
 1393TIP3    H228375   3.019   3.620   8.436  0.1475  0.7943  0.8584
 1394TIP3   OH228376   7.629   2.995   8.731  0.2615  0.1227 -0.4543
 1394TIP3    H128377   7.651   2.995   8.824  0.6748  0.3961 -0.5529
 1394TIP3    H228378   7.681   2.923   8.694  0.8861  0.6715 -0.6586
 1395TIP3   OH228379   6.365   6.534   8.810 -0.1242 -0.3509  0.1381
 1395TIP3    H128380   6.394   6.443   8.819 -1.4688 -0.7302  0.9904
 1395TIP3    H228381   6.439   6.579   8.771  0.4775 -1.8689 -0.5559
 1396TIP3   OH228382   3.796   6.950   9.211 -0.2583  0.2863  0.0769
 1396TIP3    H128383   3.836   6.886   9.151 -0.4279 -0.1536  0.4237
 1396TIP3    H228384   3.745   7.007   9.154 -0.2374  0.0112 -0.2253
 1397TIP3   OH228385   4.253   7.320   9.399  0.0287  0.3343 -0.0625
 1397TIP3    H128386   4.348   7.331   9.405  0.2682 -0.8575 -1.0464
 1397TIP3    H228387   4.235   7.321   9.305 -0.8032 -0.2596  0.0756
 1398TIP3   OH228388   0.332   4.660   8.551 -0.1528  0.4155 -0.0343
 1398TIP3    H128389   0.288   4.681   8.633 -1.4989 -0.6774 -0.4466
 1398TIP3    H228390   0.367   4.572   8.563 -0.3206  0.2630 -0.6135
 1399TIP3   OH228391   2.078   2.029   6.958  0.3000  0.1531  0.1606
 1399TIP3    H128392   2.116   2.100   7.010 -0.5607  1.4239 -0.8866
 1399TIP3    H228393   1.989   2.019   6.991  0.2723 -0.1359  0.0051
 1400TIP3   OH228394   2.233   3.051   8.725  0.7721  0.5107 -0.2715
 1400TIP3    H128395   2.324   3.033   8.702  0.9458  1.1416 -0.0851
 1400TIP3    H228396   2.238   3.092   8.811  0.2452 -0.2433  0.1294
 1401TIP3   OH228397   7.481   6.473   8.515 -0.3270  0.2128 -0.3986
 1401TIP3    H128398   7.437   6.390   8.533 -1.5713  0.9177  0.0046
 1401TIP3    H228399   7.547   6.481   8.584  0.6658 -0.9955 -1.1750
 1402TIP3   OH228400   6.360   0.615   8.408  0.2638  0.2159  0.2280
 1402TIP3    H128401   6.334   0.677   8.476  0.4828 -0.0273  0.5335
 1402TIP3    H228402   6.288   0.553   8.403  0.4665 -0.0532  0.5876
 1403TIP3   OH228403   5.150   6.250   7.515  0.2145  0.1836 -0.1157
 1403TIP3    H128404   5.184   6.207   7.593  1.2825  2.1022  0.5357
 1403TIP3    H228405   5.096   6.183   7.473  0.4736 -1.2383  1.6769
 1404TIP3   OH228406   0.140   0.760   7.611  0.3020 -0.0160 -0.5445
 1404TIP3    H128407   0.087   0.681   7.619 -1.7130  0.9697 -2.7262
 1404TIP3    H228408   0.199   0.741   7.538 -0.3999  0.5246 -1.2812
 1405TIP3   OH228409   3.960   4.983   7.564 -0.2724  0.1344  0.6287
 1405TIP3    H128410   3.877   4.998   7.610  0.2123  1.1144  1.2177
 1405TIP3    H228411   4.026   4.980   7.634  0.1718 -0.9625  0.2007
 1406TIP3   OH228412   4.290   3.645   7.555  0.1297 -0.7558  0.2076
 1406TIP3    H128413   4.212   3.633   7.610  0.4463 -0.0057  0.8281
 1406TIP3    H228414   4.343   3.567   7.573  0.1830 -0.5721  0.8953
 1407TIP3   OH228415   4.952   1.154   7.171 -0.1044 -0.2092  0.5309
 1407TIP3    H128416   4.864   1.160   7.135  0.3291  1.2949 -0.3625
 1407TIP3    H228417   4.988   1.242   7.161  2.5934 -1.4393 -2.0162
 1408TIP3   OH228418   7.584   5.991   7.584 -0.8105 -0.5135  0.2264
 1408TIP3    H128419   7.642   5.927   7.544  1.9588 -0.2190  3.3904
 1408TIP3    H228420   7.603   6.073   7.538 -2.5726 -1.3123 -2.1478
 1409TIP3   OH228421   7.025   3.638   9.348  0.0833  0.0142 -0.2519
 1409TIP3    H128422   7.065   3.628   9.261  2.9122  0.4692  0.8816
 1409TIP3    H228423   7.079   3.584   9.405  0.0210  1.8790  1.6710
 1410TIP3   OH228424   0.931   3.125   7.447  0.3379  0.1403  0.1575
 1410TIP3    H128425   0.918   3.054   7.385  2.0194 -0.4025  0.3820
 1410TIP3    H228426   0.849   3.129   7.496 -0.6701 -0.0471 -1.4232
 1411TIP3   OH228427   3.370   0.842   8.583  0.4216  0.1009  0.2572
 1411TIP3    H128428   3.446   0.797   8.547  0.8694 -0.3531  1.7228
 1411TIP3    H228429   3.328   0.882   8.507  2.3509  0.7191 -0.5407
 1412TIP3   OH228430   7.221   5.536   8.007 -0.5899 -0.4230 -1.0124
 1412TIP3    H128431   7.206   5.570   7.919 -2.0204  0.6526 -0.3983
 1412TIP3    H228432   7.133   5.528   8.045 -0.0026 -0.7599  0.3438
 1413TIP3   OH228433   1.566   6.626   9.199  0.2026  0.1201 -0.0278
 1413TIP3    H128434   1.657   6.655   9.205  0.9404 -1.9501 -0.5751
 1413TIP3    H228435   1.563   6.567   9.124 -1.5333 -0.1293  0.1801
 1414TIP3   OH228436   4.543   0.713   9.313 -0.1707 -0.5834 -0.2234
 1414TIP3    H128437   4.616   0.652   9.324 -0.7131 -1.2894 -0.5546
 1414TIP3    H228438   4.580   0.784   9.260  0.4726 -0.5938  0.2019
 1415TIP3   OH228439   1.717   4.946   9.164  0.4174  0.6114  0.0006
 1415TIP3    H128440   1.747   4.971   9.076  3.3596 -0.0095  0.7429
 1415TIP3    H228441   1.745   5.018   9.221  0.0119  0.2374  0.6863
 1416TIP3   OH228442   3.637   3.745   7.283  0.0104  0.2476 -0.2215
 1416TIP3    H128443   3.717   3.770   7.237  0.0759  1.9489  0.7459
 1416TIP3    H228444   3.667   3.710   7.367 -0.1861 -1.4366 -0.8003
 1417TIP3   OH228445   4.366   1.313   8.029  0.4635 -0.8152 -0.7460
 1417TIP3    H128446   4.272   1.322   8.047  0.8015 -0.2078  0.9415
 1417TIP3    H228447   4.382   1.219   8.034 -0.0374 -0.9134 -0.9048
 1418TIP3   OH228448   2.051   3.758   9.393 -0.3212 -0.1230 -0.3081
 1418TIP3    H128449   2.050   3.823   9.323 -1.4479 -1.8766 -2.0283
 1418TIP3    H228450   1.964   3.764   9.433 -0.0564  0.1282  0.2465
 1419TIP3   OH228451   0.319   7.405   7.815  0.0726  0.3669 -0.1666
 1419TIP3    H128452   0.314   7.384   7.722 -0.0829 -0.9906  0.1307
 1419TIP3    H228453   0.228   7.406   7.845  0.1879 -0.8923  0.3043
 1420TIP3   OH228454   0.540   1.782   6.749 -0.0253  0.2034  0.2076
 1420TIP3    H128455   0.575   1.840   6.681  2.4280 -0.9638  0.3813
 1420TIP3    H228456   0.606   1.784   6.819 -2.2340  0.9934  2.4192
 1421TIP3   OH228457   3.127   2.433   8.109  0.2593 -0.6814  0.1872
 1421TIP3    H128458   3.175   2.408   8.029  0.4880 -1.8936  0.6904
 1421TIP3    H228459   3.052   2.374   8.112 -0.2684 -0.0167  0.3913
 1422TIP3   OH228460   4.744   1.328   6.758 -0.0693 -0.2281 -0.3942
 1422TIP3    H128461   4.767   1.261   6.694 -0.0151  0.4097 -1.0491
 1422TIP3    H228462   4.648   1.329   6.757 -0.1042 -1.1443  0.5175
 1423TIP3   OH228463   4.497   1.049   8.024 -0.3139 -0.1349 -0.0749
 1423TIP3    H128464   4.459   1.003   8.099 -0.2740 -0.6730 -0.3757
 1423TIP3    H228465   4.573   0.995   8.000 -1.6238 -1.2669 -1.9314
 1424TIP3   OH228466   6.392   4.661   8.082  0.2309  0.9923  0.1319
 1424TIP3    H128467   6.437   4.663   7.998  0.3894  1.7913  0.2354
 1424TIP3    H228468   6.304   4.629   8.061  0.7835 -0.4770 -0.0814
 1425TIP3   OH228469   4.624   6.648   6.583 -0.4958  0.0607 -0.0610
 1425TIP3    H128470   4.713   6.668   6.554  0.3715 -1.1264  1.6213
 1425TIP3    H228471   4.614   6.554   6.568 -0.1930 -0.5233  2.7582
 1426TIP3   OH228472   0.433   0.163   8.482 -0.0504 -0.2559 -0.3589
 1426TIP3    H128473   0.370   0.194   8.417  1.4010 -1.4784 -2.4993
 1426TIP3    H228474   0.407   0.073   8.500  1.0887 -0.8171 -1.3596
 1427TIP3   OH228475   5.402   0.955   9.275  0.0926 -0.6246  0.1563
 1427TIP3    H128476   5.425   0.915   9.358  1.3627 -0.7757 -0.2485
 1427TIP3    H228477   5.389   0.881   9.215 -0.5578 -0.5083  0.1379
 1428TIP3   OH228478   7.354   4.400   9.042 -0.4551 -0.2403  0.3935
 1428TIP3    H128479   7.292   4.328   9.057 -0.6574  0.2659  2.2103
 1428TIP3    H228480   7.308   4.459   8.982 -0.0841 -1.8355 -1.5557
 1429TIP3   OH228481   3.951   3.068   8.939  0.5502  0.4366 -0.3174
 1429TIP3    H128482   3.912   3.073   9.026  1.0813  1.2876 -0.1184
 1429TIP3    H228483   3.895   3.125   8.885 -1.4117 -2.1213 -1.2130
 1430TIP3   OH228484   2.613   3.390   8.733 -0.0936 -0.2528  0.1812
 1430TIP3    H128485   2.666   3.313   8.710 -0.7383 -0.2394 -1.5159
 1430TIP3    H228486   2.545   3.356   8.791  0.1168 -0.8095  0.1078
 1431TIP3   OH228487   0.122   3.998   6.522  0.0975  0.0320  0.1399
 1431TIP3    H128488   0.066   4.019   6.448 -1.5457 -0.0689  1.3172
 1431TIP3    H228489   0.116   4.074   6.580  0.3412 -0.4147  0.7660
 1432TIP3   OH228490   7.345   3.663   8.099  0.4193  0.5968  0.6230
 1432TIP3    H128491   7.309   3.593   8.044  1.1006 -0.1864  1.1437
 1432TIP3    H228492   7.379   3.618   8.176  0.8728  1.5080  0.9757
 1433TIP3   OH228493   2.992   4.840   8.944 -0.5602 -0.1530 -0.3743
 1433TIP3    H128494   2.969   4.766   8.890 -0.4080 -1.2014  0.9407
 1433TIP3    H228495   2.995   4.805   9.033  1.7326  0.8849  0.0442
 1434TIP3   OH228496   0.568   6.592   9.398  0.0747  0.2007 -0.1651
 1434TIP3    H128497   0.648   6.557   9.438  0.3557  0.6193 -0.3544
 1434TIP3    H228498   0.526   6.515   9.358  1.4639  0.2858 -1.9137
 1435TIP3   OH228499   3.240   3.985   6.914  0.1115  0.0670 -0.2107
 1435TIP3    H128500   3.286   4.066   6.894 -0.5493  0.6844  0.6826
 1435TIP3    H228501   3.309   3.920   6.923  0.6528  0.5116 -0.9488
 1436TIP3   OH228502   4.532   1.749   9.216  0.1240  0.4853  0.0704
 1436TIP3    H128503   4.542   1.844   9.220  3.2605  0.3427 -1.4734
 1436TIP3    H228504   4.450   1.736   9.168 -0.5463  2.3579  0.5989
 1437TIP3   OH228505   2.785   1.505   9.351  0.2387  0.2621  0.2052
 1437TIP3    H128506   2.793   1.567   9.423 -0.9704 -0.0044  0.5949
 1437TIP3    H228507   2.863   1.451   9.357 -0.7633 -1.0694  2.6105
 1438TIP3   OH228508   0.209   2.564   7.499 -0.0456  0.3208 -0.0081
 1438TIP3    H128509   0.275   2.560   7.430  0.7520 -1.1143  0.7828
 1438TIP3    H228510   0.215   2.479   7.543 -2.7936 -0.0937 -0.2175
 1439TIP3   OH228511   3.197   2.768   6.821 -0.4194 -0.0155  0.0884
 1439TIP3    H128512   3.215   2.860   6.800 -0.0811 -0.1377 -0.1638
 1439TIP3    H228513   3.102   2.762   6.825 -0.4611  0.1880 -0.5924
 1440TIP3   OH228514   3.300   5.648   7.354 -0.0319  0.2140  0.8045
 1440TIP3    H128515   3.279   5.637   7.447  0.4052  3.4381  1.3903
 1440TIP3    H228516   3.216   5.672   7.314 -0.2629 -1.3742  0.2525
 1441TIP3   OH228517   3.896   5.972   7.709 -0.1154  0.0859  0.2289
 1441TIP3    H128518   3.981   6.014   7.726  0.0753 -0.1128 -0.2309
 1441TIP3    H228519   3.907   5.927   7.626 -0.8816  0.6119 -0.1770
 1442TIP3   OH228520   1.552   3.009   8.282 -0.3791 -0.3445 -0.5755
 1442TIP3    H128521   1.489   3.078   8.304 -1.0927 -1.0522 -0.3562
 1442TIP3    H228522   1.505   2.952   8.221  0.7972  0.3192 -2.1910
 1443TIP3   OH228523   6.725   3.127   8.592  0.3171  0.0126  0.0808
 1443TIP3    H128524   6.672   3.096   8.518 -0.5056  0.9850  0.2419
 1443TIP3    H228525   6.812   3.092   8.575 -0.4829 -2.2433  0.1479
 1444TIP3   OH228526   7.450   5.709   6.509 -0.1122 -0.2258  0.2328
 1444TIP3    H128527   7.498   5.756   6.577  2.0712 -1.0837 -0.5837
 1444TIP3    H228528   7.478   5.750   6.427  0.6531 -1.8787 -0.3839
 1445TIP3   OH228529   4.543   6.500   8.814 -0.2039  0.1556 -0.1852
 1445TIP3    H128530   4.462   6.515   8.765 -1.0740 -1.9288  0.4949
 1445TIP3    H228531   4.573   6.414   8.784  0.2702 -0.3165  1.5209
 1446TIP3   OH228532   0.623   0.305   8.620 -0.2711  0.2568 -0.1310
 1446TIP3    H128533   0.555   0.261   8.569  0.6274 -0.2686 -0.8865
 1446TIP3    H228534   0.662   0.367   8.559  0.4950 -0.0434  0.0485
 1447TIP3   OH228535   5.632   6.747   6.735 -0.3556  0.3351  0.5448
 1447TIP3    H128536   5.607   6.758   6.643  0.9796 -1.2611 -0.0551
 1447TIP3    H228537   5.557   6.782   6.784  0.2029  4.3386 -1.0245
 1448TIP3   OH228538   5.087   6.615   8.240 -0.1438 -0.0178 -0.1610
 1448TIP3    H128539   5.127   6.695   8.206  0.9001 -0.6093 -0.3561
 1448TIP3    H228540   5.078   6.558   8.164 -0.3806 -0.2943  0.0730
 1449TIP3   OH228541   1.693   1.681   9.406  0.1462  0.0583  0.2588
 1449TIP3    H128542   1.681   1.775   9.396 -0.2467  0.2972  2.4693
 1449TIP3    H228543   1.605   1.645   9.415  0.2787 -0.5877 -0.7343
 1450TIP3   OH228544   0.391   4.999   7.714  0.2569  0.4566  0.2833
 1450TIP3    H128545   0.435   4.955   7.642 -0.1677 -1.3839  1.0870
 1450TIP3    H228546   0.301   5.009   7.684  0.2393  0.3360  0.2971
 1451TIP3   OH228547   3.848   0.811   8.358 -0.3079  0.2440  0.4108
 1451TIP3    H128548   3.762   0.812   8.318  0.2898 -0.3350 -0.9513
 1451TIP3    H228549   3.882   0.900   8.346 -1.8901  1.4810  3.7881
 1452TIP3   OH228550   2.932   0.734   8.071  0.4630 -0.6672  0.6485
 1452TIP3    H128551   2.991   0.748   7.997 -2.2930  0.7885 -1.4575
 1452TIP3    H228552   2.889   0.651   8.052 -0.2449 -0.2955  0.5884
 1453TIP3   OH228553   2.373   2.638   7.148 -0.4432  0.1018 -0.0098
 1453TIP3    H128554   2.316   2.713   7.165 -2.2591 -1.2467  0.1640
 1453TIP3    H228555   2.333   2.566   7.197  1.8833 -0.7553  0.7499
 1454TIP3   OH228556   3.755   6.544   7.466 -0.0639 -0.6137 -0.5191
 1454TIP3    H128557   3.702   6.480   7.513 -0.7585 -0.0296 -0.4826
 1454TIP3    H228558   3.837   6.499   7.446  0.0718 -1.0208  0.8730
 1455TIP3   OH228559   7.099   4.660   7.283  0.3072  0.0932  0.0896
 1455TIP3    H128560   7.183   4.616   7.292  1.8717  2.2594 -2.5566
 1455TIP3    H228561   7.088   4.709   7.364  0.3752 -2.0059  1.4499
 1456TIP3   OH228562   3.972   2.645   9.213  0.0198  0.1014 -0.2690
 1456TIP3    H128563   3.885   2.645   9.253 -0.0253  1.8562 -0.2539
 1456TIP3    H228564   3.977   2.729   9.167  1.5962 -0.0939 -0.5264
 1457TIP3   OH228565   5.425   0.727   9.433  0.5444  0.3615  0.1165
 1457TIP3    H128566   5.490   0.663   9.405 -1.6699 -1.9134 -0.2389
 1457TIP3    H228567   5.351   0.674   9.464 -0.6673  2.7777  1.7545
 1458TIP3   OH228568   1.861   4.051   8.663 -0.2677  0.3982  0.5520
 1458TIP3    H128569   1.767   4.055   8.683 -0.6924 -0.2729 -1.1570
 1458TIP3    H228570   1.899   4.123   8.713 -1.6006  0.3674  1.6752
 1459TIP3   OH228571   5.471   4.643   8.377  0.4658  0.5182  0.2279
 1459TIP3    H128572   5.379   4.667   8.388  0.1234 -1.1469  1.4142
 1459TIP3    H228573   5.517   4.691   8.446  0.0685 -0.6037  1.3239
 1460TIP3   OH228574   2.138   5.665   7.735  0.0154 -0.0652 -0.0237
 1460TIP3    H128575   2.155   5.674   7.641 -0.5076  0.0050 -0.1132
 1460TIP3    H228576   2.068   5.727   7.752  0.1337 -0.0531  0.4252
 1461TIP3   OH228577   6.399   3.513   8.047 -0.2440 -0.3026 -0.4617
 1461TIP3    H128578   6.494   3.506   8.055 -0.0976  0.1090 -1.5905
 1461TIP3    H228579   6.369   3.542   8.133  0.8583  1.2839 -0.5713
 1462TIP3   OH228580   6.580   2.505   7.481 -0.1138 -0.5937 -0.2840
 1462TIP3    H128581   6.532   2.423   7.480  1.4322 -1.5333 -0.9053
 1462TIP3    H228582   6.531   2.561   7.540 -2.7251 -0.9993 -1.9045
 1463TIP3   OH228583   5.866   4.900   8.939  0.4811  0.5036 -0.5392
 1463TIP3    H128584   5.788   4.845   8.927  0.3127  0.5917  0.1612
 1463TIP3    H228585   5.852   4.974   8.879 -0.2251  0.7936 -0.0253
 1464TIP3   OH228586   6.944   0.872   8.918 -0.2381  0.1909 -0.5140
 1464TIP3    H128587   6.942   0.933   8.844 -1.3911 -0.1076 -0.7500
 1464TIP3    H228588   6.858   0.882   8.960 -0.0048 -0.4282  0.1268
 1465TIP3   OH228589   2.723   7.086   8.126 -0.0711  0.4058  0.1714
 1465TIP3    H128590   2.714   7.180   8.139  2.4159  0.5181  1.8744
 1465TIP3    H228591   2.635   7.051   8.138 -0.4715  2.1726  3.3054
 1466TIP3   OH228592   7.050   0.128   7.579 -0.1526  0.4453  0.2771
 1466TIP3    H128593   6.986   0.092   7.517 -0.4929  1.7688 -0.1774
 1466TIP3    H228594   7.039   0.075   7.658 -0.5936 -0.4661 -0.3796
 1467TIP3   OH228595   0.544   6.184   7.552  0.4596 -0.4100  0.1138
 1467TIP3    H128596   0.451   6.206   7.559  0.5314  0.0547 -0.2796
 1467TIP3    H228597   0.553   6.100   7.597  0.3771  0.9052  2.8010
 1468TIP3   OH228598   5.515   0.029   7.597  0.3721  0.0547 -0.4860
 1468TIP3    H128599   5.609   0.013   7.585  0.4803  1.5532 -1.9110
 1468TIP3    H228600   5.489   0.079   7.520 -1.2896  0.9632  0.6133
 1469TIP3   OH228601   5.391   2.737   9.366  0.1747 -0.3970 -0.3199
 1469TIP3    H128602   5.440   2.721   9.447 -0.0754  0.3965 -0.0018
 1469TIP3    H228603   5.413   2.662   9.310  0.5321 -0.8412  0.3898
 1470TIP3   OH228604   7.079   2.673   6.567 -0.0338  0.4158  0.2029
 1470TIP3    H128605   6.995   2.679   6.520  0.4245  0.0490 -0.6832
 1470TIP3    H228606   7.068   2.731   6.642 -0.4358  1.8660 -0.9121
 1471TIP3   OH228607   0.343   7.428   8.160 -0.0679  0.4808 -0.3741
 1471TIP3    H128608   0.273   7.369   8.186  1.5509 -0.5380  1.9863
 1471TIP3    H228609   0.381   7.459   8.242  1.4331  2.0246 -1.5664
 1472TIP3   OH228610   6.426   2.522   7.074 -0.2427 -0.4640  0.0876
 1472TIP3    H128611   6.393   2.455   7.014 -0.3362 -1.4188  1.1711
 1472TIP3    H228612   6.348   2.551   7.121 -0.4839  1.5734 -1.4348
 1473TIP3   OH228613   6.506   2.658   7.985 -0.7002  0.1302  0.6970
 1473TIP3    H128614   6.561   2.661   8.063 -0.3864 -2.1063  0.6380
 1473TIP3    H228615   6.447   2.733   7.993  0.8335  1.2572  1.9027
 1474TIP3   OH228616   1.991   4.147   8.948  0.1106  0.6255  0.6891
 1474TIP3    H128617   1.979   4.242   8.956 -0.2949  0.6736 -0.3419
 1474TIP3    H228618   1.903   4.110   8.962 -0.1007  0.5428 -0.7609
 1475TIP3   OH228619   5.403   2.551   7.402  0.5098 -0.0797 -0.1366
 1475TIP3    H128620   5.415   2.456   7.406 -2.6273 -0.6045 -0.6990
 1475TIP3    H228621   5.467   2.580   7.336  0.5463 -2.0286 -1.0331
 1476TIP3   OH228622   1.527   3.986   9.465 -0.0875 -0.2497  0.3832
 1476TIP3    H128623   1.506   4.061   9.408  0.0219  0.5196  1.3372
 1476TIP3    H228624   1.474   4.000   9.543  2.1865  0.5072  1.8937
 1477TIP3   OH228625   1.449   4.105   7.151 -0.3199 -0.4183 -0.0490
 1477TIP3    H128626   1.448   4.037   7.219 -0.3804 -0.8860 -0.5065
 1477TIP3    H228627   1.491   4.063   7.076 -2.3222 -0.7274 -1.0903
 1478TIP3   OH228628   5.137   4.511   6.618 -0.0469 -0.2556  0.5616
 1478TIP3    H128629   5.102   4.582   6.673 -1.4694  0.6067 -1.3220
 1478TIP3    H228630   5.220   4.545   6.586 -0.7553  0.6554 -0.3891
 1479TIP3   OH228631   7.413   4.635   8.442 -0.0929 -0.0441  0.4187
 1479TIP3    H128632   7.348   4.705   8.435 -1.0701 -0.7821  1.5039
 1479TIP3    H228633   7.385   4.569   8.379 -1.8074 -1.3650  2.4213
 1480TIP3   OH228634   4.208   0.403   9.798 -0.1026 -0.0580  0.8350
 1480TIP3    H128635   4.113   0.394   9.792 -0.0908 -0.3015  1.0249
 1480TIP3    H228636   4.226   0.417   9.891  0.0674 -0.2529  0.8328
 1481TIP3   OH228637   4.530   3.477   9.304  0.5662 -0.8148 -0.3276
 1481TIP3    H128638   4.589   3.451   9.375 -1.6215 -0.4427  1.7380
 1481TIP3    H228639   4.581   3.540   9.253  2.4768 -1.6659  0.4139
 1482TIP3   OH228640   4.312   1.034   8.400  0.1491  0.1271 -0.1519
 1482TIP3    H128641   4.235   1.030   8.456 -0.1089 -1.0933 -0.5520
 1482TIP3    H228642   4.307   0.954   8.347  1.0761  0.6007 -0.9910
 1483TIP3   OH228643   5.318   0.805   7.047 -0.5780 -0.0842 -0.1108
 1483TIP3    H128644   5.238   0.850   7.073 -0.8095 -0.0069 -0.9114
 1483TIP3    H228645   5.386   0.873   7.051 -0.9311  0.3723 -1.3383
 1484TIP3   OH228646   4.866   4.748   7.543 -0.2295 -0.1218 -0.1676
 1484TIP3    H128647   4.860   4.827   7.489  0.1145 -0.8194 -1.2731
 1484TIP3    H228648   4.900   4.681   7.483 -0.8043 -1.1822  0.6586
 1485TIP3   OH228649   3.108   2.136   6.653  0.2232  0.2303 -0.1340
 1485TIP3    H128650   3.192   2.118   6.611 -0.7614 -1.8613 -1.3591
 1485TIP3    H228651   3.064   2.051   6.657 -2.2218  1.3883 -0.4362
 1486TIP3   OH228652   2.406   2.508   9.102  0.4347  0.0760  0.0794
 1486TIP3    H128653   2.333   2.447   9.091 -0.9280  1.7602 -0.6968
 1486TIP3    H228654   2.484   2.456   9.081 -0.5829 -1.5884  0.2263
 1487TIP3   OH228655   5.953   6.961   7.939  0.1212  0.5064 -0.6732
 1487TIP3    H128656   6.022   7.006   7.987 -1.4693  0.2320  2.0692
 1487TIP3    H228657   5.950   6.874   7.977 -0.5147 -0.1227 -2.0856
 1488TIP3   OH228658   6.563   2.272   8.390  0.5588 -0.1733  0.0409
 1488TIP3    H128659   6.498   2.340   8.400  0.3219 -0.5165  0.9223
 1488TIP3    H228660   6.606   2.291   8.307 -0.1237  0.5104 -0.1572
 1489TIP3   OH228661   4.481   4.267   8.067  0.4126  0.1562 -0.3187
 1489TIP3    H128662   4.409   4.218   8.026  1.1568 -0.4538 -0.9158
 1489TIP3    H228663   4.444   4.353   8.085 -0.4903 -0.1733 -0.5557
 1490TIP3   OH228664   2.261   4.914   8.923 -0.3811  0.6478 -0.2123
 1490TIP3    H128665   2.352   4.920   8.950  0.1337  0.1395 -1.7236
 1490TIP3    H228666   2.249   4.989   8.864 -0.3365 -0.4023 -1.5951
 1491TIP3   OH228667   1.438   1.063   8.226 -0.0815  0.2571 -0.1223
 1491TIP3    H128668   1.437   0.974   8.260 -0.3300 -1.2992 -3.7497
 1491TIP3    H228669   1.530   1.081   8.210 -0.1648 -0.0747 -1.0149
 1492TIP3   OH228670   4.909   2.244   8.077  0.4552  0.1163 -0.2088
 1492TIP3    H128671   4.964   2.166   8.084 -0.8561 -0.8541 -0.2757
 1492TIP3    H228672   4.866   2.235   7.991 -0.3002  0.4970  0.1215
 1493TIP3   OH228673   6.621   4.400   7.580  0.1598  0.1877 -0.0227
 1493TIP3    H128674   6.533   4.389   7.546  0.1729 -0.9819  0.2955
 1493TIP3    H228675   6.661   4.465   7.523 -0.6812  0.2195 -0.5866
 1494TIP3   OH228676   1.232   4.366   6.447  0.4930  0.1996 -0.5974
 1494TIP3    H128677   1.145   4.333   6.470  1.0916 -2.2093 -1.5874
 1494TIP3    H228678   1.240   4.447   6.497 -1.5146 -0.5529  1.0830
 1495TIP3   OH228679   2.077   3.500   7.438 -0.2129 -0.4418  0.0772
 1495TIP3    H128680   2.009   3.554   7.479  1.3052  0.0110  2.2123
 1495TIP3    H228681   2.043   3.411   7.442 -1.4210 -0.0308 -0.5831
 1496TIP3   OH228682   3.961   1.319   9.443 -0.5256  0.2606  0.5108
 1496TIP3    H128683   3.907   1.243   9.420  0.1379  0.2739 -1.2258
 1496TIP3    H228684   4.051   1.287   9.440 -0.2912  0.8669  0.8125
 1497TIP3   OH228685   0.491   6.836   9.311  0.0081  0.0853  0.2222
 1497TIP3    H128686   0.519   6.755   9.354  1.2002  0.4445  0.1631
 1497TIP3    H228687   0.522   6.827   9.221  0.2268  0.6332  0.2397
 1498TIP3   OH228688   2.760   1.658   7.561 -0.0130  0.4012 -0.2889
 1498TIP3    H128689   2.685   1.654   7.502  0.0550  0.7036 -0.3995
 1498TIP3    H228690   2.724   1.696   7.642 -0.0305  0.3238 -0.2607
 1499TIP3   OH228691   7.537   2.899   8.146  0.4464  0.1684 -0.3526
 1499TIP3    H128692   7.532   2.804   8.160  1.4467  0.1978  0.3653
 1499TIP3    H228693   7.631   2.917   8.145  0.3279  1.5233  2.3714
 1500TIP3   OH228694   2.920   2.814   6.843  0.5396 -0.4224 -0.3662
 1500TIP3    H128695   2.848   2.751   6.851  1.4089 -1.4017  0.0143
 1500TIP3    H228696   2.920   2.839   6.751 -0.9494  0.4291 -0.1741
 1501TIP3   OH228697   1.229   1.739   7.867  0.6643  0.0989 -0.3907
 1501TIP3    H128698   1.175   1.733   7.788  0.3143  0.3755 -0.1757
 1501TIP3    H228699   1.319   1.741   7.834  0.5892 -1.1755 -0.7183
 1502TIP3   OH228700   0.819   3.113   9.225 -0.1498  0.2517  0.3098
 1502TIP3    H128701   0.756   3.161   9.172  1.1439  0.9519 -0.6577
 1502TIP3    H228702   0.899   3.165   9.221  0.6619 -0.8773  1.0509
 1503TIP3   OH228703   0.183   7.519   7.028 -0.2565 -0.3547  0.2055
 1503TIP3    H128704   0.143   7.563   6.953 -2.5149 -1.7725  0.4887
 1503TIP3    H228705   0.255   7.576   7.053 -1.5230  1.8867 -0.9514
 1504TIP3   OH228706   7.115   3.619   7.748  0.2181 -0.0045  0.4339
 1504TIP3    H128707   7.072   3.644   7.666 -0.7761 -0.5805  0.7596
 1504TIP3    H228708   7.042   3.603   7.809  0.8985 -0.9761  1.0157
 1505TIP3   OH228709   5.994   6.034   9.540 -0.7069 -0.3292 -0.5188
 1505TIP3    H128710   5.980   5.948   9.581 -0.8835  0.5140  1.2716
 1505TIP3    H228711   6.007   6.014   9.447 -1.3064 -2.2412 -0.2384
 1506TIP3   OH228712   7.439   0.072   6.714  0.0961 -0.5454  0.0736
 1506TIP3    H128713   7.461   0.146   6.771  1.3584 -0.5548 -0.3704
 1506TIP3    H228714   7.359   0.036   6.752 -0.6890  1.1887  0.1481
 1507TIP3   OH228715   4.838   4.441   7.440 -0.5028 -0.0820 -0.0300
 1507TIP3    H128716   4.785   4.377   7.391 -0.4277  0.2372 -0.5356
 1507TIP3    H228717   4.841   4.406   7.529  0.0535 -1.1112 -0.4293
 1508TIP3   OH228718   5.481   3.129   8.876 -0.4072 -0.3481 -0.2085
 1508TIP3    H128719   5.515   3.180   8.803  0.2977  1.1457  1.1141
 1508TIP3    H228720   5.546   3.140   8.946 -2.1374  0.1402  1.3970
 1509TIP3   OH228721   4.203   4.286   8.436 -0.1983 -0.6323  0.1950
 1509TIP3    H128722   4.212   4.381   8.429 -2.3960 -0.4237 -1.0374
 1509TIP3    H228723   4.181   4.271   8.528  2.0137 -0.2047  0.8458
 1510TIP3   OH228724   0.349   6.075   8.893  0.6120 -0.0344  0.1083
 1510TIP3    H128725   0.308   6.016   8.830  1.4077  0.0518 -0.4983
 1510TIP3    H228726   0.365   6.020   8.970 -2.8695  0.4748  1.3726
 1511TIP3   OH228727   2.269   0.515   8.585 -0.1678  0.0959 -0.0350
 1511TIP3    H128728   2.188   0.470   8.606  0.8738 -2.5030 -1.1662
 1511TIP3    H228729   2.333   0.481   8.649  0.4446  0.7128 -0.3035
 1512TIP3   OH228730   1.232   6.297   8.207 -0.4295  0.0960 -0.0970
 1512TIP3    H128731   1.203   6.319   8.296 -1.4703 -0.4171 -0.2910
 1512TIP3    H228732   1.300   6.361   8.187 -0.2674  0.2912  1.0260
 1513TIP3   OH228733   7.625   5.374   8.215  0.2755  0.2967  0.8505
 1513TIP3    H128734   7.572   5.298   8.191  0.0788  0.5754  0.4023
 1513TIP3    H228735   7.580   5.449   8.176 -0.4582  0.8754  2.6854
 1514TIP3   OH228736   6.769   1.598   7.896  0.1132  0.2265  0.6246
 1514TIP3    H128737   6.834   1.667   7.890  0.6789 -0.3257  0.3543
 1514TIP3    H228738   6.786   1.556   7.981  1.5498 -1.3265 -0.3836
 1515TIP3   OH228739   0.624   1.917   8.437  0.0049 -0.1546 -0.1738
 1515TIP3    H128740   0.578   1.834   8.448 -0.0894 -0.0499  0.2537
 1515TIP3    H228741   0.660   1.936   8.524 -0.0680  0.3052 -0.2409
 1516TIP3   OH228742   2.430   0.178   8.373  0.3215 -0.7368  0.2295
 1516TIP3    H128743   2.424   0.146   8.283  1.0246  1.6399 -0.7397
 1516TIP3    H228744   2.391   0.266   8.370  0.9247 -0.3567  2.1148
 1517TIP3   OH228745   5.017   7.195   7.777 -0.3333  0.1621 -0.3417
 1517TIP3    H128746   5.076   7.211   7.851 -1.7697  1.5993  0.5512
 1517TIP3    H228747   5.040   7.264   7.714 -0.7236  0.4412 -0.1854
 1518TIP3   OH228748   6.488   3.700   7.835 -0.1377 -0.0749  0.3232
 1518TIP3    H128749   6.401   3.700   7.795 -0.0822 -0.4946  0.1913
 1518TIP3    H228750   6.476   3.651   7.917  0.2908 -1.5135 -0.4389
 1519TIP3   OH228751   0.051   1.992   6.696  0.0420  0.4231 -0.1099
 1519TIP3    H128752   0.102   2.063   6.655  1.3854 -2.0746 -3.1319
 1519TIP3    H228753   0.105   1.914   6.684 -1.7150 -1.3105  2.3971
 1520TIP3   OH228754   7.511   6.630   8.297  0.5046  0.2979  0.0500
 1520TIP3    H128755   7.601   6.600   8.283  0.2406 -0.6174  0.2582
 1520TIP3    H228756   7.467   6.557   8.341 -0.2603  0.8547  0.2437
 1521TIP3   OH228757   6.400   0.280   8.745 -0.4009 -0.1704  0.2828
 1521TIP3    H128758   6.474   0.231   8.781  0.4141 -0.6920 -1.9734
 1521TIP3    H228759   6.362   0.222   8.680 -1.4241  0.9648 -0.1618
 1522TIP3   OH228760   1.381   4.469   7.573  0.3039 -0.6438 -0.3781
 1522TIP3    H128761   1.417   4.521   7.644 -1.4181 -0.9387  0.7429
 1522TIP3    H228762   1.418   4.509   7.494 -0.3475  1.8155  0.4626
 1523TIP3   OH228763   2.250   6.644   7.239  0.1985 -0.3328 -0.1119
 1523TIP3    H128764   2.177   6.705   7.254  1.5313  0.9909  1.2432
 1523TIP3    H228765   2.266   6.604   7.324  2.0240  0.5263 -0.0095
 1524TIP3   OH228766   5.228   2.566   7.847 -0.1635  0.1889  0.2456
 1524TIP3    H128767   5.283   2.624   7.794  1.3180  0.0070  1.4779
 1524TIP3    H228768   5.218   2.487   7.794 -1.5616  1.2318 -1.1286
 1525TIP3   OH228769   0.493   3.208   8.593  0.0070 -0.5675  0.1774
 1525TIP3    H128770   0.487   3.137   8.657  0.4402 -0.1914  0.6395
 1525TIP3    H228771   0.482   3.288   8.645  0.0656 -0.2732 -0.2605
 1526TIP3   OH228772   2.864   6.851   8.033  0.3466 -0.1679  0.3847
 1526TIP3    H128773   2.784   6.814   8.070 -1.3438  1.5346 -1.3511
 1526TIP3    H228774   2.876   6.934   8.081 -0.1579  0.5943 -0.7756
 1527TIP3   OH228775   3.106   4.105   9.011 -0.4237  0.2821 -0.5246
 1527TIP3    H128776   3.159   4.157   8.952  0.5106 -0.2074 -0.1377
 1527TIP3    H228777   3.163   4.032   9.037 -1.1996 -0.1284  0.0842
 1528TIP3   OH228778   0.823   2.389   7.269  0.2298  0.5508  0.1059
 1528TIP3    H128779   0.887   2.321   7.291 -0.4063  0.5265  2.0719
 1528TIP3    H228780   0.747   2.341   7.235  0.9490  0.5386 -1.5844
 1529TIP3   OH228781   6.971   6.590   9.329  0.6033  0.0416 -0.1188
 1529TIP3    H128782   6.879   6.615   9.339  1.0606  2.2408 -0.9530
 1529TIP3    H228783   6.968   6.496   9.309 -1.4557  0.0836 -0.2254
 1530TIP3   OH228784   2.560   3.112   9.138  0.0065 -0.1172  0.0950
 1530TIP3    H128785   2.622   3.175   9.174 -0.2060  0.9013 -1.2567
 1530TIP3    H228786   2.500   3.095   9.211  1.6018 -0.8223  1.2941
 1531TIP3   OH228787   2.130   4.115   7.118 -0.2257  0.0161  0.8860
 1531TIP3    H128788   2.044   4.101   7.076 -0.6934 -0.9624  2.1154
 1531TIP3    H228789   2.181   4.161   7.051 -1.1225 -0.9689 -0.5545
 1532TIP3   OH228790   3.445   2.637   7.699  0.4305  0.0240 -0.0620
 1532TIP3    H128791   3.435   2.560   7.755 -2.5388 -0.1890 -0.6904
 1532TIP3    H228792   3.419   2.711   7.755 -0.5281  0.0577 -0.5269
 1533TIP3   OH228793   0.228   2.608   6.838 -1.1192 -0.0247  0.2670
 1533TIP3    H128794   0.189   2.678   6.891 -1.9608 -0.9526  0.9030
 1533TIP3    H228795   0.319   2.636   6.825 -1.3140  0.9602  0.9074
 1534TIP3   OH228796   2.040   1.499   8.907  0.2465  0.2276  0.4621
 1534TIP3    H128797   2.001   1.434   8.848  1.0033  0.7627 -0.6685
 1534TIP3    H228798   1.977   1.572   8.907 -0.3560 -0.2817  1.3242
 1535TIP3   OH228799   0.964   3.329   8.499 -0.1145  0.1885  0.4073
 1535TIP3    H128800   1.005   3.374   8.426 -2.3771  1.7031 -0.0180
 1535TIP3    H228801   0.978   3.236   8.481  3.6046  0.5449  0.6861
 1536TIP3   OH228802   6.498   5.758   7.232 -0.4923 -0.0218  0.0797
 1536TIP3    H128803   6.470   5.671   7.262 -1.6345  0.6039  0.9054
 1536TIP3    H228804   6.479   5.816   7.305  1.1861  0.7974 -0.0806
 1537TIP3   OH228805   4.221   2.310   7.065 -0.4275  0.0209 -0.0199
 1537TIP3    H128806   4.196   2.398   7.037  0.2684  1.4541  3.2753
 1537TIP3    H228807   4.139   2.263   7.075 -1.0213  1.1134  0.3941
 1538TIP3   OH228808   4.791   0.606   9.326 -0.0769  0.1806 -0.0570
 1538TIP3    H128809   4.776   0.522   9.370 -1.1418  0.7637  0.7433
 1538TIP3    H228810   4.876   0.635   9.361 -0.2600 -0.0157  0.5784
 1539TIP3   OH228811   7.417   1.572   8.488 -0.0353 -0.0785  0.1576
 1539TIP3    H128812   7.492   1.528   8.448  0.0978 -0.7405  1.0713
 1539TIP3    H228813   7.349   1.569   8.422  0.4406 -0.3754 -0.3264
 1540TIP3   OH228814   2.095   0.691   7.855  0.4604 -0.0913 -0.6025
 1540TIP3    H128815   2.125   0.604   7.882  0.1492 -0.3677 -1.1169
 1540TIP3    H228816   2.065   0.679   7.764  1.5740  0.8218 -1.1120
 1541TIP3   OH228817   6.855   3.123   7.649 -0.2063  0.1019  0.6985
 1541TIP3    H128818   6.890   3.201   7.692  2.7247 -1.6487  1.7534
 1541TIP3    H228819   6.901   3.050   7.689 -1.9829 -2.1496 -1.0552
 1542TIP3   OH228820   2.088   0.919   9.131  0.4131 -0.0210  0.2076
 1542TIP3    H128821   2.177   0.951   9.116  0.7265 -1.1662 -0.5476
 1542TIP3    H228822   2.043   0.992   9.173  1.2273  1.2112 -0.9438
 1543TIP3   OH228823   0.744   5.997   9.349 -0.0041 -0.1493 -0.4360
 1543TIP3    H128824   0.822   5.992   9.294 -0.6412  2.7586 -1.8263
 1543TIP3    H228825   0.770   6.052   9.423 -0.6112  0.5882 -0.7550
 1544TIP3   OH228826   1.581   5.241   9.079  0.2523  0.4604  0.6045
 1544TIP3    H128827   1.563   5.333   9.096 -0.6524  0.3768  0.1527
 1544TIP3    H228828   1.605   5.238   8.986 -2.0452 -0.0466 -0.0327
 1545TIP3   OH228829   3.583   6.575   7.255 -0.5293  0.0619 -0.2310
 1545TIP3    H128830   3.652   6.559   7.320 -1.4780 -0.1765  0.7505
 1545TIP3    H228831   3.524   6.500   7.264 -2.1431  1.3512  0.5953
 1546TIP3   OH228832   1.702   4.541   7.504  0.0052 -0.4088 -0.0092
 1546TIP3    H128833   1.641   4.563   7.434 -0.3241 -0.5260  0.2392
 1546TIP3    H228834   1.780   4.594   7.486  0.2548 -1.0805 -0.9533
 1547TIP3   OH228835   6.320   0.224   8.235  0.4859 -0.4525  0.1572
 1547TIP3    H128836   6.276   0.303   8.203 -0.1664 -0.5658  0.7472
 1547TIP3    H228837   6.249   0.170   8.270  0.7625 -1.9171 -1.4621
 1548TIP3   OH228838   5.925   6.129   8.667 -0.4905 -0.0094 -0.0572
 1548TIP3    H128839   5.907   6.050   8.718 -0.7729 -2.0609 -3.0539
 1548TIP3    H228840   6.018   6.124   8.647 -0.7404 -0.3221 -1.2643
 1549TIP3   OH228841   5.744   3.606   7.926 -0.1242  0.0009 -0.1797
 1549TIP3    H128842   5.770   3.670   7.992  1.4408 -2.3875  1.6519
 1549TIP3    H228843   5.796   3.629   7.849  1.4627  0.1463  0.8925
 1550TIP3   OH228844   6.782   5.685   8.438  0.5526  0.2416 -0.0271
 1550TIP3    H128845   6.829   5.636   8.371  1.1236 -0.3854  0.8073
 1550TIP3    H228846   6.747   5.618   8.497  0.4198  0.7895  0.5310
 1551TIP3   OH228847   1.151   5.393   7.103 -0.4498  0.5228 -0.1491
 1551TIP3    H128848   1.086   5.365   7.038  0.5540  0.2679 -1.0615
 1551TIP3    H228849   1.235   5.388   7.057  0.3924 -0.5368  1.4514
 1552TIP3   OH228850   6.589   2.117   6.904  0.1343 -0.7376  0.6683
 1552TIP3    H128851   6.500   2.082   6.915  0.0122 -1.1352 -1.1539
 1552TIP3    H228852   6.609   2.160   6.987 -2.5928  1.2004  0.4715
 1553TIP3   OH228853   5.746   6.729   9.040  0.4370  0.2917 -1.2266
 1553TIP3    H128854   5.656   6.713   9.069  0.9679  0.8611  0.9196
 1553TIP3    H228855   5.791   6.645   9.054  0.4009  0.2062 -1.6238
 1554TIP3   OH228856   6.661   0.672   7.739 -0.3670  0.1888  0.2266
 1554TIP3    H128857   6.651   0.704   7.829  1.2454 -3.4346  1.8712
 1554TIP3    H228858   6.756   0.666   7.726 -0.5907 -1.0907 -1.0490
 1555TIP3   OH228859   0.252   5.303   8.886 -0.4367 -0.6928 -0.2939
 1555TIP3    H128860   0.171   5.352   8.901 -0.3481  0.3281 -2.7316
 1555TIP3    H228861   0.235   5.218   8.927 -2.6974 -0.4630 -0.5820
 1556TIP3   OH228862   6.560   3.823   8.698  0.3999 -0.2919 -0.3480
 1556TIP3    H128863   6.561   3.918   8.694 -0.0031 -0.1598  1.7619
 1556TIP3    H228864   6.492   3.802   8.761  0.2096 -2.0180 -1.0691
 1557TIP3   OH228865   3.082   2.463   6.653  0.2777  0.1321  0.5585
 1557TIP3    H128866   3.087   2.368   6.640  0.6631  0.5118 -2.9775
 1557TIP3    H228867   3.089   2.475   6.748 -0.2189 -3.3665  1.1615
 1558TIP3   OH228868   0.945   3.381   7.664 -0.6659  0.2507  0.5561
 1558TIP3    H128869   0.935   3.337   7.749  0.3757 -0.3566  0.3698
 1558TIP3    H228870   1.032   3.420   7.667 -0.1929 -0.6621 -0.6392
 1559TIP3   OH228871   2.943   6.228   8.202 -0.8685  0.2757  0.1928
 1559TIP3    H128872   2.960   6.166   8.272 -1.8204 -0.1676  0.0464
 1559TIP3    H228873   2.867   6.192   8.156  0.5388 -0.2215 -1.9431
 1560TIP3   OH228874   0.088   4.626   6.912 -0.1290  0.0115  0.2337
 1560TIP3    H128875   0.147   4.568   6.863 -0.3902 -0.2687  0.2459
 1560TIP3    H228876   0.036   4.671   6.846  0.4755  0.6759  0.1978
 1561TIP3   OH228877   3.551   4.802   8.171  0.1305  0.1428  0.0323
 1561TIP3    H128878   3.463   4.834   8.155  0.4804  1.6281  0.8775
 1561TIP3    H228879   3.554   4.716   8.129 -1.0507  0.9605 -1.8039
 1562TIP3   OH228880   3.069   2.340   7.634  0.4302 -0.4264 -0.9606
 1562TIP3    H128881   3.086   2.422   7.681 -1.0213 -0.1696 -0.8353
 1562TIP3    H228882   3.059   2.274   7.702  0.8391 -0.5651 -1.0306
 1563TIP3   OH228883   0.458   0.662   9.249 -0.2350  0.2795  0.3287
 1563TIP3    H128884   0.547   0.670   9.213  0.1241 -1.3084  0.7809
 1563TIP3    H228885   0.403   0.712   9.188  0.9288  1.1672 -0.0382
 1564TIP3   OH228886   1.963   7.147   7.830  0.3658 -0.0029  0.5099
 1564TIP3    H128887   2.043   7.122   7.784  1.6191  2.2000  1.3542
 1564TIP3    H228888   1.919   7.208   7.770 -0.7587 -1.2517  0.0192
 1565TIP3   OH228889   2.449   1.587   8.083 -0.3336 -0.2219 -0.1855
 1565TIP3    H128890   2.385   1.652   8.110  0.0417  0.4987 -0.9793
 1565TIP3    H228891   2.405   1.535   8.015 -0.8166 -1.1683  0.8176
 1566TIP3   OH228892   0.307   3.146   8.377  0.3878  0.0380  0.2506
 1566TIP3    H128893   0.374   3.172   8.440 -0.8972  2.8398  0.6080
 1566TIP3    H228894   0.324   3.200   8.300 -2.4966  2.3638  1.0669
 1567TIP3   OH228895   5.844   3.152   7.228  0.0327 -0.2437  0.5400
 1567TIP3    H128896   5.886   3.119   7.149  0.3779 -0.9003  0.9790
 1567TIP3    H228897   5.902   3.123   7.299 -0.8856 -0.7114  1.1194
 1568TIP3   OH228898   4.972   1.224   8.977 -0.0861  0.5371  0.4852
 1568TIP3    H128899   4.957   1.291   9.043 -0.6238  1.6388 -0.7012
 1568TIP3    H228900   5.048   1.255   8.927  3.0877 -2.3355  3.0692
 1569TIP3   OH228901   0.761   7.031   9.148  0.4911  0.0191  0.3909
 1569TIP3    H128902   0.700   6.957   9.141  0.5878 -0.1261  0.9755
 1569TIP3    H228903   0.820   7.021   9.074 -1.5322  1.4154 -1.5490
 1570TIP3   OH228904   4.442   1.374   6.818 -0.0296  0.0442  0.0448
 1570TIP3    H128905   4.493   1.396   6.896  1.0842 -0.7620 -0.4265
 1570TIP3    H228906   4.415   1.459   6.782  1.0907  0.4949  0.2368
 1571TIP3   OH228907   6.325   1.059   6.611 -0.2443 -0.2046 -0.0737
 1571TIP3    H128908   6.405   1.010   6.630  0.0654  0.7025  1.0924
 1571TIP3    H228909   6.302   1.034   6.522  0.8467 -1.1558 -0.1103
 1572TIP3   OH228910   3.399   7.379   7.446  0.6426 -0.4067  0.2220
 1572TIP3    H128911   3.355   7.335   7.520  3.2827 -2.5198  0.7142
 1572TIP3    H228912   3.399   7.313   7.376  0.1740  0.7608 -0.9157
 1573TIP3   OH228913   4.392   0.863   7.764  0.2983  0.7143  0.0130
 1573TIP3    H128914   4.404   0.952   7.796  1.3097  0.3303  0.7608
 1573TIP3    H228915   4.478   0.822   7.774  0.0415 -0.1330 -1.0200
 1574TIP3   OH228916   2.876   2.750   9.046  0.3004  0.0422 -0.6440
 1574TIP3    H128917   2.877   2.658   9.019 -1.2475 -0.3462  0.4866
 1574TIP3    H228918   2.788   2.781   9.024  0.9465  1.4036 -1.4102
 1575TIP3   OH228919   2.868   4.008   9.104  0.1749 -0.1381  0.5358
 1575TIP3    H128920   2.936   4.040   9.045 -0.0542  0.4325  0.5697
 1575TIP3    H228921   2.884   3.914   9.110  1.2080  0.0419  0.8637
 1576TIP3   OH228922   6.936   3.580   7.939  0.1725 -0.1957  0.1068
 1576TIP3    H128923   6.957   3.529   8.017 -0.9115 -1.6053 -0.4721
 1576TIP3    H228924   6.860   3.633   7.963  0.4367  0.1032  0.2892
 1577TIP3   OH228925   2.769   5.841   7.242  0.3862  0.1899  0.1901
 1577TIP3    H128926   2.838   5.876   7.185  0.9026 -2.3552 -0.8965
 1577TIP3    H228927   2.806   5.848   7.330  0.8908  1.2804 -0.0817
 1578TIP3   OH228928   4.385   3.009   7.792  0.2004  0.2416  0.2573
 1578TIP3    H128929   4.373   2.950   7.717 -0.4915  1.6033 -0.7444
 1578TIP3    H228930   4.431   2.956   7.857  2.0961 -0.5798 -1.6529
 1579TIP3   OH228931   3.296   5.406   8.616 -0.4742 -0.3462  0.0241
 1579TIP3    H128932   3.376   5.384   8.664  0.3663 -0.0823 -1.1985
 1579TIP3    H228933   3.236   5.437   8.683  0.3776 -0.7260  1.0008
 1580TIP3   OH228934   3.005   2.408   8.395  0.5998  0.0962  0.1176
 1580TIP3    H128935   2.951   2.478   8.358  1.5208  0.1085 -1.2701
 1580TIP3    H228936   2.942   2.344   8.428 -0.2516  0.8706  0.0285
 1581TIP3   OH228937   6.021   2.994   9.137  0.0857  0.1137 -0.0920
 1581TIP3    H128938   5.980   3.057   9.196  1.0955 -0.5449  1.3717
 1581TIP3    H228939   6.084   3.046   9.087 -1.0173  0.7386 -0.8825
 1582TIP3   OH228940   0.266   2.212   7.994 -0.3258 -0.1917  0.0932
 1582TIP3    H128941   0.224   2.140   8.042 -1.2156  0.2739  0.0316
 1582TIP3    H228942   0.310   2.169   7.920  1.3392 -0.9579  1.4665
 1583TIP3   OH228943   4.518   6.411   9.219 -1.5935  0.4773 -0.9019
 1583TIP3    H128944   4.599   6.461   9.224 -1.7494  0.6590 -0.1065
 1583TIP3    H228945   4.531   6.352   9.145 -0.0263 -0.7227  0.2614
 1584TIP3   OH228946   2.327   4.690   9.535 -0.1499 -0.4726  0.1099
 1584TIP3    H128947   2.265   4.667   9.466  0.4427  0.1807 -0.6619
 1584TIP3    H228948   2.284   4.663   9.616 -0.4683 -2.0964 -0.5735
 1585TIP3   OH228949   3.254   1.676   7.259 -0.0418 -0.2866 -0.2311
 1585TIP3    H128950   3.292   1.714   7.179 -1.5777  1.1728 -0.3091
 1585TIP3    H228951   3.162   1.700   7.256 -0.4388 -1.4668  1.2813
 1586TIP3   OH228952   3.117   1.673   9.560 -0.2805 -1.0681 -0.1387
 1586TIP3    H128953   3.209   1.696   9.551 -0.6657  0.3698 -0.6312
 1586TIP3    H228954   3.118   1.582   9.591  1.3142 -0.5776  1.4241
 1587TIP3   OH228955   4.988   7.365   9.269 -0.3891  0.3103  0.0924
 1587TIP3    H128956   4.949   7.449   9.294  1.6232  1.3907 -0.2414
 1587TIP3    H228957   5.021   7.328   9.350 -0.7663  0.0880  0.1508
 1588TIP3   OH228958   1.241   2.051   7.184  0.1905 -0.2436 -0.3087
 1588TIP3    H128959   1.205   1.979   7.133  0.0396 -0.2963 -0.1304
 1588TIP3    H228960   1.246   2.016   7.274 -0.0596  0.0301 -0.1860
 1589TIP3   OH228961   1.742   1.647   8.801  0.0514  0.2336  0.0791
 1589TIP3    H128962   1.778   1.634   8.889 -0.1806 -0.1806  0.1150
 1589TIP3    H228963   1.667   1.588   8.797 -1.9063  2.5577  0.7467
 1590TIP3   OH228964   3.834   5.389   7.646  0.1412  0.2920  0.4438
 1590TIP3    H128965   3.820   5.482   7.632 -0.8427 -0.0229 -0.8097
 1590TIP3    H228966   3.808   5.348   7.564  2.7795 -0.9092  0.1034
 1591TIP3   OH228967   2.423   0.382   8.079  0.0252  0.5116  0.3700
 1591TIP3    H128968   2.429   0.286   8.077 -0.7468  0.4147  1.4904
 1591TIP3    H228969   2.485   0.408   8.147 -1.3228  0.6105  1.6182
 1592TIP3   OH228970   2.382   3.904   7.986  0.0412  0.7931 -0.0355
 1592TIP3    H128971   2.410   3.987   7.948 -1.0319  0.8893 -0.6406
 1592TIP3    H228972   2.426   3.837   7.933  1.6609  0.9380  1.0322
 1593TIP3   OH228973   3.499   6.855   9.651  0.2601  0.1900 -0.0208
 1593TIP3    H128974   3.505   6.895   9.737 -0.2362 -0.4704  0.3320
 1593TIP3    H228975   3.587   6.862   9.614  0.4553  0.5404  0.5031
 1594TIP3   OH228976   2.010   3.125   8.414  0.5156 -0.1870  0.5646
 1594TIP3    H128977   2.020   3.214   8.382 -1.9550  1.4244  3.6651
 1594TIP3    H228978   2.100   3.092   8.424  1.4602  1.5764 -1.4488
 1595TIP3   OH228979   3.723   7.214   8.771  0.5642  0.5130 -0.0072
 1595TIP3    H128980   3.750   7.187   8.683 -0.2418 -0.1528 -0.0638
 1595TIP3    H228981   3.681   7.299   8.758  1.6575  1.0627 -0.0614
 1596TIP3   OH228982   4.694   1.035   7.270 -0.8156 -0.1429  0.2993
 1596TIP3    H128983   4.725   0.947   7.248 -1.8205 -1.1264  2.5432
 1596TIP3    H228984   4.652   1.066   7.190 -0.0722 -1.5163 -0.6628
 1597TIP3   OH228985   3.264   4.725   9.292  0.0342 -0.6378 -0.0306
 1597TIP3    H128986   3.357   4.739   9.307  0.0301  1.1635 -1.3029
 1597TIP3    H228987   3.221   4.800   9.334 -0.5878  0.0108 -1.7140
 1598TIP3   OH228988   3.799   1.333   7.107  0.5226 -0.3016  0.0645
 1598TIP3    H128989   3.764   1.270   7.042  0.5471  0.3974 -0.6387
 1598TIP3    H228990   3.801   1.416   7.060  1.3148  0.0537  0.7233
 1599TIP3   OH228991   2.568   2.480   7.348  0.2701  0.1559 -0.0713
 1599TIP3    H128992   2.580   2.572   7.326  1.6589 -0.3195 -1.5353
 1599TIP3    H228993   2.644   2.459   7.403 -0.0922 -0.0837  0.3351
 1600TIP3   OH228994   4.077   3.854   8.318 -0.2202  0.5262  0.6144
 1600TIP3    H128995   4.080   3.910   8.240  0.9698 -0.5533 -0.1401
 1600TIP3    H228996   4.165   3.860   8.355  0.0114 -1.0235  0.3724
 1601TIP3   OH228997   2.932   0.218   6.588 -0.0172  0.3280  0.2856
 1601TIP3    H128998   2.964   0.303   6.618 -1.2173  0.7345  0.4387
 1601TIP3    H228999   2.877   0.187   6.660 -0.8157  0.1189 -0.4083
 1602TIP3   OH229000   7.637   6.411   8.753  0.2260  0.2641  0.2519
 1602TIP3    H129001   7.678   6.481   8.805  1.2711  0.2717 -0.5313
 1602TIP3    H229002   7.694   6.335   8.766 -0.8980 -0.4607  1.0851
 1603TIP3   OH229003   1.416   5.916   9.326 -0.0348 -0.2338  0.0339
 1603TIP3    H129004   1.412   6.011   9.326  1.5436 -0.1296 -1.1207
 1603TIP3    H229005   1.405   5.891   9.417  0.5070  1.1173  0.4865
 1604TIP3   OH229006   0.941   5.977   7.663  0.4175  0.0560  0.5504
 1604TIP3    H129007   0.857   5.939   7.687 -0.0550 -0.3389 -1.4957
 1604TIP3    H229008   1.005   5.909   7.682  0.1581 -0.0065  1.2165
 1605TIP3   OH229009   7.418   3.086   9.198 -0.1895  0.7622  0.5988
 1605TIP3    H129010   7.357   3.160   9.196 -1.4160 -0.2068 -1.0297
 1605TIP3    H229011   7.403   3.045   9.283 -0.5886  1.5296  0.9076
 1606TIP3   OH229012   7.038   0.406   7.604 -0.0687 -0.1442  0.6733
 1606TIP3    H129013   7.061   0.318   7.573 -0.5054 -0.1729  0.4227
 1606TIP3    H229014   7.049   0.401   7.699  1.5611  0.0294  0.5253
 1607TIP3   OH229015   4.849   6.708   6.956  0.3809 -0.2381 -0.3552
 1607TIP3    H129016   4.851   6.799   6.925  1.0708  0.1275  0.7135
 1607TIP3    H229017   4.940   6.678   6.947  1.3613  0.8134  3.8375
 1608TIP3   OH229018   5.079   2.650   8.153  0.1115  0.0869 -0.5295
 1608TIP3    H129019   5.057   2.715   8.219  0.5882 -0.5628  0.2938
 1608TIP3    H229020   5.128   2.582   8.201 -1.3948 -1.4818 -1.0920
 1609TIP3   OH229021   6.745   0.210   7.687 -0.0736 -0.0674  0.0929
 1609TIP3    H129022   6.655   0.226   7.715  0.3103 -0.0546  1.3734
 1609TIP3    H229023   6.794   0.198   7.768  1.4341  1.7566 -0.4663
 1610TIP3   OH229024   7.518   7.227   9.127 -0.2961 -0.5788  0.0461
 1610TIP3    H129025   7.582   7.157   9.136  0.2352  0.1192  2.5574
 1610TIP3    H229026   7.448   7.204   9.188 -2.5907 -1.3466 -2.6609
 1611TIP3   OH229027   5.125   1.770   6.776  0.1078  0.5821  0.0351
 1611TIP3    H129028   5.069   1.693   6.764 -1.5983  1.6354  0.8165
 1611TIP3    H229029   5.207   1.748   6.732 -0.6834 -1.2968 -0.5722
 1612TIP3   OH229030   6.688   3.956   9.129  0.3907  0.0663 -0.4352
 1612TIP3    H129031   6.720   3.920   9.212 -1.7794 -1.1885 -0.0444
 1612TIP3    H229032   6.607   4.002   9.153  0.6209  1.1649 -1.6431
 1613TIP3   OH229033   7.552   0.219   6.927  0.2110  0.1315  0.0875
 1613TIP3    H129034   7.647   0.228   6.938 -0.1371  0.5079  4.4897
 1613TIP3    H229035   7.516   0.294   6.973 -2.2391 -0.6225 -0.4948
 1614TIP3   OH229036   5.673   1.824   6.774  0.2032  0.0163  0.1338
 1614TIP3    H129037   5.706   1.777   6.698  2.5116  0.5291  0.7468
 1614TIP3    H229038   5.731   1.899   6.783 -0.9362  0.7840  1.5476
 1615TIP3   OH229039   6.612   3.043   7.282 -0.1798  0.2161  0.0448
 1615TIP3    H129040   6.569   2.957   7.279 -1.7182  0.9859 -0.7406
 1615TIP3    H229041   6.577   3.084   7.361  0.3342  0.2515  0.2593
 1616TIP3   OH229042   4.091   3.943   9.680  0.2777  0.0564  0.3898
 1616TIP3    H129043   4.037   3.866   9.661 -0.5838  1.1718 -2.1038
 1616TIP3    H229044   4.167   3.934   9.622 -1.1749  2.3105 -2.1355
 1617TIP3   OH229045   7.058   4.421   8.302  0.0626  0.0078  0.3722
 1617TIP3    H129046   7.058   4.415   8.207  0.0096  2.1707  0.1997
 1617TIP3    H229047   6.987   4.363   8.329 -1.1486  0.7615 -1.0402
 1618TIP3   OH229048   7.527   5.902   8.785 -0.5090  0.0295 -0.2444
 1618TIP3    H129049   7.534   5.879   8.692  1.7482  1.1944 -0.4534
 1618TIP3    H229050   7.511   5.819   8.829 -0.6293 -0.6970 -1.5933
 1619TIP3   OH229051   6.731   3.875   7.610 -0.1814 -0.3540  0.2283
 1619TIP3    H129052   6.822   3.904   7.616  0.1276 -1.6022  2.7181
 1619TIP3    H229053   6.679   3.954   7.629  0.4296  0.0011  0.4358
 1620TIP3   OH229054   7.286   3.748   7.314  0.2525 -0.1045 -0.0566
 1620TIP3    H129055   7.274   3.837   7.347  0.2058  0.3692 -1.3126
 1620TIP3    H229056   7.379   3.743   7.292  0.2576 -0.3693  0.0278
 1621TIP3   OH229057   0.904   6.511   9.115  0.2184  0.7427 -0.4702
 1621TIP3    H129058   0.991   6.549   9.102 -0.3558  2.3811  0.2890
 1621TIP3    H229059   0.854   6.579   9.160 -1.1485 -0.5809  0.0886
 1622TIP3   OH229060   5.299   0.536   7.403  0.0554  0.2234 -0.0578
 1622TIP3    H129061   5.277   0.626   7.430 -0.3641 -0.6369  2.7574
 1622TIP3    H229062   5.214   0.496   7.386  0.2275  0.2128 -0.9629
 1623TIP3   OH229063   6.264   5.246   7.633  0.1172  0.4648 -0.4923
 1623TIP3    H129064   6.301   5.264   7.546 -1.0927 -0.4850 -1.2526
 1623TIP3    H229065   6.332   5.273   7.694  1.8356 -0.6795 -1.7752
 1624TIP3   OH229066   5.023   0.339   9.485  0.2878 -0.1108 -0.7521
 1624TIP3    H129067   4.936   0.367   9.514  1.6066  1.7722  1.8515
 1624TIP3    H229068   5.015   0.328   9.391 -2.3001  1.9834 -0.8866
 1625TIP3   OH229069   5.403   6.827   8.509  0.3647 -0.0191 -0.1894
 1625TIP3    H129070   5.418   6.826   8.604 -2.6623  0.6641  0.4024
 1625TIP3    H229071   5.396   6.735   8.485  1.2900 -0.2035  0.1778
 1626TIP3   OH229072   2.698   3.920   7.022  0.2898  0.3041  0.4717
 1626TIP3    H129073   2.686   3.909   6.928 -0.1399  0.6309  0.4857
 1626TIP3    H229074   2.618   3.964   7.051 -1.2748 -2.9569  1.5829
 1627TIP3   OH229075   1.412   4.903   8.146 -0.1712  0.3628 -0.0074
 1627TIP3    H129076   1.393   4.988   8.107  1.5168  0.6575 -0.2370
 1627TIP3    H229077   1.459   4.923   8.227 -1.1450 -0.3271  0.7568
 1628TIP3   OH229078   6.753   3.230   9.306  0.5390  0.0520 -0.1523
 1628TIP3    H129079   6.784   3.275   9.228  0.8082  0.1623  0.0190
 1628TIP3    H229080   6.827   3.175   9.334  0.1207 -0.7298 -0.5298
 1629TIP3   OH229081   0.089   1.330   8.523  0.0123  0.6079 -0.1704
 1629TIP3    H129082   0.055   1.288   8.445 -0.7193  0.2492  0.3290
 1629TIP3    H229083   0.019   1.320   8.588  0.7452  0.5982  0.6306
 1630TIP3   OH229084   6.276   5.923   7.866 -0.2421  0.0990  0.1818
 1630TIP3    H129085   6.306   5.912   7.776 -0.7063 -1.0774  0.1581
 1630TIP3    H229086   6.350   5.895   7.920 -0.3458 -0.2160  0.1579
 1631TIP3   OH229087   1.899   5.437   9.190  0.1437 -0.3052 -0.6021
 1631TIP3    H129088   1.902   5.499   9.263  1.7281 -0.4130 -0.5496
 1631TIP3    H229089   1.885   5.492   9.113  2.0148  0.2242 -0.6150
 1632TIP3   OH229090   3.593   4.812   9.044  0.3466  0.3873  0.0692
 1632TIP3    H129091   3.594   4.905   9.022 -0.6368  0.4669  0.3441
 1632TIP3    H229092   3.596   4.809   9.139  0.9904  0.1085  0.0512
 1633TIP3   OH229093   0.836   5.337   9.348 -0.0159  0.0347  0.2939
 1633TIP3    H129094   0.858   5.246   9.362  1.2229 -0.1640 -2.3860
 1633TIP3    H229095   0.916   5.377   9.314 -1.3002  1.4083 -1.3242
 1634TIP3   OH229096   5.383   1.156   7.841 -0.6236  0.4183  0.2342
 1634TIP3    H129097   5.338   1.102   7.776 -0.6831  0.1285  0.5122
 1634TIP3    H229098   5.447   1.097   7.882  0.4993  1.0045 -0.6276
 1635TIP3   OH229099   7.205   1.592   8.683 -0.4780  0.8823 -1.1062
 1635TIP3    H129100   7.256   1.584   8.603  0.5449  2.1471 -0.6133
 1635TIP3    H229101   7.235   1.520   8.738 -1.3913 -0.1738 -1.9201
 1636TIP3   OH229102   2.373   5.626   9.118 -0.2642  0.0119  0.2306
 1636TIP3    H129103   2.325   5.687   9.062  0.3121 -1.3746 -1.9311
 1636TIP3    H229104   2.456   5.671   9.136  0.7814 -0.5902 -2.5787
 1637TIP3   OH229105   6.901   1.578   7.532 -0.2343  0.1703 -0.6879
 1637TIP3    H129106   6.977   1.587   7.590 -0.2528  0.7515 -0.7453
 1637TIP3    H229107   6.854   1.502   7.566  1.1637 -1.1396 -1.5757
 1638TIP3   OH229108   4.466   6.103   9.139  0.5719  0.2298  0.5760
 1638TIP3    H129109   4.392   6.161   9.119  1.4991  1.2055 -0.1402
 1638TIP3    H229110   4.442   6.020   9.098  0.3043  0.8341 -0.5572
 1639TIP3   OH229111   1.148   5.071   8.477  0.3245 -0.2513 -0.5849
 1639TIP3    H129112   1.173   4.980   8.457  0.4423 -0.4397  0.3774
 1639TIP3    H229113   1.053   5.069   8.481  0.3776 -0.7984  1.4339
 1640TIP3   OH229114   7.230   6.291   7.997 -0.2041  0.3340  0.5706
 1640TIP3    H129115   7.268   6.239   8.067 -2.3005 -0.9296  0.8766
 1640TIP3    H229116   7.296   6.357   7.977  2.7021 -2.4555  0.0916
 1641TIP3   OH229117   4.046   2.997   8.678  0.0025 -0.0499  0.3864
 1641TIP3    H129118   3.955   3.017   8.659  0.4586  2.5745  0.5580
 1641TIP3    H229119   4.054   3.008   8.772 -0.0117 -2.9246  0.8149
 1642TIP3   OH229120   2.509   2.109   8.259 -0.2933 -0.2200  0.5879
 1642TIP3    H129121   2.423   2.074   8.240 -1.7803  1.3273  3.6608
 1642TIP3    H229122   2.545   2.050   8.325  0.3142 -0.0001  0.4589
 1643TIP3   OH229123   1.537   0.960   7.337 -0.0201  0.1442  0.1043
 1643TIP3    H129124   1.474   1.020   7.297 -2.2205 -1.2226  1.3163
 1643TIP3    H229125   1.533   0.881   7.283  0.1721 -0.1937  0.5774
 1644TIP3   OH229126   2.572   0.068   7.755  0.4986 -0.1085 -0.2077
 1644TIP3    H129127   2.665   0.082   7.772  0.2581 -0.7120  1.8613
 1644TIP3    H229128   2.527   0.110   7.829 -0.6953 -2.7035  0.6632
 1645TIP3   OH229129   5.520   1.622   9.114 -0.0459  0.5394 -0.3387
 1645TIP3    H129130   5.444   1.679   9.125 -0.6602 -0.1817 -0.7799
 1645TIP3    H229131   5.495   1.540   9.156  0.7510  0.5190  0.1078
 1646TIP3   OH229132   5.972   6.602   8.593  0.3251  0.0389  0.4609
 1646TIP3    H129133   5.895   6.627   8.645  0.6967  0.7390  0.6902
 1646TIP3    H229134   5.946   6.617   8.503  0.1703  0.2231  0.5358
 1647TIP3   OH229135   0.630   5.386   8.966 -0.1609 -0.3756 -0.4992
 1647TIP3    H129136   0.560   5.444   8.934 -0.2518  0.0802  0.4814
 1647TIP3    H229137   0.709   5.416   8.921 -0.3834 -0.1294 -0.7290
 1648TIP3   OH229138   1.601   2.609   7.609  0.8789 -0.1226 -0.3193
 1648TIP3    H129139   1.597   2.614   7.704  1.1422  0.8709 -0.3470
 1648TIP3    H229140   1.608   2.700   7.580 -0.3085 -0.3246 -1.3518
 1649TIP3   OH229141   2.283   6.557   8.276  0.1314  0.2722  0.4914
 1649TIP3    H129142   2.319   6.621   8.337 -0.9366  0.5101  0.8928
 1649TIP3    H229143   2.320   6.581   8.191 -0.2177  1.4078  0.6448
 1650TIP3   OH229144   1.990   5.975   7.511  0.6608  0.6451 -0.2887
 1650TIP3    H129145   1.984   6.003   7.420  2.0390  1.9928 -0.0061
 1650TIP3    H229146   1.899   5.964   7.538  0.2049  0.8214 -1.6435
 1651TIP3   OH229147   2.008   4.240   7.406 -0.0315 -0.4267 -0.0369
 1651TIP3    H129148   2.030   4.168   7.346 -0.3163 -1.4580  1.0717
 1651TIP3    H229149   1.918   4.264   7.383  0.6701  0.8877 -1.6668
 1652TIP3   OH229150   3.918   0.627   8.816  0.3383 -0.1466  0.0459
 1652TIP3    H129151   3.895   0.720   8.818 -0.9518 -0.4521  0.5467
 1652TIP3    H229152   3.989   0.621   8.752  1.0546  1.3008  0.6541
 1653TIP3   OH229153   6.012   3.254   8.427  0.1402  0.4970  0.4254
 1653TIP3    H129154   5.932   3.208   8.403  0.5998 -0.7515  1.2119
 1653TIP3    H229155   6.022   3.238   8.521  1.0572  1.0481  0.4402
 1654TIP3   OH229156   0.854   0.338   6.937 -0.5991  0.0579  0.2526
 1654TIP3    H129157   0.928   0.282   6.961  1.2359  2.1507 -0.2077
 1654TIP3    H229158   0.781   0.306   6.991  0.6967 -1.8408  0.9927
 1655TIP3   OH229159   4.448   5.819   8.306 -0.3661 -0.4176 -0.2286
 1655TIP3    H129160   4.527   5.869   8.284  0.2803 -0.6732  1.3154
 1655TIP3    H229161   4.376   5.877   8.283  0.3658  1.4760  1.8238
 1656TIP3   OH229162   5.288   3.280   7.387  0.1501 -0.3440 -0.3885
 1656TIP3    H129163   5.333   3.318   7.312 -0.2695  0.5808 -0.1829
 1656TIP3    H229164   5.195   3.297   7.371 -0.2110 -2.4944 -0.9579
 1657TIP3   OH229165   3.540   6.366   7.641  0.1950 -0.3430 -0.0249
 1657TIP3    H129166   3.493   6.343   7.561 -1.8181  1.9219  0.3880
 1657TIP3    H229167   3.552   6.283   7.686 -0.2435 -1.4464 -1.8237
 1658TIP3   OH229168   5.304   4.016   8.958 -0.2655 -0.0520 -0.2940
 1658TIP3    H129169   5.242   3.996   8.888 -1.9618  2.6713  0.2901
 1658TIP3    H229170   5.310   4.111   8.959  4.7407 -0.0891 -0.8718
 1659TIP3   OH229171   5.915   4.655   7.027 -0.1207 -0.1531 -0.1417
 1659TIP3    H129172   5.938   4.727   6.969 -0.2424 -0.0980 -0.1223
 1659TIP3    H229173   5.994   4.601   7.032  0.3892  0.6385  0.8211
 1660TIP3   OH229174   2.356   2.841   7.455  0.3747 -0.4907  0.1181
 1660TIP3    H129175   2.336   2.846   7.549 -0.2521 -1.1665  0.0327
 1660TIP3    H229176   2.304   2.767   7.424  0.0343  0.1697 -0.9103
 1661TIP3   OH229177   6.792   0.193   8.988  0.0265 -0.4354 -0.1490
 1661TIP3    H129178   6.874   0.187   9.038  1.4870  0.2031 -2.2952
 1661TIP3    H229179   6.791   0.113   8.935  0.6179  0.6831 -1.9465
 1662TIP3   OH229180   3.902   3.521   7.842  0.3161 -0.2673 -0.4525
 1662TIP3    H129181   3.959   3.479   7.778  2.4326  1.0458  0.4944
 1662TIP3    H229182   3.868   3.449   7.895  1.5018 -1.0455 -0.7207
 1663TIP3   OH229183   4.129   1.452   8.042  0.2997  0.4133 -0.5370
 1663TIP3    H129184   4.123   1.542   8.011 -0.0406 -0.2251 -2.4693
 1663TIP3    H229185   4.055   1.407   8.001 -1.1784 -0.2201  2.5606
 1664TIP3   OH229186   2.138   5.741   7.434 -0.7164 -0.3118  0.5968
 1664TIP3    H129187   2.084   5.691   7.373 -1.8794 -0.2892  1.5505
 1664TIP3    H229188   2.075   5.795   7.482  0.2748  0.4291  1.1024
 1665TIP3   OH229189   2.715   2.633   6.827 -0.1896  0.4058  0.1603
 1665TIP3    H129190   2.648   2.627   6.759  0.6135  1.8707 -0.8084
 1665TIP3    H229191   2.715   2.546   6.867 -0.7005 -0.5185 -1.7040
 1666TIP3   OH229192   0.129   5.664   6.851 -0.3308 -0.0652 -0.4336
 1666TIP3    H129193   0.116   5.690   6.942 -1.2579 -2.1989  0.0852
 1666TIP3    H229194   0.174   5.580   6.856 -1.7673 -0.9667 -1.9032
 1667TIP3   OH229195   3.279   2.590   9.270 -0.3343 -0.7573  0.3502
 1667TIP3    H129196   3.195   2.597   9.316 -1.3605 -1.5378 -1.2890
 1667TIP3    H229197   3.341   2.636   9.326 -2.1890  1.4448  0.7598
 1668TIP3   OH229198   3.338   2.110   8.112  0.3168  0.2782  0.1835
 1668TIP3    H129199   3.393   2.189   8.109  0.8941 -0.0834  1.0663
 1668TIP3    H229200   3.379   2.050   8.049  1.4668 -0.3064  1.4318
 1669TIP3   OH229201   1.839   4.124   9.308  0.6332 -0.0948  0.2358
 1669TIP3    H129202   1.774   4.192   9.290 -0.1183 -1.2693 -1.8417
 1669TIP3    H229203   1.800   4.072   9.378  1.6042  2.0086  2.4767
 1670TIP3   OH229204   1.945   2.111   7.966  0.1636 -0.0527 -0.1764
 1670TIP3    H129205   1.875   2.084   8.027  2.5563 -3.7150  1.3544
 1670TIP3    H229206   1.916   2.079   7.881 -0.3314 -0.9793  0.3215
 1671TIP3   OH229207   1.429   5.546   8.269  0.3400 -0.1763 -0.7141
 1671TIP3    H129208   1.363   5.490   8.228 -0.1647  0.6698 -1.0677
 1671TIP3    H229209   1.441   5.508   8.356  0.5560 -1.2833 -1.2083
 1672TIP3   OH229210   4.553   5.026   8.753  0.1465  0.4894  0.1335
 1672TIP3    H129211   4.463   5.001   8.733 -0.8195  2.1540  2.0495
 1672TIP3    H229212   4.560   5.016   8.848  2.2614 -0.3353 -0.0472
 1673TIP3   OH229213   2.673   1.984   8.076 -1.0059  0.3613  0.2935
 1673TIP3    H129214   2.688   1.895   8.109 -1.6853  0.5904  1.2658
 1673TIP3    H229215   2.643   2.033   8.153 -2.3422  0.9913 -0.6087
 1674TIP3   OH229216   3.025   3.327   8.749 -0.2557  0.3485 -0.3204
 1674TIP3    H129217   2.971   3.321   8.670  0.4455  0.9545 -0.8745
 1674TIP3    H229218   3.005   3.413   8.785  1.7008  1.4548 -1.6276
 1675TIP3   OH229219   1.784   5.049   8.640  0.1416  0.0211  0.5215
 1675TIP3    H129220   1.775   5.111   8.568  0.9862 -0.4325  0.0164
 1675TIP3    H229221   1.751   4.966   8.606  1.0980 -0.3369  0.4546
 1676TIP3   OH229222   2.182   6.281   8.320 -0.1699  0.3411  0.4516
 1676TIP3    H129223   2.211   6.358   8.271 -0.2048  1.4332  2.0806
 1676TIP3    H229224   2.138   6.317   8.397  2.1936 -1.2432  2.6966
 1677TIP3   OH229225   1.774   3.822   9.451  0.2983  0.0495  0.2680
 1677TIP3    H129226   1.701   3.875   9.417  0.0353 -0.6372 -0.2512
 1677TIP3    H229227   1.740   3.733   9.452  1.5665 -0.4921 -1.2824
 1678TIP3   OH229228   7.269   2.729   7.809 -0.2619 -0.4520 -0.4699
 1678TIP3    H129229   7.363   2.717   7.796 -0.4899 -2.0951 -0.8165
 1678TIP3    H229230   7.247   2.673   7.883 -0.6495  1.4780  0.9419
 1679TIP3   OH229231   3.031   6.655   8.057 -0.1167  0.3757  0.4475
 1679TIP3    H129232   2.981   6.734   8.075 -1.4846 -0.2998 -0.2470
 1679TIP3    H229233   3.000   6.591   8.120 -1.5125 -0.5884 -1.1334
 1680TIP3   OH229234   5.387   4.895   7.867 -0.0012  0.4246  0.1618
 1680TIP3    H129235   5.481   4.912   7.854  0.1862  1.5693  2.5294
 1680TIP3    H229236   5.366   4.939   7.949 -2.5185 -0.2753 -0.0387
 1681TIP3   OH229237   4.943   4.673   8.397 -0.0422 -0.2213 -0.6305
 1681TIP3    H129238   4.866   4.727   8.417 -0.9639 -1.2649 -1.2456
 1681TIP3    H229239   4.914   4.616   8.326  0.3434 -2.6366  1.0140
 1682TIP3   OH229240   3.240   1.840   8.279 -0.8827  0.0550  0.7418
 1682TIP3    H129241   3.210   1.759   8.321  1.6480 -0.8175  1.0695
 1682TIP3    H229242   3.229   1.823   8.185 -0.2537 -0.7639  0.7996
 1683TIP3   OH229243   4.392   6.446   8.232 -0.2996  0.2541 -0.1390
 1683TIP3    H129244   4.448   6.388   8.181 -0.1318 -0.4889  0.8684
 1683TIP3    H229245   4.444   6.525   8.245 -0.2616  0.3653 -0.9093
 1684TIP3   OH229246   2.615   6.189   8.898 -0.2443  0.1858 -0.6399
 1684TIP3    H129247   2.668   6.268   8.908 -0.0841  0.1227 -0.9863
 1684TIP3    H229248   2.663   6.135   8.836  0.5315 -0.9580  0.8889
 1685TIP3   OH229249   4.627   2.878   7.274 -0.5520  0.2356  0.4292
 1685TIP3    H129250   4.718   2.855   7.290  0.6569  1.5500 -3.6106
 1685TIP3    H229251   4.586   2.796   7.247  0.4806  0.2936 -1.4530
 1686TIP3   OH229252   6.742   2.725   8.799 -0.4064 -0.3145 -0.5093
 1686TIP3    H129253   6.662   2.710   8.749 -0.4077  1.0821 -0.9400
 1686TIP3    H229254   6.810   2.681   8.748 -0.5283  0.4560 -1.3513
 1687TIP3   OH229255   2.390   4.119   7.337 -0.1260 -0.0064  0.0894
 1687TIP3    H129256   2.423   4.103   7.248  0.2097 -3.2865  0.6936
 1687TIP3    H229257   2.462   4.092   7.394 -2.0072 -2.7781  1.3644
 1688TIP3   OH229258   1.798   0.829   8.624 -0.2873 -0.5206  0.5041
 1688TIP3    H129259   1.879   0.838   8.674 -1.2381 -0.2008  2.0468
 1688TIP3    H229260   1.786   0.914   8.582  0.0057 -0.4669  0.5277
 1689TIP3   OH229261   5.722   3.231   8.255 -1.0343 -0.1742 -0.8400
 1689TIP3    H129262   5.663   3.303   8.275 -0.0651  0.7889 -1.3073
 1689TIP3    H229263   5.775   3.263   8.182  0.2842 -0.8589 -0.2308
 1690TIP3   OH229264   5.827   1.197   7.933 -0.3481  0.2962 -0.1989
 1690TIP3    H129265   5.769   1.266   7.901 -0.6784  0.3805  0.5786
 1690TIP3    H229266   5.803   1.186   8.025 -0.6989 -1.2445 -0.4440
 1691TIP3   OH229267   6.737   5.263   7.604 -0.1222 -0.5005  0.2540
 1691TIP3    H129268   6.724   5.357   7.611  1.4656 -0.2476  0.1356
 1691TIP3    H229269   6.693   5.239   7.522  1.7757  0.6454 -1.1869
 1692TIP3   OH229270   0.795   0.301   7.728  0.1868  0.7196  0.2470
 1692TIP3    H129271   0.774   0.243   7.655  0.7530  0.3302  0.3839
 1692TIP3    H229272   0.882   0.273   7.756  0.6470  1.9251  0.0487
 1693TIP3   OH229273   2.454   3.236   8.887  0.2674 -0.1552  0.1280
 1693TIP3    H129274   2.381   3.235   8.949  0.1938  0.4152  0.0579
 1693TIP3    H229275   2.480   3.144   8.879 -0.2719 -0.3327  0.3538
 1694TIP3   OH229276   6.653   4.333   8.840 -0.1824  0.3754 -0.0700
 1694TIP3    H129277   6.700   4.251   8.855  1.6732  1.1227 -1.4501
 1694TIP3    H229278   6.619   4.325   8.751 -1.2421  0.5669  0.2979
 1695TIP3   OH229279   0.655   1.704   7.405 -0.3320 -0.1246 -0.3954
 1695TIP3    H129280   0.623   1.695   7.315 -0.5044 -0.7051 -0.2751
 1695TIP3    H229281   0.604   1.641   7.456  0.8967 -0.9593 -0.1677
 1696TIP3   OH229282   3.015   2.475   7.410  0.1578  0.0591 -0.1727
 1696TIP3    H129283   3.090   2.532   7.393  0.4314  0.0732  1.0168
 1696TIP3    H229284   3.042   2.420   7.483 -0.5441 -0.7968 -0.5367
 1697TIP3   OH229285   0.199   2.923   9.265  0.4713  0.4846  0.5522
 1697TIP3    H129286   0.294   2.917   9.270  0.5818 -0.4239 -1.5406
 1697TIP3    H229287   0.182   2.971   9.184 -0.8301 -0.2848  0.3355
 1698TIP3   OH229288   7.391   1.185   7.722  0.0834  0.1832 -0.0919
 1698TIP3    H129289   7.449   1.261   7.713 -1.9350  1.9229  0.7540
 1698TIP3    H229290   7.397   1.161   7.814 -1.8014  1.5434  0.4490
 1699TIP3   OH229291   6.849   1.057   6.611  0.5233  0.1061  0.2681
 1699TIP3    H129292   6.914   0.988   6.618  1.2585  0.3961 -2.5497
 1699TIP3    H229293   6.900   1.138   6.607 -0.2297  0.6659  1.3377
 1700TIP3   OH229294   0.227   4.122   8.725  0.1962 -0.1070 -0.6699
 1700TIP3    H129295   0.320   4.143   8.719  0.3092 -0.7004 -1.1313
 1700TIP3    H229296   0.207   4.129   8.818  0.3508  1.4415 -0.7138
 1701TIP3   OH229297   4.123   0.515   7.083  0.2755  0.2271 -0.2564
 1701TIP3    H129298   4.091   0.486   7.169  0.4779 -1.5971 -0.7709
 1701TIP3    H229299   4.055   0.575   7.052 -0.1391  0.3688  0.8663
 1702TIP3   OH229300   0.376   0.006   7.125 -0.4663 -0.1904  0.4945
 1702TIP3    H129301   0.448   0.051   7.081 -0.0963  0.8731  2.0867
 1702TIP3    H229302   0.412  -0.079   7.149  0.0680  0.0923  0.7179
 1703TIP3   OH229303   1.605   5.206   6.647 -0.0745 -0.5667 -0.8042
 1703TIP3    H129304   1.519   5.250   6.645 -1.3574 -2.7282  1.4542
 1703TIP3    H229305   1.596   5.134   6.585 -0.1606 -1.2090 -0.0555
 1704TIP3   OH229306   5.067   3.776   8.584  0.5598 -0.0540 -0.7159
 1704TIP3    H129307   5.080   3.816   8.498  2.1086 -0.1203 -0.5342
 1704TIP3    H229308   4.995   3.715   8.572 -0.7631  1.5543 -1.4097
 1705TIP3   OH229309   0.807   2.397   6.752 -0.2200  0.0191 -0.1599
 1705TIP3    H129310   0.734   2.349   6.712 -0.5885 -0.7544  1.3783
 1705TIP3    H229311   0.766   2.473   6.793  0.0870  0.5365 -0.7990
 1706TIP3   OH229312   1.894   2.001   7.712  0.8717  0.1213  0.1976
 1706TIP3    H129313   1.829   1.968   7.650  1.6460  0.3995 -0.7860
 1706TIP3    H229314   1.932   2.077   7.669 -0.1913  1.7754  2.0116
 1707TIP3   OH229315   3.947   0.694   7.656 -0.4023  1.3551 -0.3573
 1707TIP3    H129316   3.898   0.613   7.667  1.3536 -0.0572 -2.2015
 1707TIP3    H229317   3.993   0.707   7.739 -0.5427  0.3584 -0.1191
 1708TIP3   OH229318   0.428   5.544   8.592 -0.3293  0.1311  0.3990
 1708TIP3    H129319   0.362   5.583   8.535 -0.1645  0.2410  0.2823
 1708TIP3    H229320   0.392   5.458   8.615 -0.5257  0.2038  0.3596
 1709TIP3   OH229321   0.847   1.201   9.149  0.3946  0.1851 -0.2313
 1709TIP3    H129322   0.775   1.139   9.140  0.1756  0.4565 -0.3614
 1709TIP3    H229323   0.806   1.281   9.180  0.3985  0.8218 -1.7854
 1710TIP3   OH229324   7.660   0.989   6.592  0.4446 -0.2563 -0.6157
 1710TIP3    H129325   7.657   1.074   6.637 -3.2206 -0.5931  0.1084
 1710TIP3    H229326   7.611   0.930   6.650  1.0442 -2.3665 -2.1357
 1711TIP3   OH229327   1.294   2.717   9.231 -0.3771  0.6162  0.6443
 1711TIP3    H129328   1.355   2.766   9.286  1.3084  0.9482 -1.4253
 1711TIP3    H229329   1.318   2.740   9.141 -2.4869 -0.5462 -0.2917
 1712TIP3   OH229330   1.377   5.683   7.850 -0.0604 -0.5231  0.7941
 1712TIP3    H129331   1.398   5.762   7.901 -0.6538 -1.1803  2.1015
 1712TIP3    H229332   1.305   5.642   7.898 -0.9097 -0.9909 -0.7948
 1713TIP3   OH229333   0.356   5.057   9.152  0.1313 -0.7062  0.0860
 1713TIP3    H129334   0.443   5.067   9.191  0.2349  0.1799 -0.3422
 1713TIP3    H229335   0.303   5.126   9.193 -0.1575 -0.7427 -0.2194
 1714TIP3   OH229336   4.691   7.132   6.754 -0.4358  0.0177 -0.1283
 1714TIP3    H129337   4.739   7.210   6.727  1.3963 -0.7888  0.6214
 1714TIP3    H229338   4.642   7.160   6.831  0.1268  0.4472  0.0800
 1715TIP3   OH229339   5.224   2.749   9.014 -0.0480  0.5951  0.1404
 1715TIP3    H129340   5.286   2.677   9.017 -2.4781 -1.6924 -0.4495
 1715TIP3    H229341   5.263   2.812   8.954  1.3457 -1.0947 -0.8265
 1716TIP3   OH229342   1.582   5.509   9.054 -0.1603 -0.4858  0.4644
 1716TIP3    H129343   1.665   5.484   9.012 -0.9935 -2.6671  0.0170
 1716TIP3    H229344   1.562   5.595   9.015  1.4535 -0.2887 -0.0379
 1717TIP3   OH229345   5.271   2.970   7.794 -0.1756  0.1447 -0.1400
 1717TIP3    H129346   5.258   2.938   7.705 -1.2021  2.0513 -0.7358
 1717TIP3    H229347   5.207   2.922   7.846  0.2815 -0.8309 -0.4446
 1718TIP3   OH229348   0.754   7.658   9.201  0.2972 -0.0347  0.0792
 1718TIP3    H129349   0.787   7.745   9.222  0.8127 -0.0760 -0.5251
 1718TIP3    H229350   0.728   7.621   9.285  1.8723 -0.0292  0.5991
 1719TIP3   OH229351   7.411   3.810   8.707 -0.1482 -0.4939  0.0749
 1719TIP3    H129352   7.442   3.787   8.620 -1.5756 -2.6296  0.0630
 1719TIP3    H229353   7.330   3.858   8.692  0.1964  0.1467  0.2213
 1720TIP3   OH229354   7.001   6.252   7.469 -0.2527 -0.1716 -0.1797
 1720TIP3    H129355   6.968   6.218   7.552 -1.0122 -0.3406 -0.5483
 1720TIP3    H229356   6.958   6.199   7.402  0.0340  0.2372 -0.6949
 1721TIP3   OH229357   3.398   4.719   7.214 -0.2480  0.4316  0.0401
 1721TIP3    H129358   3.465   4.736   7.281 -0.7231  2.4871  0.0426
 1721TIP3    H229359   3.345   4.648   7.251  1.3133 -0.5882  0.4550
 1722TIP3   OH229360   4.634   0.436   8.115  0.1836 -0.7800 -0.3850
 1722TIP3    H129361   4.695   0.441   8.189  1.8114 -0.2053 -1.7048
 1722TIP3    H229362   4.566   0.500   8.136  0.3174 -1.0143  0.8578
 1723TIP3   OH229363   5.877   3.268   8.835 -0.0355  0.2781  0.3604
 1723TIP3    H129364   5.910   3.184   8.801  0.1059  0.2710  0.5146
 1723TIP3    H229365   5.898   3.265   8.928  1.8028  1.3361  0.0366
 1724TIP3   OH229366   7.159   3.675   9.112 -0.2256 -0.2486 -0.6872
 1724TIP3    H129367   7.087   3.686   9.049  0.0315 -1.0080 -1.1146
 1724TIP3    H229368   7.238   3.686   9.060 -0.0147 -0.2116 -0.3608
 1725TIP3   OH229369   2.129   2.716   8.002 -0.2505  0.0279  0.0029
 1725TIP3    H129370   2.181   2.721   8.081 -1.8639 -1.3586  1.2354
 1725TIP3    H229371   2.141   2.627   7.970  0.0353  0.4370 -1.0749
 1726TIP3   OH229372   0.705   7.190   7.636  0.1683 -0.2050  0.0529
 1726TIP3    H129373   0.764   7.132   7.684  1.1017 -0.8260 -1.7488
 1726TIP3    H229374   0.724   7.173   7.543 -1.6745  0.7966 -0.5724
 1727TIP3   OH229375   5.730   2.929   7.821 -0.0946 -0.3536 -0.4877
 1727TIP3    H129376   5.783   3.006   7.840 -1.9855  0.7584  0.6264
 1727TIP3    H229377   5.648   2.964   7.786 -1.1115 -1.8173  0.3191
 1728TIP3   OH229378   5.121   1.835   8.640  0.1594  0.2844 -0.3312
 1728TIP3    H129379   5.102   1.847   8.547  0.3744  0.4285 -0.3576
 1728TIP3    H229380   5.051   1.882   8.685 -0.8542 -1.0957 -0.3945
 1729TIP3   OH229381   3.374   5.856   8.502  0.4029 -0.4200 -0.1064
 1729TIP3    H129382   3.413   5.898   8.578  2.0609 -0.5041 -0.8615
 1729TIP3    H229383   3.441   5.794   8.472 -0.3187 -0.5842 -1.4562
 1730TIP3   OH229384   6.071   5.925   7.144  0.0523 -0.1164 -0.1772
 1730TIP3    H129385   6.143   5.969   7.099 -0.0408 -1.5939 -1.9207
 1730TIP3    H229386   6.018   5.887   7.073  0.5207 -3.5800  1.1193
 1731TIP3   OH229387   3.834   1.671   9.212 -0.5153  0.3565  0.3898
 1731TIP3    H129388   3.919   1.713   9.225 -0.9134  1.3620 -0.1766
 1731TIP3    H229389   3.773   1.743   9.196 -1.3490 -0.3914  0.0896
 1732TIP3   OH229390   6.175   3.478   8.356  0.0630 -0.7734 -0.2088
 1732TIP3    H129391   6.174   3.547   8.422 -3.2525  0.6165 -1.4698
 1732TIP3    H229392   6.135   3.403   8.399  3.1188 -1.8717  0.9757
 1733TIP3   OH229393   1.938   0.388   7.722  0.0945  0.2898  0.3935
 1733TIP3    H129394   2.027   0.375   7.689  0.2701 -0.4341  1.1065
 1733TIP3    H229395   1.922   0.482   7.711  0.3874  0.1911 -1.0851
 1734TIP3   OH229396   2.669   1.728   8.999  0.3111  0.1229 -0.5668
 1734TIP3    H129397   2.611   1.781   8.944 -1.4522  0.0034  1.0745
 1734TIP3    H229398   2.630   1.640   8.996  1.3340 -0.3402 -0.6817
 1735TIP3   OH229399   5.669   5.330   7.766 -0.3589  0.3762  0.1223
 1735TIP3    H129400   5.578   5.340   7.740 -0.9431  1.9691  2.4451
 1735TIP3    H229401   5.665   5.298   7.856  1.3858 -0.0850  0.0703
 1736TIP3   OH229402   2.098   5.810   7.026  0.3769  0.0525 -0.5338
 1736TIP3    H129403   2.124   5.896   6.992 -0.7070  0.6586  0.1308
 1736TIP3    H229404   2.119   5.749   6.955  0.1957  0.9985 -1.4284
 1737TIP3   OH229405   5.373   6.881   7.859 -0.2535  0.0513 -0.0470
 1737TIP3    H129406   5.450   6.875   7.915 -0.8575 -1.2337  0.6911
 1737TIP3    H229407   5.406   6.868   7.770  0.2972 -1.2972  0.3346
 1738TIP3   OH229408   7.227   0.535   8.472  0.0498 -0.2508  0.3734
 1738TIP3    H129409   7.176   0.608   8.508 -0.0919 -0.5061  0.7004
 1738TIP3    H229410   7.170   0.459   8.483  1.1295 -0.8475  2.2945
 1739TIP3   OH229411   3.666   5.850   8.232 -0.5804 -0.3847 -0.1093
 1739TIP3    H129412   3.598   5.867   8.166 -1.4016  0.0039  0.8176
 1739TIP3    H229413   3.626   5.788   8.293 -0.0381 -0.2959  0.3436
 1740TIP3   OH229414   7.620   4.218   6.927 -0.5405  0.1699 -0.0146
 1740TIP3    H129415   7.576   4.300   6.907  0.2409  1.0625  1.6323
 1740TIP3    H229416   7.692   4.213   6.864 -1.2262  0.1809 -0.8142
 1741TIP3   OH229417   1.510   1.164   7.771  0.4815 -0.2050 -0.3062
 1741TIP3    H129418   1.451   1.137   7.842 -0.7970 -1.9861 -1.9470
 1741TIP3    H229419   1.484   1.254   7.753  1.3692  0.5865  1.9259
 1742TIP3   OH229420   6.315   4.568   7.204 -0.3227 -0.0690  0.0705
 1742TIP3    H129421   6.304   4.659   7.176  2.9784 -0.0861 -1.6862
 1742TIP3    H229422   6.252   4.520   7.150 -1.7722  1.0659  0.6720
 1743TIP3   OH229423   6.011   3.588   8.145  0.4726 -0.4267  0.0943
 1743TIP3    H129424   6.084   3.553   8.195  2.2233 -0.3521 -2.2243
 1743TIP3    H229425   5.963   3.643   8.207  1.7708 -1.2999  1.9559
 1744TIP3   OH229426   1.691   0.337   7.970  0.0094  0.4414 -0.5596
 1744TIP3    H129427   1.774   0.386   7.966 -0.4581  1.3551  0.3793
 1744TIP3    H229428   1.644   0.363   7.891  0.6666 -0.1992 -1.1764
 1745TIP3   OH229429   1.581   3.623   6.726  0.3920  0.0806  0.1681
 1745TIP3    H129430   1.489   3.644   6.736 -0.2185 -2.6608  1.2555
 1745TIP3    H229431   1.582   3.540   6.678  2.2259 -0.3686  0.8767
 1746TIP3   OH229432   3.096   3.994   9.401  0.0564 -0.4641 -0.6365
 1746TIP3    H129433   3.011   3.958   9.424  0.2112 -0.0614  0.6801
 1746TIP3    H229434   3.134   3.932   9.339 -1.0668 -0.7903 -1.0029
 1747TIP3   OH229435   0.972   4.334   6.551  0.1976 -0.1636 -0.4202
 1747TIP3    H129436   0.890   4.304   6.512 -0.6572 -0.4346  1.4785
 1747TIP3    H229437   0.954   4.424   6.579  0.3151 -0.4464  0.6056
 1748TIP3   OH229438   6.757   4.238   8.156 -0.3804 -0.1283 -0.0910
 1748TIP3    H129439   6.750   4.143   8.151  0.6533 -0.2581  0.5857
 1748TIP3    H229440   6.678   4.270   8.113 -2.2063 -1.3246  2.1124
 1749TIP3   OH229441   5.624   1.196   8.896 -0.6047  0.2737 -0.5378
 1749TIP3    H129442   5.545   1.230   8.939  0.3636 -0.2788  1.8349
 1749TIP3    H229443   5.619   1.102   8.908 -1.1484 -0.1363 -3.3150
 1750TIP3   OH229444   1.708   1.873   7.504  0.0350  0.0302 -0.1492
 1750TIP3    H129445   1.624   1.828   7.513 -1.2932  2.5639  1.1733
 1750TIP3    H229446   1.707   1.909   7.416  0.2227 -0.7740 -0.4936
 1751TIP3   OH229447   4.839   4.211   7.061  0.1842 -0.4064  0.0009
 1751TIP3    H129448   4.795   4.129   7.085  2.5720 -1.2218  1.9698
 1751TIP3    H229449   4.810   4.274   7.126  1.6811 -0.8930  1.1793
 1752TIP3   OH229450   5.123   1.846   7.829 -0.1942 -0.2035 -0.4287
 1752TIP3    H129451   5.117   1.775   7.894  1.4722  0.4713  0.5066
 1752TIP3    H229452   5.062   1.820   7.760 -0.3546 -2.0557  0.3562
 1753TIP3   OH229453   7.557   5.947   7.154  0.7519  0.7706 -0.3369
 1753TIP3    H129454   7.497   5.966   7.081  1.3981 -1.5214 -1.5566
 1753TIP3    H229455   7.500   5.913   7.223  0.4324  0.3483 -0.8008
 1754TIP3   OH229456   5.057   4.558   8.841  0.1037 -0.1413 -0.9006
 1754TIP3    H129457   4.987   4.493   8.835 -1.2389  1.2198 -0.5379
 1754TIP3    H229458   5.048   4.611   8.762  0.5249  0.2513 -0.6940
 1755TIP3   OH229459   0.743   6.002   8.693  0.8873 -0.6514  0.1210
 1755TIP3    H129460   0.682   5.941   8.653  0.7164 -0.4253  0.0306
 1755TIP3    H229461   0.809   5.947   8.735  1.8523 -0.8832 -1.6455
 1756TIP3   OH229462   3.891   5.243   8.525  0.4891  0.2758  0.0744
 1756TIP3    H129463   3.800   5.254   8.498  0.6500 -0.7817 -0.9758
 1756TIP3    H229464   3.943   5.281   8.454  0.8761 -0.2501  0.0620
 1757TIP3   OH229465   6.304   2.594   7.470  0.2610 -0.3574 -0.5762
 1757TIP3    H129466   6.276   2.613   7.380  0.5252  1.0193 -0.3902
 1757TIP3    H229467   6.391   2.633   7.477  0.3966 -0.7799  0.1683
 1758TIP3   OH229468   5.109   5.876   9.664  0.4809 -0.3415 -0.0233
 1758TIP3    H129469   5.042   5.864   9.731  2.9117 -1.4116  2.4142
 1758TIP3    H229470   5.068   5.847   9.582 -1.8402 -1.4172  1.4394
 1759TIP3   OH229471   2.701   4.594   7.612  0.4199 -0.2885  0.1730
 1759TIP3    H129472   2.635   4.561   7.674  1.5735 -0.8597  1.1299
 1759TIP3    H229473   2.774   4.533   7.619  1.3740  0.7532 -0.3085
 1760TIP3   OH229474   1.919   0.835   8.028  0.0783 -0.0481  0.5227
 1760TIP3    H129475   1.954   0.779   7.959  0.0155 -0.0478  0.4906
 1760TIP3    H229476   1.967   0.917   8.020 -0.7769  0.3800 -0.2916
 1761TIP3   OH229477   0.232   1.824   9.224 -0.3769  0.3096  0.1023
 1761TIP3    H129478   0.192   1.871   9.151 -0.2357 -1.0919 -0.9357
 1761TIP3    H229479   0.223   1.731   9.200  3.4194 -0.1381 -0.1953
 1762TIP3   OH229480   3.187   7.520   8.502 -0.3997 -0.1438 -0.0203
 1762TIP3    H129481   3.127   7.532   8.576 -1.0906 -1.0685 -0.4113
 1762TIP3    H229482   3.133   7.480   8.434  0.5336 -0.4771 -0.5821
 1763TIP3   OH229483   4.745   2.237   7.845 -0.0149  1.1071  0.0955
 1763TIP3    H129484   4.724   2.246   7.753  1.2856 -0.2558 -0.3760
 1763TIP3    H229485   4.666   2.200   7.885  0.2335 -0.6694 -0.9675
 1764TIP3   OH229486   1.386   2.453   9.112 -0.4877  0.0058 -0.8694
 1764TIP3    H129487   1.353   2.383   9.056  0.5101 -1.2382  0.0412
 1764TIP3    H229488   1.328   2.527   9.094 -2.1321 -1.3038 -1.2061
 1765TIP3   OH229489   6.565   5.108   7.740  0.0979 -0.2049  0.3938
 1765TIP3    H129490   6.625   5.135   7.671 -1.3290  1.4958 -0.2627
 1765TIP3    H229491   6.514   5.037   7.701  0.1825 -0.1389  0.1610
 1766TIP3   OH229492   5.154   5.081   8.219  0.6456 -0.1224  0.1058
 1766TIP3    H129493   5.116   5.005   8.176  0.0001 -0.6258  1.5126
 1766TIP3    H229494   5.192   5.133   8.148 -1.2064 -0.4347 -1.1733
 1767TIP3   OH229495   1.370   1.302   9.005  0.1126  0.0261  0.4671
 1767TIP3    H129496   1.276   1.321   8.998  0.4770  1.4582 -1.0714
 1767TIP3    H229497   1.374   1.207   9.014 -1.4438 -0.2071 -0.8551
 1768TIP3   OH229498   4.327   2.851   8.939  0.0148 -0.1945 -0.4410
 1768TIP3    H129499   4.419   2.843   8.966 -0.1295  0.2150  0.1741
 1768TIP3    H229500   4.332   2.855   8.843  0.5348 -1.4604 -0.4804
 1769TIP3   OH229501   5.366   0.527   7.125 -0.2308 -0.5276 -0.0121
 1769TIP3    H129502   5.322   0.604   7.089  0.9343  0.1952  0.0775
 1769TIP3    H229503   5.371   0.544   7.219  1.2213 -0.0658 -0.1475
 1770TIP3   OH229504   6.479   5.489   7.111 -0.0866 -0.0071  0.1927
 1770TIP3    H129505   6.571   5.486   7.137 -0.5365  0.3067  1.9345
 1770TIP3    H229506   6.477   5.551   7.038  1.1495 -0.4401 -0.2302
 1771TIP3   OH229507   0.708   2.200   7.486 -0.5260  0.1830 -0.4617
 1771TIP3    H129508   0.655   2.276   7.462 -1.5850 -0.8536 -1.5522
 1771TIP3    H229509   0.798   2.231   7.478 -0.9252  1.3956 -0.5893
 1772TIP3   OH229510   1.538   2.741   7.058  0.0616 -0.3539  0.1135
 1772TIP3    H129511   1.471   2.688   7.101 -0.3283  1.3730  1.7430
 1772TIP3    H229512   1.620   2.692   7.071 -0.6853 -2.0705 -1.1933
 1773TIP3   OH229513   0.856   4.378   7.183 -0.2407 -0.4071 -0.6436
 1773TIP3    H129514   0.830   4.292   7.216  0.7595 -0.1001  1.1099
 1773TIP3    H229515   0.925   4.360   7.119 -1.4586 -0.9806 -1.8158
 1774TIP3   OH229516   5.945   0.874   9.620  0.0597 -0.4692 -0.6210
 1774TIP3    H129517   5.957   0.790   9.665  0.6596 -0.6565 -1.1182
 1774TIP3    H229518   5.853   0.896   9.635 -0.6659 -2.1656 -2.0586
 1775TIP3   OH229519   0.890   4.031   7.625  0.0138 -0.5464 -0.6121
 1775TIP3    H129520   0.891   3.956   7.683  0.5875  0.5013  0.7743
 1775TIP3    H229521   0.877   4.107   7.682 -0.6067  0.4232 -1.9680
 1776TIP3   OH229522   0.267   6.447   6.792 -0.4775 -0.0957  0.5162
 1776TIP3    H129523   0.285   6.397   6.712  0.7953  1.3282 -0.1474
 1776TIP3    H229524   0.219   6.524   6.763  0.8009  0.9048  0.9561
 1777TIP3   OH229525   6.188   5.630   8.574  0.1911  0.0141 -0.0630
 1777TIP3    H129526   6.220   5.540   8.575 -0.1346 -0.2008 -2.8274
 1777TIP3    H229527   6.267   5.684   8.574  0.4836 -0.3816 -1.1951
 1778TIP3   OH229528   6.002   4.836   8.386 -0.3680 -0.1214 -0.4917
 1778TIP3    H129529   6.011   4.848   8.292 -0.5078 -0.0652 -0.4979
 1778TIP3    H229530   5.908   4.823   8.400 -0.5066  1.0482 -0.2324
 1779TIP3   OH229531   5.361   5.767   7.310 -0.1244 -0.1142  0.2785
 1779TIP3    H129532   5.349   5.673   7.320 -0.0860  0.0032  1.6250
 1779TIP3    H229533   5.421   5.777   7.236  2.1722 -1.2828  1.8817
 1780TIP3   OH229534   2.286   5.965   7.454 -0.6937 -0.5677 -0.2701
 1780TIP3    H129535   2.243   6.051   7.456 -0.8250 -0.5794 -1.6732
 1780TIP3    H229536   2.215   5.902   7.468 -0.5502 -0.4584  1.0813
 1781TIP3   OH229537   2.932   7.501   8.130 -0.1046 -0.2796 -0.1083
 1781TIP3    H129538   2.848   7.492   8.175 -0.5076  0.3983 -0.7042
 1781TIP3    H229539   2.993   7.449   8.182 -0.9543 -1.0230  0.1612
 1782TIP3   OH229540   7.136   7.287   7.698  0.5119  0.2334  0.6432
 1782TIP3    H129541   7.171   7.266   7.611  1.7138  0.3434  1.0783
 1782TIP3    H229542   7.076   7.359   7.683 -0.0048 -0.3517 -0.2174
 1783TIP3   OH229543   0.961   1.925   8.686  0.3156  0.5568  0.4527
 1783TIP3    H129544   0.868   1.909   8.703 -0.2434  2.3510 -0.6945
 1783TIP3    H229545   0.993   1.968   8.765  0.1338  0.0956  0.7810
 1784TIP3   OH229546   6.551   4.340   9.092  0.3516 -0.2054 -0.2167
 1784TIP3    H129547   6.568   4.343   8.998 -1.2655  2.7377 -0.5408
 1784TIP3    H229548   6.500   4.260   9.105  0.7025 -0.7180 -1.8334
 1785TIP3   OH229549   1.026   0.833   7.723 -0.9332  0.1184  0.0591
 1785TIP3    H129550   1.089   0.874   7.664 -0.4982 -0.4852  0.1032
 1785TIP3    H229551   0.949   0.818   7.669  0.5945 -3.6098 -1.3872
 1786TIP3   OH229552   0.548   5.384   8.001  0.2274 -0.1759 -0.1104
 1786TIP3    H129553   0.643   5.374   7.996  0.2197 -0.4089  0.1737
 1786TIP3    H229554   0.522   5.327   8.074 -0.0612  0.3248  0.1839
 1787TIP3   OH229555   0.357   1.347   9.216 -0.2590 -0.2514 -0.4198
 1787TIP3    H129556   0.313   1.353   9.301  0.8301 -0.3493  0.1792
 1787TIP3    H229557   0.290   1.367   9.152 -0.8543  0.8868  0.5320
 1788TIP3   OH229558   2.915   2.842   7.334 -0.1760 -0.7429 -0.0020
 1788TIP3    H129559   2.967   2.818   7.258 -0.6905  0.6675 -0.8427
 1788TIP3    H229560   2.825   2.824   7.309 -0.4468  0.7356 -0.1659
 1789TIP3   OH229561   6.340   7.526   7.799 -0.0785  0.8573 -0.2953
 1789TIP3    H129562   6.376   7.440   7.817 -1.2910  0.0764 -1.3916
 1789TIP3    H229563   6.383   7.584   7.861  0.1048 -0.6777  1.0815
 1790TIP3   OH229564   4.766   2.187   9.090 -0.0729 -0.3447 -0.5840
 1790TIP3    H129565   4.737   2.258   9.033  0.7511  0.3645 -0.1474
 1790TIP3    H229566   4.814   2.128   9.033 -2.3784 -1.6147 -1.3508
 1791TIP3   OH229567   2.532   4.471   7.772 -0.2395  1.1320 -0.5783
 1791TIP3    H129568   2.442   4.485   7.802 -0.1623  1.2974 -0.4179
 1791TIP3    H229569   2.571   4.416   7.839 -0.0570  1.5276 -0.3522
 1792TIP3   OH229570   6.465   0.869   8.335  0.1991  0.0222  0.1937
 1792TIP3    H129571   6.453   0.814   8.413  0.7084 -0.0909  0.1950
 1792TIP3    H229572   6.541   0.831   8.291  0.1868  0.3636 -0.1201
 1793TIP3   OH229573   4.893   4.007   7.618  0.3114  0.1443  0.1400
 1793TIP3    H129574   4.960   4.074   7.628 -0.5172  0.7333  2.2269
 1793TIP3    H229575   4.855   4.023   7.532  0.8081  1.7444  0.1884
 1794TIP3   OH229576   0.085   1.110   9.020  0.5290 -0.0913  0.1444
 1794TIP3    H129577   0.134   1.096   8.939 -2.1885  1.7471 -2.0168
 1794TIP3    H229578   0.019   1.040   9.020 -0.5828  0.9257 -0.2241
 1795TIP3   OH229579   2.632   3.369   6.828  0.5352  0.2012 -0.7457
 1795TIP3    H129580   2.670   3.436   6.771 -0.5275  1.0735 -0.4505
 1795TIP3    H229581   2.592   3.306   6.767 -1.0872  1.4186 -0.9969
 1796TIP3   OH229582   4.214   4.538   7.927  0.3712 -0.2871  0.6124
 1796TIP3    H129583   4.195   4.612   7.869  1.0036  0.3355  1.1866
 1796TIP3    H229584   4.131   4.520   7.970 -0.1099 -0.7596 -0.4768
 1797TIP3   OH229585   3.313   6.566   8.658 -0.2533 -0.2267 -0.3610
 1797TIP3    H129586   3.351   6.576   8.745  1.7904  0.8498 -1.3034
 1797TIP3    H229587   3.265   6.647   8.642  2.8798  1.5260 -1.7601
 1798TIP3   OH229588   7.648   7.631   6.553  0.3381  0.1809  0.1776
 1798TIP3    H129589   7.586   7.634   6.626 -0.1019 -3.9184  0.2030
 1798TIP3    H229590   7.605   7.681   6.483 -1.0639  0.8859  1.4829
 1799TIP3   OH229591   4.110   6.567   7.872 -0.2139 -0.3760 -0.5988
 1799TIP3    H129592   4.035   6.512   7.850 -0.6688  0.5097 -1.3116
 1799TIP3    H229593   4.184   6.523   7.829 -0.6166 -0.2854 -1.4117
 1800TIP3   OH229594   6.360   4.974   7.637 -0.4228  0.5323 -0.1768
 1800TIP3    H129595   6.304   4.911   7.681 -1.9625  1.5448 -0.5749
 1800TIP3    H229596   6.303   5.050   7.622  0.9484  1.4489 -1.0008
 1801TIP3   OH229597   5.414   5.163   9.460  0.3400 -0.1387  0.4254
 1801TIP3    H129598   5.370   5.220   9.523  0.8529 -0.3263  0.9667
 1801TIP3    H229599   5.344   5.118   9.415 -0.0955  1.1150 -0.2117
 1802TIP3   OH229600   3.336   6.938   9.151  0.0901  0.3528 -0.2443
 1802TIP3    H129601   3.393   6.980   9.215  1.2286 -0.0184 -0.9853
 1802TIP3    H229602   3.271   7.005   9.130  0.2479  0.7874  0.6122
 1803TIP3   OH229603   2.526   3.184   7.227 -0.5790 -0.1342 -0.1958
 1803TIP3    H129604   2.438   3.153   7.248 -0.4755 -1.5502 -1.6581
 1803TIP3    H229605   2.513   3.269   7.186 -1.2759 -0.3463 -0.4223
 1804TIP3   OH229606   4.882   6.224   7.912  0.5297  0.3092 -0.3256
 1804TIP3    H129607   4.952   6.230   7.848 -0.0852  1.2816 -0.9324
 1804TIP3    H229608   4.852   6.314   7.924 -0.4950 -0.0648  0.0440
 1805TIP3   OH229609   2.480   0.917   9.334 -0.3614 -0.0843  0.0278
 1805TIP3    H129610   2.563   0.870   9.340 -0.2252  0.2056  0.3607
 1805TIP3    H229611   2.444   0.890   9.249 -0.2263 -0.6999  0.1579
 1806TIP3   OH229612   4.090   5.198   8.126 -0.3341  0.5621  0.3663
 1806TIP3    H129613   4.154   5.241   8.068 -1.5911  0.4319 -1.1805
 1806TIP3    H229614   4.140   5.175   8.204  1.7273 -0.2942 -1.1240
 1807TIP3   OH229615   3.369   2.750   8.639 -0.4895 -0.1412  0.3311
 1807TIP3    H129616   3.306   2.716   8.575 -1.9050  0.9356  1.0980
 1807TIP3    H229617   3.374   2.682   8.706 -1.1731 -0.0527  0.4786
 1808TIP3   OH229618   6.527   7.168   7.468 -0.3209 -0.0663 -0.4918
 1808TIP3    H129619   6.520   7.080   7.506  0.5451 -0.0385 -0.2491
 1808TIP3    H229620   6.438   7.204   7.475 -0.1977 -0.0358  1.5975
 1809TIP3   OH229621   3.402   5.582   6.550  0.1905 -0.3069 -0.1680
 1809TIP3    H129622   3.341   5.559   6.620  0.4351 -1.3431 -0.2886
 1809TIP3    H229623   3.474   5.519   6.558  0.6434  0.1113 -0.8129
 1810TIP3   OH229624   0.348   2.565   7.261  0.4160 -0.3773 -0.1687
 1810TIP3    H129625   0.356   2.660   7.268  1.5642 -0.4045 -0.8753
 1810TIP3    H229626   0.371   2.545   7.170  0.0700 -1.3233 -0.0627
 1811TIP3   OH229627   0.737   2.272   9.156  0.1058 -0.2694 -0.3428
 1811TIP3    H129628   0.703   2.357   9.184 -2.1016 -0.0757 -3.1182
 1811TIP3    H229629   0.830   2.287   9.140 -0.4220  1.9449 -1.6980
 1812TIP3   OH229630   6.346   5.786   6.978 -0.1817 -0.0372 -0.5065
 1812TIP3    H129631   6.396   5.778   7.059 -2.3310  0.3098  0.9461
 1812TIP3    H229632   6.405   5.831   6.917  1.1939  0.4532  1.1227
 1813TIP3   OH229633   4.990   7.200   8.454 -0.3776 -0.6384 -0.1884
 1813TIP3    H129634   4.971   7.106   8.443  0.6930 -0.7379 -1.4274
 1813TIP3    H229635   5.000   7.232   8.364  2.6566 -0.0688  0.2514
 1814TIP3   OH229636   2.218   3.365   8.997  0.2266 -0.5673 -0.0947
 1814TIP3    H129637   2.231   3.439   9.056 -0.7634 -1.2016  0.9655
 1814TIP3    H229638   2.199   3.405   8.912  1.4935  0.3668  0.0233
 1815TIP3   OH229639   7.270   0.298   8.256  0.2871  0.3773 -0.0798
 1815TIP3    H129640   7.245   0.390   8.253  0.1061  0.4045  1.3838
 1815TIP3    H229641   7.222   0.263   8.331  1.8420 -0.4278  0.5943
 1816TIP3   OH229642   6.871   1.111   8.775 -0.5595 -0.0979  0.4553
 1816TIP3    H129643   6.826   1.194   8.759  1.7518  1.7541  2.7470
 1816TIP3    H229644   6.804   1.052   8.809 -1.7635  1.6699  1.2200
 1817TIP3   OH229645   2.772   5.178   8.151  0.0764  0.2486  0.4947
 1817TIP3    H129646   2.791   5.122   8.226  1.8373  1.9132  1.3720
 1817TIP3    H229647   2.824   5.142   8.080  0.5375  0.2715  0.8215
 1818TIP3   OH229648   1.963   7.175   8.998 -0.0622 -0.1727  0.1097
 1818TIP3    H129649   2.024   7.167   9.072 -0.7924 -0.7465  0.6665
 1818TIP3    H229650   1.999   7.246   8.945  0.2584  0.5400  1.2346
 1819TIP3   OH229651   1.664   6.362   8.280 -0.0298 -0.4011  0.3805
 1819TIP3    H129652   1.580   6.351   8.326 -0.3601 -0.8338 -0.3089
 1819TIP3    H229653   1.662   6.453   8.249  1.0126  0.5185  2.7735
 1820TIP3   OH229654   6.852   6.096   7.665 -0.1603 -0.3410 -0.0654
 1820TIP3    H129655   6.896   6.072   7.747  1.6188  1.6764 -0.3346
 1820TIP3    H229656   6.831   6.013   7.623  0.6090 -1.3944  1.5437
 1821TIP3   OH229657   4.112   1.510   9.338  0.0403  0.3664  0.6527
 1821TIP3    H129658   4.153   1.472   9.261  0.1146 -1.4725  1.5465
 1821TIP3    H229659   4.039   1.451   9.358 -0.2766  1.0786  1.7003
 1822TIP3   OH229660   2.428   2.740   9.237  0.1955 -0.1488 -0.2932
 1822TIP3    H129661   2.379   2.798   9.179  0.2502  0.2415  0.0488
 1822TIP3    H229662   2.432   2.657   9.190 -1.3788 -0.3976 -0.0493
 1823TIP3   OH229663   6.533   5.226   7.060 -0.2071 -0.0112 -0.0595
 1823TIP3    H129664   6.497   5.193   6.978 -0.3805  0.4009 -0.1555
 1823TIP3    H229665   6.473   5.296   7.086 -0.7286 -0.8166  0.9671
 1824TIP3   OH229666   2.703   0.675   8.653 -0.7918 -0.6914 -0.2400
 1824TIP3    H129667   2.745   0.746   8.702 -1.1342 -0.3087 -0.4936
 1824TIP3    H229668   2.610   0.685   8.671 -1.0443  0.1147 -1.7827
 1825TIP3   OH229669   1.760   6.603   9.429  0.3316  0.4224 -0.8316
 1825TIP3    H129670   1.669   6.628   9.415  0.8450  1.4987 -2.6243
 1825TIP3    H229671   1.757   6.511   9.453 -1.3395  0.9721  1.3753
 1826TIP3   OH229672   2.794   4.625   7.969 -0.2553 -0.1779 -0.4989
 1826TIP3    H129673   2.711   4.665   7.992  0.2895  0.1311  1.0289
 1826TIP3    H229674   2.771   4.538   7.936 -1.0657 -1.3912  2.8792
 1827TIP3   OH229675   1.681   0.598   7.300  0.3238 -0.1557  0.2584
 1827TIP3    H129676   1.661   0.625   7.210  0.2311  0.3672  0.4336
 1827TIP3    H229677   1.636   0.514   7.310 -0.1755  0.0805  0.0169
 1828TIP3   OH229678   3.831   5.603   9.667 -0.0747 -0.5191  0.8091
 1828TIP3    H129679   3.906   5.543   9.668 -0.4581 -1.0528 -0.8666
 1828TIP3    H229680   3.755   5.547   9.679 -0.3651 -0.2403  0.2795
 1829TIP3   OH229681   2.056   7.095   7.147  0.4197  0.4699 -0.6021
 1829TIP3    H129682   2.013   7.018   7.184  0.3909  0.4430 -0.6919
 1829TIP3    H229683   2.128   7.113   7.208  1.4189 -0.5930 -1.4235
 1830TIP3   OH229684   1.685   7.653   6.825 -0.2429 -0.2292  0.2518
 1830TIP3    H129685   1.605   7.601   6.826  0.5251 -1.4861  2.1230
 1830TIP3    H229686   1.655   7.744   6.818 -1.7734 -0.7123  0.1507
 1831TIP3   OH229687   7.008   2.850   6.766 -0.4112  0.3289 -0.1853
 1831TIP3    H129688   6.920   2.887   6.753 -0.1523  0.9074 -0.2884
 1831TIP3    H229689   7.047   2.903   6.835  1.2146  2.4903 -2.5792
 1832TIP3   OH229690   0.314   0.476   7.682 -0.2721 -0.4469 -0.2162
 1832TIP3    H129691   0.279   0.399   7.726  1.4066 -1.1540 -0.0401
 1832TIP3    H229692   0.273   0.551   7.725 -0.6493 -1.2037  0.7493
 1833TIP3   OH229693   2.514   4.918   7.525  0.2507  0.7073  0.1277
 1833TIP3    H129694   2.490   4.827   7.538 -0.5538  1.0074  0.8534
 1833TIP3    H229695   2.608   4.920   7.538  0.3868 -0.1413 -0.6472
 1834TIP3   OH229696   5.273   6.285   9.828 -0.2958  0.5619 -0.3905
 1834TIP3    H129697   5.198   6.275   9.769 -0.0315 -1.1482 -0.4930
 1834TIP3    H229698   5.246   6.243   9.910  0.2708  0.6234 -0.1625
 1835TIP3   OH229699   4.757   1.821   8.522 -0.0586 -0.1469  0.3536
 1835TIP3    H129700   4.847   1.849   8.506 -0.2026  2.0886  2.7310
 1835TIP3    H229701   4.706   1.902   8.521 -1.7198 -1.1320  0.9168
 1836TIP3   OH229702   5.722   1.508   8.260 -0.4187 -0.7001  0.0638
 1836TIP3    H129703   5.794   1.504   8.323  0.3764  1.2110 -0.6510
 1836TIP3    H229704   5.673   1.587   8.284 -1.0535 -0.8386 -0.7156
 1837TIP3   OH229705   7.156   3.779   6.988  0.0307 -0.6360  0.2072
 1837TIP3    H129706   7.148   3.758   7.081  1.0679 -0.2163  0.3977
 1837TIP3    H229707   7.213   3.711   6.953  0.6627 -0.0773  0.1397
 1838TIP3   OH229708   6.046   0.537   6.781 -0.7412  0.1176  0.2042
 1838TIP3    H129709   6.083   0.594   6.714 -0.0674  1.2286  1.4794
 1838TIP3    H229710   5.964   0.580   6.807 -2.1894 -1.4827 -1.4485
 1839TIP3   OH229711   5.148   6.290   7.092 -0.3016 -0.0553  0.1382
 1839TIP3    H129712   5.173   6.274   7.002  1.5724  0.5336  0.5044
 1839TIP3    H229713   5.107   6.209   7.121 -1.2583 -0.1205 -1.3208
 1840TIP3   OH229714   4.625   4.783   9.232 -0.0675  0.1980 -0.3217
 1840TIP3    H129715   4.587   4.730   9.303  0.4711  1.1138  0.6750
 1840TIP3    H229716   4.717   4.757   9.230  0.1504  0.9269  0.0248
 1841TIP3   OH229717   2.600   7.601   8.577  0.3926  0.5564  0.2093
 1841TIP3    H129718   2.516   7.555   8.570  1.1264 -0.8911  0.6032
 1841TIP3    H229719   2.626   7.618   8.487 -0.0277  0.4722  0.0715
 1842TIP3   OH229720   6.819   0.812   8.560  0.2938  0.4007  0.7599
 1842TIP3    H129721   6.809   0.907   8.557 -0.2737  0.3287  0.0963
 1842TIP3    H229722   6.791   0.782   8.473 -1.6181 -0.5724  1.6526
 1843TIP3   OH229723   3.815   3.336   6.424 -0.2389 -0.1863 -0.0779
 1843TIP3    H129724   3.837   3.394   6.351 -2.0751 -0.9519 -1.3410
 1843TIP3    H229725   3.721   3.319   6.413 -0.3322 -1.1850  1.8617
 1844TIP3   OH229726   2.310   5.836   7.190 -0.3918  0.7781 -0.6035
 1844TIP3    H129727   2.285   5.834   7.283  1.5728 -0.5970 -0.0365
 1844TIP3    H229728   2.231   5.811   7.143 -1.6282  2.1816  0.6099
 1845TIP3   OH229729   0.975   6.622   7.022 -0.1685  0.0004 -0.4687
 1845TIP3    H129730   0.934   6.546   6.980  0.5098 -1.2725  1.0765
 1845TIP3    H229731   0.910   6.692   7.014 -0.9963 -0.8552 -1.5321
 1846TIP3   OH229732   5.787   4.646   7.975 -0.1539  0.0936  0.2116
 1846TIP3    H129733   5.744   4.636   8.061  2.6430  0.0248  1.7148
 1846TIP3    H229734   5.748   4.577   7.921 -0.4173 -1.3457  2.1207
 1847TIP3   OH229735   4.156   6.224   7.482  0.0221 -0.3431  0.0113
 1847TIP3    H129736   4.167   6.174   7.563  0.2485 -1.3934 -0.6430
 1847TIP3    H229737   4.232   6.199   7.429  0.6988  1.5011  0.0489
 1848TIP3   OH229738   2.256   3.898   7.626 -0.2224 -0.1639  0.3857
 1848TIP3    H129739   2.197   3.839   7.672 -1.9552  0.6031 -0.7329
 1848TIP3    H229740   2.244   3.982   7.670 -2.3113  0.7168 -1.6201
 1849TIP3   OH229741   4.358   5.877   9.034 -0.2500 -0.1333  0.4815
 1849TIP3    H129742   4.280   5.879   9.090 -1.1829 -1.9621 -0.6656
 1849TIP3    H229743   4.325   5.865   8.946  1.2108  2.6804 -0.5555
 1850TIP3   OH229744   6.326   3.568   8.997  0.2582  0.1307 -0.0857
 1850TIP3    H129745   6.373   3.606   9.072 -0.5527 -1.3269  1.2262
 1850TIP3    H229746   6.361   3.479   8.990 -0.7801 -0.2634 -0.4353
 1851TIP3   OH229747   7.583   5.912   8.375 -0.3007  0.3074 -0.1152
 1851TIP3    H129748   7.609   5.821   8.360  0.2139  0.7721 -2.5314
 1851TIP3    H229749   7.487   5.911   8.368 -0.4238 -0.2412  1.3401
 1852TIP3   OH229750   0.012   3.794   8.292  0.0560  0.3270  0.8662
 1852TIP3    H129751   0.036   3.701   8.284 -0.4232  0.3627 -2.0491
 1852TIP3    H229752   0.089   3.841   8.260 -0.3214  0.8771  0.7594
 1853TIP3   OH229753   6.801   2.674   8.415 -0.1657  0.1862 -0.4047
 1853TIP3    H129754   6.850   2.595   8.394  1.8920  1.3780 -0.3679
 1853TIP3    H229755   6.867   2.736   8.445 -1.6288  2.0902 -0.8974
 1854TIP3   OH229756   0.723   0.702   7.850  0.4814 -0.3708 -0.9625
 1854TIP3    H129757   0.630   0.706   7.826  0.5548  1.3113 -1.0839
 1854TIP3    H229758   0.767   0.668   7.772  0.0809 -0.3096 -1.2171
 1855TIP3   OH229759   7.175   0.681   8.849  0.2140  0.1666  0.5499
 1855TIP3    H129760   7.167   0.762   8.900  2.8102  0.8532  0.0164
 1855TIP3    H229761   7.268   0.658   8.855  0.4439 -0.3581 -2.8204
 1856TIP3   OH229762   7.490   4.682   8.819  0.1567 -0.3326 -0.0540
 1856TIP3    H129763   7.478   4.766   8.864  0.2299 -1.0120  1.2888
 1856TIP3    H229764   7.419   4.678   8.755  0.1020  0.7110 -0.0735
 1857TIP3   OH229765   4.815   5.207   9.149  0.7760  0.2529 -0.3984
 1857TIP3    H129766   4.874   5.220   9.074  2.4644 -2.4688  0.2982
 1857TIP3    H229767   4.810   5.292   9.191  1.8859  1.2535 -2.1465
 1858TIP3   OH229768   6.794   1.068   8.473 -0.1953  0.5011 -0.4653
 1858TIP3    H129769   6.699   1.071   8.484 -0.2858 -0.1648 -1.0293
 1858TIP3    H229770   6.811   1.118   8.394 -0.1241  0.2086 -0.6362
 1859TIP3   OH229771   5.175   1.488   8.128  0.4788  0.6595  0.0774
 1859TIP3    H129772   5.270   1.482   8.138  0.1962 -2.8043  2.3137
 1859TIP3    H229773   5.152   1.411   8.076 -1.3219 -0.8644  2.8821
 1860TIP3   OH229774   6.879   6.291   6.533  0.1675  0.4348 -0.2400
 1860TIP3    H129775   6.959   6.250   6.566 -0.4049  0.0540  0.7309
 1860TIP3    H229776   6.872   6.373   6.583 -1.1668 -0.5545  1.3082
 1861TIP3   OH229777   2.726   3.235   9.406  0.4444  0.3752  0.1956
 1861TIP3    H129778   2.716   3.328   9.426  0.2973  0.2075  0.9362
 1861TIP3    H229779   2.643   3.195   9.432  0.7840 -0.0787  0.6131
 1862TIP3   OH229780   4.829   5.211   8.042 -0.6676 -0.0036  0.1038
 1862TIP3    H129781   4.843   5.117   8.047 -1.9114 -0.1799  0.7248
 1862TIP3    H229782   4.813   5.238   8.133  1.4130  1.1169  0.1881
 1863TIP3   OH229783   3.039   0.697   9.322 -0.2570 -0.2164 -0.4882
 1863TIP3    H129784   3.119   0.719   9.274 -0.3203  0.7181 -0.1996
 1863TIP3    H229785   2.978   0.665   9.256  0.4896 -1.3417 -0.6511
 1864TIP3   OH229786   2.415   1.820   8.508 -0.0609 -0.5286 -0.8852
 1864TIP3    H129787   2.326   1.800   8.534  0.4097  0.0698  1.4148
 1864TIP3    H229788   2.464   1.739   8.523  0.1488 -0.2788 -0.1805
 1865TIP3   OH229789   3.038   6.654   7.037  0.4292  0.1636 -0.3073
 1865TIP3    H129790   2.976   6.710   7.083 -0.9403 -1.0788 -0.6012
 1865TIP3    H229791   3.101   6.716   6.999 -0.6317  1.4585 -0.0457
 1866TIP3   OH229792   3.002   2.769   8.511  0.1634  0.6026  0.3986
 1866TIP3    H129793   3.078   2.747   8.458 -0.2748  0.5485 -0.2244
 1866TIP3    H229794   2.966   2.684   8.538  0.2452  0.6245  0.5757
 1867TIP3   OH229795   7.275   0.734   6.713  0.0501  0.0453  0.5146
 1867TIP3    H129796   7.277   0.658   6.772  0.5538  0.1121  0.5880
 1867TIP3    H229797   7.363   0.772   6.719  0.9751 -1.3886 -2.1504
 1868TIP3   OH229798   3.595   1.328   8.415 -0.0987  0.1788  0.5577
 1868TIP3    H129799   3.516   1.297   8.370  0.7706 -1.7462  0.2488
 1868TIP3    H229800   3.587   1.423   8.415 -1.7713  0.0834 -0.6343
 1869TIP3   OH229801   2.491   4.910   6.823 -1.1130  0.0660 -0.2185
 1869TIP3    H129802   2.530   4.826   6.798 -1.3074  0.4120 -1.7761
 1869TIP3    H229803   2.539   4.975   6.772 -1.4252  0.8346  0.4484
 1870TIP3   OH229804   4.904   6.814   7.712  0.0821  0.1824  0.5650
 1870TIP3    H129805   4.875   6.903   7.691  1.4872  0.5641  0.1210
 1870TIP3    H229806   4.930   6.777   7.628 -2.4808 -1.4593  0.4006
 1871TIP3   OH229807   0.635   4.770   6.537 -0.1846 -0.2648  0.2607
 1871TIP3    H129808   0.593   4.806   6.615  0.9734  0.2184  0.6823
 1871TIP3    H229809   0.563   4.735   6.485 -1.0132 -0.2845  1.3828
 1872TIP3   OH229810   1.077   2.060   9.203  0.3648 -0.1596  0.2913
 1872TIP3    H129811   1.150   2.074   9.264  0.5328 -2.3477  0.6620
 1872TIP3    H229812   1.011   2.014   9.255 -0.5436  0.1942 -0.5312
 1873TIP3   OH229813   2.311   2.795   8.195 -0.1737  0.4113 -0.5438
 1873TIP3    H129814   2.301   2.857   8.266  0.5174 -1.3300  1.1640
 1873TIP3    H229815   2.345   2.847   8.122 -0.5360  2.1827  0.4955
 1874TIP3   OH229816   2.055   1.827   8.074  0.1772 -0.2215  0.4400
 1874TIP3    H129817   2.032   1.887   8.145  1.1105  0.8369 -0.1217
 1874TIP3    H229818   2.104   1.756   8.117 -1.4310 -0.9323  1.1930
 1875TIP3   OH229819   5.669   5.771   8.775  0.3233  0.1990  0.0755
 1875TIP3    H129820   5.672   5.680   8.803 -1.6463 -0.1357 -0.6083
 1875TIP3    H229821   5.656   5.821   8.856 -0.3045 -0.3065  0.2940
 1876TIP3   OH229822   7.174   0.498   6.843 -0.2515 -0.3549  0.0206
 1876TIP3    H129823   7.159   0.517   6.935  1.2912 -3.2083  0.9813
 1876TIP3    H229824   7.086   0.487   6.806 -0.8752  0.2280  1.2534
 1877TIP3   OH229825   0.102   4.605   7.650  0.1600  0.3243  0.4301
 1877TIP3    H129826   0.102   4.613   7.555 -0.3709  0.5990  0.4506
 1877TIP3    H229827   0.018   4.564   7.671  0.0403  0.7678  0.8219
 1878TIP3   OH229828   5.074   2.379   7.458  0.2975  0.1869 -0.0976
 1878TIP3    H129829   5.154   2.405   7.504  0.9085 -0.1212 -0.9568
 1878TIP3    H229830   5.010   2.444   7.483  0.9319  0.6725  0.2981
 1879TIP3   OH229831   3.366   6.844   8.666 -0.0649  0.1325 -0.2979
 1879TIP3    H129832   3.298   6.905   8.638  2.4075  3.1810 -0.2045
 1879TIP3    H229833   3.387   6.871   8.755  0.5266 -1.4973  0.0903
 1880TIP3   OH229834   5.395   6.377   9.018 -0.0898  0.1569  0.2434
 1880TIP3    H129835   5.324   6.314   9.037  0.1629 -0.2436 -0.1369
 1880TIP3    H229836   5.461   6.358   9.085  0.6878 -1.0816 -0.8307
 1881TIP3   OH229837   2.866   7.502   7.439 -0.6143 -0.0204  0.0003
 1881TIP3    H129838   2.864   7.507   7.343 -0.3582 -0.5306 -0.0349
 1881TIP3    H229839   2.776   7.521   7.466 -1.1675 -1.7949 -0.4512
 1882TIP3   OH229840   5.903   7.079   8.809 -0.1444  0.1682  0.0089
 1882TIP3    H129841   5.829   7.087   8.869  1.2966 -0.9212  2.0562
 1882TIP3    H229842   5.971   7.034   8.860  1.3197 -0.4685 -2.3314
 1883TIP3   OH229843   5.496   5.848   8.034  0.9206  0.6640  0.0584
 1883TIP3    H129844   5.590   5.841   8.015  1.4173 -1.5981  2.6156
 1883TIP3    H229845   5.492   5.859   8.129 -1.4207  2.8883 -0.2070
 1884TIP3   OH229846   5.083   5.617   7.295  0.2381  0.1937 -0.6256
 1884TIP3    H129847   5.111   5.569   7.373  0.9166  0.3816 -0.7499
 1884TIP3    H229848   5.132   5.576   7.223  0.6777  0.9482 -0.7580
 1885TIP3   OH229849   6.253   4.314   8.590 -0.4307  0.2197  0.2698
 1885TIP3    H129850   6.307   4.236   8.589 -2.1628 -1.0715  1.4902
 1885TIP3    H229851   6.277   4.359   8.672 -0.4092  0.2461  0.2492
 1886TIP3   OH229852   7.008   6.698   6.350 -0.0816  0.9991 -0.0639
 1886TIP3    H129853   7.031   6.631   6.414  1.1818  1.7822  0.3391
 1886TIP3    H229854   7.089   6.714   6.301 -1.2829 -0.4356 -2.7453
 1887TIP3   OH229855   4.861   0.200   9.027  0.1653  0.3230 -0.2248
 1887TIP3    H129856   4.819   0.115   9.031 -1.7174  1.1890 -0.5618
 1887TIP3    H229857   4.810   0.249   8.962  0.7693  1.9196  0.4545
 1888TIP3   OH229858   6.087   3.920   8.926  0.4137  0.0625  0.3039
 1888TIP3    H129859   6.107   3.955   9.013 -0.2946  1.4677 -0.0654
 1888TIP3    H229860   6.056   3.995   8.877  0.6032 -0.7575 -1.1202
 1889TIP3   OH229861   3.647   0.288   9.301  0.0734 -0.4720  0.3278
 1889TIP3    H129862   3.740   0.309   9.306 -0.0181 -0.1346  0.5903
 1889TIP3    H229863   3.603   0.362   9.341 -0.2658 -1.0317  1.0166
 1890TIP3   OH229864   0.582   3.617   7.959 -0.1444  0.7848  0.3379
 1890TIP3    H129865   0.643   3.579   8.023 -1.6555  0.0659  1.4058
 1890TIP3    H229866   0.571   3.548   7.894 -0.4112  0.6131  0.5628
 1891TIP3   OH229867   7.641   0.536   7.564  0.0428 -0.3957 -0.5231
 1891TIP3    H129868   7.621   0.443   7.555  0.8428 -0.6184 -0.0541
 1891TIP3    H229869   7.610   0.559   7.651  0.0654 -0.2773 -0.5463
 1892TIP3   OH229870   3.427   4.623   7.764 -0.3171  0.0372  0.0344
 1892TIP3    H129871   3.457   4.582   7.683 -0.2169 -0.2920  0.2368
 1892TIP3    H229872   3.479   4.582   7.833  0.3084  1.0211  0.1736
 1893TIP3   OH229873   0.168   2.976   8.173  0.4187  0.1699 -0.3410
 1893TIP3    H129874   0.228   2.925   8.118 -1.0945 -1.2189 -0.7972
 1893TIP3    H229875   0.215   2.986   8.256  1.0885 -1.3227 -0.5068
 1894TIP3   OH229876   3.680   4.954   9.673  0.7488 -0.1448  0.0496
 1894TIP3    H129877   3.682   5.045   9.642  0.6003 -0.5417 -1.1698
 1894TIP3    H229878   3.769   4.937   9.702  0.5895  0.6391  1.0639
 1895TIP3   OH229879   6.012   1.601   7.158 -0.0674  0.3319 -0.0704
 1895TIP3    H129880   6.046   1.526   7.109  1.5482  0.1327  1.2616
 1895TIP3    H229881   6.053   1.677   7.117  0.9280  0.1978  0.6278
 1896TIP3   OH229882   5.426   2.142   8.107 -0.1701 -0.1010  0.4924
 1896TIP3    H129883   5.517   2.120   8.089  0.1101 -0.3502  2.1306
 1896TIP3    H229884   5.395   2.182   8.025  1.5709  0.5683  0.1120
 1897TIP3   OH229885   4.529   7.612   8.860 -0.1880 -0.2056 -0.0721
 1897TIP3    H129886   4.457   7.600   8.799 -2.2109  0.3797  2.0339
 1897TIP3    H229887   4.541   7.526   8.900  0.7251 -0.4477 -0.8465
 1898TIP3   OH229888   0.020   5.891   9.516 -0.3848 -0.1978  0.4857
 1898TIP3    H129889   0.099   5.870   9.466  0.4796 -0.9713  2.1015
 1898TIP3    H229890  -0.026   5.807   9.523 -1.1618  0.1686 -0.0935
 1899TIP3   OH229891   6.643   3.513   8.187  0.2719  0.1177 -0.3259
 1899TIP3    H129892   6.702   3.588   8.194 -0.2076  0.4132  0.7329
 1899TIP3    H229893   6.603   3.506   8.273 -0.7150 -0.5087 -0.8176
 1900TIP3   OH229894   4.189   2.033   7.440 -0.0248 -0.0804  0.3117
 1900TIP3    H129895   4.144   1.951   7.419 -2.0932  0.8280  0.9721
 1900TIP3    H229896   4.256   2.008   7.504  1.1953 -1.6276 -1.4570
 1901TIP3   OH229897   1.818   7.327   8.283 -0.3594 -0.2213 -0.0464
 1901TIP3    H129898   1.895   7.306   8.335 -1.5313 -0.0806  1.8374
 1901TIP3    H229899   1.853   7.363   8.202  1.5468 -1.0083  0.3775
 1902TIP3   OH229900   7.432   0.412   7.804  0.0661  0.5721 -0.7531
 1902TIP3    H129901   7.469   0.332   7.766 -1.0127 -1.4456  2.0240
 1902TIP3    H229902   7.508   0.459   7.838  0.8178  1.3390 -3.2624
 1903TIP3   OH229903   6.319   0.491   7.007  0.9468 -0.1278  0.1790
 1903TIP3    H129904   6.294   0.480   6.916 -1.5535  0.9520  0.6591
 1903TIP3    H229905   6.359   0.577   7.012 -0.6393  0.6448  0.3531
 1904TIP3   OH229906   6.225   4.274   8.943 -0.4640  0.2846 -0.2606
 1904TIP3    H129907   6.137   4.256   8.907 -0.4113 -3.2203  0.9070
 1904TIP3    H229908   6.208   4.309   9.031 -0.6729  0.6731 -0.4529
 1905TIP3   OH229909   7.565   1.520   8.745 -0.2382 -0.0748  0.5532
 1905TIP3    H129910   7.516   1.550   8.669 -0.5779  2.2895  1.6215
 1905TIP3    H229911   7.577   1.426   8.731 -2.8922 -0.2676 -0.9511
 1906TIP3   OH229912   6.934   6.928   7.076  0.3353  0.0719 -0.6479
 1906TIP3    H129913   6.930   6.862   7.006 -0.7723  0.1063 -0.6319
 1906TIP3    H229914   6.871   6.897   7.142  0.3772  0.7433 -0.2857
 1907TIP3   OH229915   1.479   2.963   7.721 -0.0278  0.0080 -0.1111
 1907TIP3    H129916   1.529   2.911   7.783 -1.1613  0.0120  0.8269
 1907TIP3    H229917   1.447   3.038   7.772 -1.0915 -0.0612 -0.6496
 1908TIP3   OH229918   7.152   0.501   9.093 -0.0678  0.0721 -0.0859
 1908TIP3    H129919   7.141   0.546   9.009 -2.0456  0.9629  0.5939
 1908TIP3    H229920   7.246   0.502   9.108  0.3235  0.0342 -2.2026
 1909TIP3   OH229921   1.177   1.760   8.381 -0.4815 -0.1341 -0.4769
 1909TIP3    H129922   1.097   1.709   8.363  0.2030 -0.8996 -1.4342
 1909TIP3    H229923   1.248   1.699   8.363  0.3371 -0.0188  2.0322
 1910TIP3   OH229924   7.302   6.594   7.462  0.3210  0.2006  0.0762
 1910TIP3    H129925   7.275   6.518   7.514  1.5389 -0.2489  0.0772
 1910TIP3    H229926   7.335   6.556   7.380  1.0340  0.7270  0.1148
 1911TIP3   OH229927   4.251   0.640   8.098 -0.4337 -0.0010  0.6718
 1911TIP3    H129928   4.286   0.551   8.088  1.2567  0.4304  2.1002
 1911TIP3    H229929   4.156   0.630   8.095 -0.2620 -1.7487  0.1156
 1912TIP3   OH229930   2.478   5.289   6.939 -0.2239 -0.6306 -0.2580
 1912TIP3    H129931   2.553   5.242   6.902 -0.5207 -1.8254  0.6126
 1912TIP3    H229932   2.505   5.311   7.028 -0.5314 -0.1637 -0.2749
 1913TIP3   OH229933   6.667   0.944   8.869 -0.0155 -0.5507 -0.6019
 1913TIP3    H129934   6.608   0.984   8.932  0.2799  0.8253 -1.1702
 1913TIP3    H229935   6.616   0.873   8.830 -1.0648  0.2006 -0.6300
 1914TIP3   OH229936   3.304   5.100   8.695  0.4253 -0.1897 -0.2917
 1914TIP3    H129937   3.365   5.108   8.621 -0.4810 -0.3964 -1.0774
 1914TIP3    H229938   3.306   5.186   8.736  1.1407 -0.1497 -0.3893
 1915TIP3   OH229939   4.399   4.972   7.291  0.1853 -0.2458  0.1699
 1915TIP3    H129940   4.487   4.937   7.303  1.1808  1.7839 -0.6956
 1915TIP3    H229941   4.413   5.062   7.260 -2.1959  0.1298 -0.0086
 1916TIP3   OH229942   2.220   6.461   7.482 -0.0502  0.0626  0.2181
 1916TIP3    H129943   2.197   6.368   7.473  0.1352  0.0603 -0.2881
 1916TIP3    H229944   2.141   6.502   7.515  0.6064 -0.6775  2.9823
 1917TIP3   OH229945   1.446   6.853   7.603 -0.3819  0.0114 -0.0723
 1917TIP3    H129946   1.358   6.815   7.597  0.3118 -1.6554 -0.3303
 1917TIP3    H229947   1.478   6.826   7.689  0.3046 -0.3875 -0.4452
 1918TIP3   OH229948   2.997   3.955   6.771  0.3045 -0.0759 -0.3119
 1918TIP3    H129949   3.091   3.969   6.783 -0.2249  2.6088  1.7447
 1918TIP3    H229950   2.982   3.865   6.799  2.0662 -0.0405  0.8649
 1919TIP3   OH229951   0.405   6.799   8.488  0.1079  0.6061 -0.4147
 1919TIP3    H129952   0.395   6.888   8.453 -1.8488  0.4327 -0.3960
 1919TIP3    H229953   0.482   6.765   8.444  0.2968  1.9624 -1.1948
 1920TIP3   OH229954   3.780   2.215   9.271 -0.7418 -0.1834 -0.2345
 1920TIP3    H129955   3.699   2.261   9.295 -0.4063  0.7301 -0.8028
 1920TIP3    H229956   3.813   2.264   9.196  0.3752 -0.5162  0.0338
 1921TIP3   OH229957   6.774   1.367   6.739  0.2219  0.5147  0.4195
 1921TIP3    H129958   6.707   1.353   6.672  1.3946  0.0480 -0.7155
 1921TIP3    H229959   6.857   1.354   6.692  1.1025 -2.7255  2.5208
 1922TIP3   OH229960   7.157   5.841   7.273  0.5556  0.4810 -0.1235
 1922TIP3    H129961   7.218   5.800   7.212  0.2861 -2.1897  1.2654
 1922TIP3    H229962   7.208   5.852   7.353 -0.2975 -0.1726  0.5183
 1923TIP3   OH229963   3.930   7.078   8.579 -0.9015 -0.2564 -0.4748
 1923TIP3    H129964   3.952   6.985   8.593 -1.0167  0.0133  2.0358
 1923TIP3    H229965   3.979   7.103   8.501 -0.4832 -2.2922 -0.9340
 1924TIP3   OH229966   6.537   0.279   9.075 -0.0116 -0.0371 -0.4513
 1924TIP3    H129967   6.621   0.252   9.037 -0.2973  1.5612 -2.3692
 1924TIP3    H229968   6.489   0.197   9.086  1.3972 -0.8797 -0.3214
 1925TIP3   OH229969   2.508   6.027   9.103 -0.2283  0.1114  0.6919
 1925TIP3    H129970   2.417   6.039   9.076 -0.3188 -1.6558  0.1174
 1925TIP3    H229971   2.559   6.065   9.031 -0.5164 -1.5671 -0.4748
 1926TIP3   OH229972   0.336   6.299   8.421 -0.5226 -0.0934  0.1007
 1926TIP3    H129973   0.377   6.291   8.335  0.5802 -0.8488  0.6738
 1926TIP3    H229974   0.305   6.390   8.425  3.3393  1.3824  0.5749
 1927TIP3   OH229975   6.841   4.296   8.414  0.5797  0.1970 -0.7776
 1927TIP3    H129976   6.776   4.357   8.449  0.7175  1.4895 -2.6102
 1927TIP3    H229977   6.795   4.247   8.346  1.1595  0.1404 -1.1392
 1928TIP3   OH229978   0.053   4.966   6.831 -0.1940  0.4188 -0.2539
 1928TIP3    H129979   0.131   5.020   6.815  0.4477 -0.3103  0.3534
 1928TIP3    H229980   0.087   4.886   6.869 -1.3004  0.2830  0.4836
 1929TIP3   OH229981   5.524   5.628   7.544  0.3798  0.1771 -0.1032
 1929TIP3    H129982   5.523   5.698   7.611  0.0543  0.6572 -0.5989
 1929TIP3    H229983   5.533   5.675   7.461  3.1008 -0.5055 -0.3073
 1930TIP3   OH229984   2.006   2.344   8.985 -0.9514 -0.0543 -0.0800
 1930TIP3    H129985   1.915   2.338   8.956 -1.4676  0.0994  1.3941
 1930TIP3    H229986   2.000   2.344   9.081  0.5818  0.2798  0.0388
 1931TIP3   OH229987   3.818   0.103   7.688 -0.0424  0.2722 -0.0623
 1931TIP3    H129988   3.738   0.133   7.645 -0.6687 -0.8885  0.2426
 1931TIP3    H229989   3.819   0.008   7.673 -0.6262 -0.3193  2.9454
 1932TIP3   OH229990   7.644   1.779   7.286  0.0374 -0.1537 -0.4299
 1932TIP3    H129991   7.683   1.763   7.200  0.9987  1.7457 -0.3868
 1932TIP3    H229992   7.693   1.723   7.346  1.5297  0.8690 -0.6548
 1933TIP3   OH229993   3.092   4.054   7.826  0.2621 -0.1348  0.0908
 1933TIP3    H129994   3.108   3.960   7.810  1.6416  0.3381 -1.7703
 1933TIP3    H229995   3.179   4.094   7.816 -0.0919  1.2413  2.0439
 1934TIP3   OH229996   3.117   5.902   8.078  0.3196  0.1681 -0.3886
 1934TIP3    H129997   3.058   5.870   8.146  0.3005  0.2704 -0.3573
 1934TIP3    H229998   3.163   5.976   8.118 -1.2014  1.6062 -1.1453
 1935TIP3   OH229999   3.630   1.814   7.070  0.4035  0.4310  0.2261
 1935TIP3    H130000   3.669   1.901   7.069  1.0825  0.1370  0.5904
 1935TIP3    H230001   3.561   1.818   7.003 -1.5766  2.1465  2.2069
 1936TIP3   OH230002   5.441   6.989   8.928  0.5653 -0.2413 -0.3625
 1936TIP3    H130003   5.396   6.936   8.995  0.8729  0.2130  0.2185
 1936TIP3    H230004   5.455   6.929   8.855 -1.4253 -0.2667 -0.7763
 1937TIP3   OH230005   5.588   4.435   8.773 -0.0878 -0.1197 -0.6862
 1937TIP3    H130006   5.531   4.372   8.728 -0.8714  0.0429  0.0523
 1937TIP3    H230007   5.528   4.500   8.810  0.3769 -0.8852  1.6086
 1938TIP3   OH230008   1.967   6.357   8.953 -0.2056 -0.1958  0.1456
 1938TIP3    H130009   1.929   6.445   8.952  0.9534  0.3289 -1.6602
 1938TIP3    H230010   1.950   6.322   8.866 -0.7470 -1.8429  0.8714
 1939TIP3   OH230011   1.737   1.990   9.007  0.4552 -0.3737 -0.3125
 1939TIP3    H130012   1.779   2.005   9.092  0.5620 -0.8061 -0.2873
 1939TIP3    H230013   1.675   1.919   9.022 -1.0443  0.9290 -0.1159
 1940TIP3   OH230014   6.000   0.978   7.273  0.0883 -0.1239 -0.6094
 1940TIP3    H130015   5.982   1.023   7.190  0.8352 -0.6323 -1.0561
 1940TIP3    H230016   6.083   1.016   7.303  0.5658 -0.9696 -0.8335
 1941TIP3   OH230017   7.438   4.008   7.113  0.6204 -0.2508  0.0103
 1941TIP3    H130018   7.503   3.938   7.123  1.6294  0.8900  2.0293
 1941TIP3    H230019   7.386   4.004   7.193 -0.1128  0.5481 -0.4089
 1942TIP3   OH230020   0.152   5.926   7.777  0.8720 -0.3383 -0.4043
 1942TIP3    H130021   0.188   5.871   7.846 -1.0515  1.9994  2.7185
 1942TIP3    H230022   0.061   5.899   7.769  1.0773 -0.6609 -2.2448
 1943TIP3   OH230023   1.882   2.848   8.026  0.7559 -0.2720  0.7217
 1943TIP3    H130024   1.977   2.842   8.024  0.9880  2.2097  0.1686
 1943TIP3    H230025   1.852   2.781   7.965  2.2903  0.3755 -0.8267
 1944TIP3   OH230026   7.121   3.836   8.176 -0.5826  0.1445  0.0236
 1944TIP3    H130027   7.135   3.884   8.094 -0.5665 -0.2951 -0.2383
 1944TIP3    H230028   7.179   3.760   8.168 -0.2648  0.3138  0.6285
 1945TIP3   OH230029   2.211   3.121   9.492 -0.0703  0.6042  1.3504
 1945TIP3    H130030   2.174   3.193   9.441 -0.5778 -0.4303  0.1892
 1945TIP3    H230031   2.172   3.131   9.579 -2.9757 -0.2430  0.2915
 1946TIP3   OH230032   0.312   1.662   8.033 -0.7863 -0.0064 -0.0962
 1946TIP3    H130033   0.362   1.583   8.053 -0.6394  0.0625 -0.1923
 1946TIP3    H230034   0.305   1.708   8.117  0.6771  0.7727 -0.3754
 1947TIP3   OH230035   3.763   6.769   8.420  0.2436  0.3410 -0.1750
 1947TIP3    H130036   3.693   6.746   8.482  0.3032 -1.5888 -0.7545
 1947TIP3    H230037   3.844   6.751   8.467  0.3307  0.9454 -0.0882
 1948TIP3   OH230038   3.527   5.663   8.801 -0.4622 -0.1721  0.3849
 1948TIP3    H130039   3.455   5.617   8.844  0.0199 -1.0476  0.2741
 1948TIP3    H230040   3.484   5.733   8.751 -1.1247  0.0821  1.2802
 1949TIP3   OH230041   5.619   4.792   8.823  0.1836  0.0135  0.6794
 1949TIP3    H130042   5.635   4.735   8.748  0.5723 -0.2253  0.9442
 1949TIP3    H230043   5.554   4.855   8.791  1.8238  1.1943 -0.5156
 1950TIP3   OH230044   6.530   0.534   9.312  0.2124  0.1145  0.5247
 1950TIP3    H130045   6.620   0.514   9.338  0.4172 -0.9762 -0.8628
 1950TIP3    H230046   6.487   0.449   9.308 -0.1007  0.3163 -1.4486
 1951TIP3   OH230047   0.363   5.566   7.091  0.0563 -0.3014  0.2463
 1951TIP3    H130048   0.357   5.598   7.181  1.5813  0.4230  0.1062
 1951TIP3    H230049   0.272   5.562   7.061 -0.3865  0.5627  1.4201
 1952TIP3   OH230050   0.445   0.240   7.856 -0.2118 -0.5433  0.8039
 1952TIP3    H130051   0.450   0.159   7.907  2.0701  0.0444  1.6317
 1952TIP3    H230052   0.444   0.309   7.922 -0.2746  0.1500  0.0846
 1953TIP3   OH230053   2.596   0.585   7.289 -0.3514  0.0945 -0.2194
 1953TIP3    H130054   2.538   0.661   7.295 -0.6722 -0.1953  0.4790
 1953TIP3    H230055   2.680   0.621   7.262 -1.1025  0.4034 -2.3170
 1954TIP3   OH230056   3.916   2.374   9.056  0.5261  0.2260  0.0619
 1954TIP3    H130057   3.864   2.403   8.981  2.0219  2.5058 -0.1849
 1954TIP3    H230058   3.914   2.449   9.116  3.5544  0.4600 -0.0072
 1955TIP3   OH230059   3.235   4.060   8.446 -0.7816 -0.7682 -0.5041
 1955TIP3    H130060   3.172   4.009   8.394 -0.9185  0.7854 -1.9726
 1955TIP3    H230061   3.316   4.056   8.395 -0.2949 -0.9603  0.2732
 1956TIP3   OH230062   0.637   2.838   7.896 -0.0399  0.1907  0.0653
 1956TIP3    H130063   0.701   2.771   7.872 -0.3024  0.6104 -1.9695
 1956TIP3    H230064   0.674   2.920   7.864 -0.4167  0.8216  1.1802
 1957TIP3   OH230065   3.463   5.525   9.543  0.2388 -0.0884  0.2111
 1957TIP3    H130066   3.530   5.575   9.496  1.4276 -1.6503  0.1755
 1957TIP3    H230067   3.505   5.500   9.625 -1.7797  2.5682  2.2400
 1958TIP3   OH230068   3.476   4.522   9.628 -0.1545 -0.0010 -0.6576
 1958TIP3    H130069   3.497   4.615   9.616  0.9992  0.1683  1.9404
 1958TIP3    H230070   3.382   4.517   9.610 -0.5128  1.9519  0.3410
 1959TIP3   OH230071   2.271   1.507   7.883 -0.0297 -0.0460 -0.0400
 1959TIP3    H130072   2.193   1.561   7.873  1.4171  2.3966  1.0755
 1959TIP3    H230073   2.321   1.523   7.803 -0.0548 -0.6177 -0.1772
 1960TIP3   OH230074   5.621   3.371   7.478 -0.1263  0.5075 -0.0176
 1960TIP3    H130075   5.711   3.349   7.504  0.2223  1.8215 -0.0266
 1960TIP3    H230076   5.568   3.349   7.555  0.2438 -0.0123  0.0933
 1961TIP3   OH230077   4.721   6.652   9.423  0.2666  0.1868 -0.2489
 1961TIP3    H130078   4.719   6.632   9.330 -0.8597  2.6469 -0.8401
 1961TIP3    H230079   4.630   6.653   9.450  0.6113 -1.4227  1.1675
 1962TIP3   OH230080   0.452   3.588   8.506 -0.9762  0.6283 -0.0267
 1962TIP3    H130081   0.544   3.607   8.487 -0.6201 -1.3662 -0.4739
 1962TIP3    H230082   0.416   3.672   8.534  1.5113  1.0742  2.3736
 1963TIP3   OH230083   2.613   5.451   8.888 -0.0049  0.0130 -0.6416
 1963TIP3    H130084   2.662   5.398   8.826  0.5048 -0.6069  0.2714
 1963TIP3    H230085   2.533   5.401   8.906  0.6243 -0.6362  0.4662
 1964TIP3   OH230086   5.246   6.970   7.067  0.4127 -0.7886  0.2816
 1964TIP3    H130087   5.180   7.036   7.045  0.9516 -0.2963  0.0933
 1964TIP3    H230088   5.330   7.016   7.056  0.8884 -1.9561 -1.4837
 1965TIP3   OH230089   3.048   0.095   6.961 -0.1483 -0.1795  0.1845
 1965TIP3    H130090   3.051   0.190   6.973 -0.2472 -0.1582  0.0440
 1965TIP3    H230091   2.963   0.068   6.995  0.3374 -0.3715  1.2803
 1966TIP3   OH230092   7.556   5.435   6.925 -0.2180  0.1760 -0.6184
 1966TIP3    H130093   7.495   5.494   6.881 -0.4962 -0.6371 -1.3443
 1966TIP3    H230094   7.632   5.490   6.945 -0.6530  0.8877 -0.8683
 1967TIP3   OH230095   6.526   5.859   8.004 -0.2506 -0.7924  0.0127
 1967TIP3    H130096   6.555   5.873   8.094  1.5678 -0.3151 -0.6091
 1967TIP3    H230097   6.548   5.767   7.986 -1.1430 -1.0595  0.2139
 1968TIP3   OH230098   1.358   6.156   8.545  0.4918 -0.4576 -0.4522
 1968TIP3    H130099   1.383   6.108   8.466 -1.5786 -1.1094 -0.7829
 1968TIP3    H230100   1.389   6.245   8.530 -0.5435 -0.3685 -2.4022
 1969TIP3   OH230101   3.491   3.965   9.425  0.2246 -0.5319  0.0290
 1969TIP3    H130102   3.514   3.980   9.333 -0.3734 -1.1582 -0.2439
 1969TIP3    H230103   3.456   4.048   9.455  0.7247 -0.2285 -0.2155
 1970TIP3   OH230104   6.555   5.631   8.658 -0.2302  0.5872  0.0195
 1970TIP3    H130105   6.504   5.574   8.716 -0.7750  0.8148 -0.2241
 1970TIP3    H230106   6.489   5.685   8.614  0.3546  2.2526  1.1215
 1971TIP3   OH230107   3.601   0.703   8.593  0.4875  0.2821  0.4581
 1971TIP3    H130108   3.627   0.757   8.518  1.0744  1.5720  1.5467
 1971TIP3    H230109   3.657   0.625   8.587  0.1256  0.0955 -0.7430
 1972TIP3   OH230110   7.556   1.118   7.200  0.1553 -0.0612 -0.2994
 1972TIP3    H130111   7.497   1.132   7.274 -0.8651 -1.9909 -0.6793
 1972TIP3    H230112   7.549   1.198   7.149 -2.6896 -0.4291 -0.6489
 1973TIP3   OH230113   2.366   3.846   6.965 -0.2165 -0.4198 -0.3533
 1973TIP3    H130114   2.372   3.922   7.024  0.0932 -2.0605  1.8433
 1973TIP3    H230115   2.391   3.881   6.880  2.3353  1.4841  1.0250
 1974TIP3   OH230116   0.832   5.807   7.414  0.1485 -0.6205  0.3918
 1974TIP3    H130117   0.869   5.724   7.442 -1.5953 -1.9226 -0.9189
 1974TIP3    H230118   0.738   5.791   7.408 -0.1989  1.3290 -0.2826
 1975TIP3   OH230119   6.049   3.030   8.042  0.3624  0.2884  0.2509
 1975TIP3    H130120   6.048   3.101   7.977 -2.2268  1.2079  1.1417
 1975TIP3    H230121   6.078   3.071   8.123 -2.2213  0.7339  1.0476
 1976TIP3   OH230122   2.764   5.869   9.048 -0.0931 -0.0620 -0.6369
 1976TIP3    H130123   2.687   5.846   9.101  1.4741 -2.5336  0.7754
 1976TIP3    H230124   2.753   5.818   8.968 -0.0487 -0.2456 -0.5280
 1977TIP3   OH230125   4.998   7.358   8.211  0.2722  0.0103  0.1932
 1977TIP3    H130126   5.084   7.337   8.175 -0.6871  1.6455 -3.5484
 1977TIP3    H230127   5.002   7.452   8.228 -1.0330  0.2959 -0.9448
 1978TIP3   OH230128   6.245   3.630   8.573 -0.3279  0.4835 -0.3217
 1978TIP3    H130129   6.233   3.697   8.641 -1.0168  0.5985 -0.5551
 1978TIP3    H230130   6.303   3.565   8.614  1.9323  2.1186 -0.7191
 1979TIP3   OH230131   0.882   6.765   9.289 -0.0025 -0.3129 -0.5253
 1979TIP3    H130132   0.882   6.860   9.301 -0.1226 -0.6037  2.4763
 1979TIP3    H230133   0.903   6.730   9.375 -2.5979 -3.0799 -0.8625
 1980TIP3   OH230134   4.523   1.446   7.071 -0.4230  0.0794 -0.2502
 1980TIP3    H130135   4.458   1.412   7.133  0.9881 -0.7436  0.8356
 1980TIP3    H230136   4.525   1.540   7.089 -0.5862 -0.0394  0.4344
 1981TIP3   OH230137   5.324   0.282   6.988 -0.1767 -0.0950 -0.3812
 1981TIP3    H130138   5.333   0.359   7.043 -1.8852 -0.5088  0.5253
 1981TIP3    H230139   5.236   0.289   6.950  0.8180  0.0444 -2.9100
 1982TIP3   OH230140   1.210   4.417   7.294 -0.2462  0.3561 -0.4453
 1982TIP3    H130141   1.173   4.397   7.380 -3.1227 -0.6214 -1.7910
 1982TIP3    H230142   1.199   4.511   7.284 -1.3244  0.2649 -0.2911
 1983TIP3   OH230143   0.829   5.154   6.872 -0.3583  0.0253  0.4514
 1983TIP3    H130144   0.907   5.154   6.817  0.1859 -1.4704  1.1818
 1983TIP3    H230145   0.765   5.103   6.823  0.4882 -2.2830  1.6127
 1984TIP3   OH230146   2.442   0.801   8.657 -0.3755  0.5711  0.0008
 1984TIP3    H130147   2.460   0.834   8.745 -1.9377  0.4909  0.3905
 1984TIP3    H230148   2.346   0.807   8.649 -0.3856 -0.7339 -1.1687
 1985TIP3   OH230149   5.906   4.438   8.488 -0.0610 -0.4710 -0.6709
 1985TIP3    H130150   5.997   4.469   8.482 -0.3746  1.2438  1.9690
 1985TIP3    H230151   5.912   4.356   8.538 -0.0065  0.0089  0.1216
 1986TIP3   OH230152   1.864   2.239   7.492  0.6548  0.2401  0.3196
 1986TIP3    H130153   1.918   2.262   7.568 -0.0605  1.1415  0.5640
 1986TIP3    H230154   1.926   2.235   7.420  1.1646  0.5502  0.7311
 1987TIP3   OH230155   4.502   6.629   8.450 -0.0264  0.1833 -0.4784
 1987TIP3    H130156   4.411   6.645   8.426 -0.2159  0.7701  0.5711
 1987TIP3    H230157   4.545   6.714   8.436  0.1670  0.1394 -0.1664
 1988TIP3   OH230158   5.760   1.344   8.711  0.1382 -0.8776 -0.5289
 1988TIP3    H130159   5.696   1.413   8.695  1.6955  1.1193  1.2912
 1988TIP3    H230160   5.718   1.287   8.776  0.6665  1.2905  1.8670
 1989TIP3   OH230161   3.822   3.838   8.053 -0.2868 -0.8226  0.8505
 1989TIP3    H130162   3.824   3.820   7.959  1.1440  0.8937  0.5099
 1989TIP3    H230163   3.907   3.877   8.073 -1.2157  0.5002  2.5025
 1990TIP3   OH230164   3.588   5.084   8.040  0.5254 -0.3385 -0.6254
 1990TIP3    H130165   3.567   5.025   7.968 -2.3942  0.8776 -0.9091
 1990TIP3    H230166   3.562   5.036   8.119 -1.5991  0.3858 -0.8372
 1991TIP3   OH230167   1.439   5.929   7.946  0.1830  0.1434 -0.3561
 1991TIP3    H130168   1.518   5.981   7.932 -0.0593  0.3168 -1.1657
 1991TIP3    H230169   1.398   5.968   8.023  1.1803 -0.3220  0.4279
 1992TIP3   OH230170   2.129   1.447   7.173  0.4652 -0.3125  0.4908
 1992TIP3    H130171   2.034   1.455   7.167  0.4696 -0.4907  0.1749
 1992TIP3    H230172   2.153   1.389   7.101  0.6904 -1.2206  1.2689
 1993TIP3   OH230173   6.334   0.080   8.573 -0.2153  0.4072  0.2480
 1993TIP3    H130174   6.375  -0.006   8.563  1.1054  0.9365  0.8203
 1993TIP3    H230175   6.266   0.083   8.506  2.5928  0.5899 -2.8278
 1994TIP3   OH230176   2.300   4.198   9.268  0.2799 -0.3088  0.1950
 1994TIP3    H130177   2.346   4.258   9.326 -1.2248 -0.1350  1.2587
 1994TIP3    H230178   2.221   4.245   9.241 -0.1423 -1.2137 -0.2067
 1995TIP3   OH230179   0.237   6.295   9.171  0.2939  0.1855 -0.2768
 1995TIP3    H130180   0.243   6.206   9.207 -0.7336 -0.1067 -0.7772
 1995TIP3    H230181   0.322   6.334   9.190  0.9633 -1.0846 -0.5189
 1996TIP3   OH230182   7.619   7.276   7.714 -0.4807  0.1368  0.0601
 1996TIP3    H130183   7.638   7.325   7.794 -0.0072  0.4423 -0.2290
 1996TIP3    H230184   7.659   7.190   7.728  0.0784  0.3714 -0.0561
 1997TIP3   OH230185   0.296   1.324   7.644  0.1398 -0.2268 -0.8450
 1997TIP3    H130186   0.203   1.303   7.652  0.3169 -1.2321 -1.2720
 1997TIP3    H230187   0.311   1.330   7.550  0.7046 -1.0242 -0.8130
 1998TIP3   OH230188   6.622   5.485   9.220  0.6299 -0.1702 -0.4068
 1998TIP3    H130189   6.714   5.460   9.224  0.6082 -0.0992  0.6586
 1998TIP3    H230190   6.615   5.560   9.279 -0.3857 -1.0354  0.6041
 1999TIP3   OH230191   0.275   6.251   6.596  0.1377  0.3243 -0.5313
 1999TIP3    H130192   0.234   6.177   6.551 -1.3961 -1.1187  2.8273
 1999TIP3    H230193   0.350   6.213   6.642 -0.6564  0.7390  1.2196
 2000TIP3   OH230194   5.772   3.591   7.624 -0.5078  0.6393  0.1466
 2000TIP3    H130195   5.750   3.526   7.556 -0.0282  0.1540  0.4474
 2000TIP3    H230196   5.816   3.661   7.577  2.1972 -0.8480  0.2426
 2001TIP3   OH230197   6.525   0.987   7.249 -0.3438  0.0611 -0.4493
 2001TIP3    H130198   6.594   0.920   7.251  0.3481  0.6482 -2.3446
 2001TIP3    H230199   6.573   1.070   7.255 -1.0463  0.4333  0.0412
 2002TIP3   OH230200   7.633   6.364   7.999 -0.0976  0.6462 -0.1784
 2002TIP3    H130201   7.629   6.269   8.013  2.2019  0.6378  0.9585
 2002TIP3    H230202   7.664   6.399   8.082 -0.3849  2.3635 -0.7513
 2003TIP3   OH230203   4.794   6.392   9.523 -0.6160 -0.1705  0.0504
 2003TIP3    H130204   4.813   6.483   9.498  0.9919 -0.4681  0.0667
 2003TIP3    H230205   4.733   6.400   9.595  1.7025  1.0892  2.0445
 2004TIP3   OH230206   3.005   4.330   8.679  0.0605 -0.2849  0.7006
 2004TIP3    H130207   2.941   4.395   8.650 -0.6863 -1.1413  0.3958
 2004TIP3    H230208   3.079   4.340   8.618 -0.2160 -0.0027  0.4067
 2005TIP3   OH230209   2.640   3.137   8.294  0.0830  0.1970  0.3952
 2005TIP3    H130210   2.723   3.184   8.304 -0.2427  0.6356  1.1065
 2005TIP3    H230211   2.661   3.047   8.317  0.2523  0.4143  1.1264
 2006TIP3   OH230212   3.930   1.303   8.809  0.1453 -0.6348  0.2668
 2006TIP3    H130213   3.909   1.283   8.900 -1.5276  0.8980  0.2659
 2006TIP3    H230214   3.845   1.320   8.768  1.0086  0.5825 -1.0993
 2007TIP3   OH230215   4.322   3.311   7.402 -0.2316 -0.4252 -0.4728
 2007TIP3    H130216   4.385   3.383   7.407 -0.3811 -0.2895 -0.5272
 2007TIP3    H230217   4.372   3.234   7.428  0.5440 -0.6866 -2.5219
 2008TIP3   OH230218   0.989   5.896   8.072  0.1099 -0.2006 -0.0099
 2008TIP3    H130219   1.040   5.872   8.149  0.3151  0.7027  0.1500
 2008TIP3    H230220   1.017   5.834   8.004  0.8190 -0.2327  0.3051
 2009TIP3   OH230221   5.506   6.327   8.412 -0.2771  0.8806  0.2253
 2009TIP3    H130222   5.463   6.300   8.493 -0.2062  0.4519  0.1247
 2009TIP3    H230223   5.600   6.326   8.433 -0.2393  0.4524  0.0499
 2010TIP3   OH230224   5.027   0.317   9.210 -0.1079 -0.0741  0.0768
 2010TIP3    H130225   5.111   0.274   9.193  0.6903  0.7989  1.6074
 2010TIP3    H230226   4.964   0.271   9.154  0.8737 -2.5574  0.9130
 2011TIP3   OH230227   2.462   7.244   7.925 -0.0125 -0.0617  0.6138
 2011TIP3    H130228   2.491   7.305   7.856  0.5477 -0.5219  0.4321
 2011TIP3    H230229   2.369   7.263   7.936 -0.0961  0.0704 -0.2244
 2012TIP3   OH230230   5.659   2.504   9.351  0.1722  0.0614 -0.1420
 2012TIP3    H130231   5.693   2.538   9.268 -0.7603 -2.7908 -1.8527
 2012TIP3    H230232   5.720   2.536   9.417  2.0551  0.9017 -2.1666
 2013TIP3   OH230233   3.665   7.150   9.084 -0.1199 -0.7114 -0.6799
 2013TIP3    H130234   3.666   7.242   9.058 -1.0668 -0.8322 -1.1750
 2013TIP3    H230235   3.605   7.147   9.158 -0.1680 -0.9492 -0.7291
 2014TIP3   OH230236   0.708   4.221   9.204  0.4887  0.2515 -0.5099
 2014TIP3    H130237   0.784   4.173   9.172  1.8051  1.2242  0.9787
 2014TIP3    H230238   0.647   4.223   9.130  1.3445 -1.6553 -1.3391
 2015TIP3   OH230239   7.623   4.272   7.205  0.3287  0.2845  0.2788
 2015TIP3    H130240   7.588   4.184   7.221 -0.6441  0.7558  0.9016
 2015TIP3    H230241   7.626   4.281   7.110  0.0725 -0.2970  0.2146
 2016TIP3   OH230242   6.173   5.826   7.370 -0.2348 -0.0586  0.8690
 2016TIP3    H130243   6.128   5.867   7.296  2.4941  1.3744 -0.1089
 2016TIP3    H230244   6.137   5.738   7.374 -1.6679  0.3834 -1.0724
 2017TIP3   OH230245   5.301   3.518   9.107  0.4098 -0.3135 -0.3644
 2017TIP3    H130246   5.222   3.488   9.062 -0.6822  1.4417  0.2687
 2017TIP3    H230247   5.354   3.558   9.038  0.2344 -0.5151 -0.6173
 2018TIP3   OH230248   1.312   5.812   8.531  0.0856  0.4024 -0.4295
 2018TIP3    H130249   1.373   5.738   8.538  1.1314  1.3753  2.6770
 2018TIP3    H230250   1.226   5.774   8.546  0.7381 -0.1587  2.6623
 2019TIP3   OH230251   3.510   2.009   9.215 -0.0635 -0.1181  0.5221
 2019TIP3    H130252   3.467   1.925   9.228 -1.0447  0.4507  1.1240
 2019TIP3    H230253   3.603   1.988   9.205 -0.2085 -1.2196  1.3212
 2020TIP3   OH230254   3.405   5.799   8.130  0.2747 -0.2280 -0.5106
 2020TIP3    H130255   3.311   5.806   8.112  0.1824  2.1141  0.5159
 2020TIP3    H230256   3.414   5.720   8.183 -1.6590  1.1664  2.1285
 2021TIP3   OH230257   1.134   4.200   8.479 -0.1285 -0.3556  0.5470
 2021TIP3    H130258   1.169   4.286   8.501  0.5068  0.0088 -1.5854
 2021TIP3    H230259   1.209   4.141   8.489 -0.1953 -0.4218  0.6605
 2022TIP3   OH230260   2.269   3.465   7.657 -0.1356  0.2214 -0.2506
 2022TIP3    H130261   2.203   3.492   7.720 -0.0931  1.5598 -0.7486
 2022TIP3    H230262   2.219   3.443   7.578 -0.1755 -1.2856  0.1588
 2023TIP3   OH230263   2.134   1.148   7.107 -0.2932 -0.0905  0.6067
 2023TIP3    H130264   2.218   1.109   7.131 -0.6621 -2.3051 -1.3194
 2023TIP3    H230265   2.155   1.204   7.032 -0.5906 -1.2242 -0.3520
 2024TIP3   OH230266   3.057   0.449   6.706  0.2589  0.4186 -0.0792
 2024TIP3    H130267   3.035   0.484   6.793  1.1089 -1.6922  1.0594
 2024TIP3    H230268   3.149   0.423   6.714 -0.3315 -2.1010 -0.7724
 2025TIP3   OH230269   6.476   7.304   7.901  0.0349 -0.2569 -0.4786
 2025TIP3    H130270   6.484   7.211   7.876  0.0938 -0.8071  1.4509
 2025TIP3    H230271   6.566   7.338   7.895  0.4154 -0.9315  0.9022
 2026TIP3   OH230272   1.795   2.081   8.758  0.4101 -0.4193  0.0824
 2026TIP3    H130273   1.720   2.046   8.709  1.3049  0.0467 -1.7229
 2026TIP3    H230274   1.787   2.043   8.845 -2.7222  0.7142  0.4198
 2027TIP3   OH230275   5.489   3.539   8.018  0.4529  0.0174 -0.2175
 2027TIP3    H130276   5.584   3.548   8.030  0.3807  0.4928 -0.0193
 2027TIP3    H230277   5.464   3.470   8.079  0.3427  1.3125  1.2383
 2028TIP3   OH230278   1.693   3.279   8.786 -0.3051 -0.0688 -0.0736
 2028TIP3    H130279   1.697   3.374   8.779 -0.9798 -0.1468 -2.3987
 2028TIP3    H230280   1.648   3.263   8.869  0.2880  1.6014  0.6133
 2029TIP3   OH230281   7.597   0.254   8.586 -0.1128  0.1633  0.5205
 2029TIP3    H130282   7.635   0.219   8.505  1.4661 -1.2453  1.7901
 2029TIP3    H230283   7.509   0.217   8.589  0.1197 -0.4787 -0.1295
 2030TIP3   OH230284   5.427   0.370   8.900 -0.2393 -0.2318  0.4593
 2030TIP3    H130285   5.508   0.358   8.949  0.0365 -1.2990 -0.2089
 2030TIP3    H230286   5.387   0.283   8.898  0.0642 -0.3934 -1.6746
 2031TIP3   OH230287   5.152   6.181   9.046 -0.0156  0.1831  0.2385
 2031TIP3    H130288   5.165   6.105   8.989 -0.3770  0.8597 -0.7677
 2031TIP3    H230289   5.167   6.147   9.135  0.8017 -0.8322 -0.2663
 2032TIP3   OH230290   1.498   7.168   9.062 -0.1624 -0.5877  0.2275
 2032TIP3    H130291   1.552   7.091   9.044 -0.8637 -1.2027  0.6975
 2032TIP3    H230292   1.409   7.135   9.067 -0.2814 -0.1429  2.6353
 2033TIP3   OH230293   1.674   0.724   7.784 -0.2135 -0.7299 -0.1599
 2033TIP3    H130294   1.671   0.629   7.772 -0.1567 -0.6491 -0.8682
 2033TIP3    H230295   1.694   0.759   7.697  1.7065 -0.1590  0.4640
 2034TIP3   OH230296   5.507   5.862   8.297  0.1428 -0.5390  0.9239
 2034TIP3    H130297   5.588   5.893   8.338  0.9234 -1.2987 -0.0029
 2034TIP3    H230298   5.496   5.773   8.331  0.1853 -0.7606  0.3688
 2035TIP3   OH230299   6.422   0.229   7.367  0.4424 -0.1924  1.1860
 2035TIP3    H130300   6.463   0.163   7.423  0.6978 -0.9165  0.1525
 2035TIP3    H230301   6.394   0.181   7.289 -0.2557  0.7383  0.8504
 2036TIP3   OH230302   3.237   3.058   7.760  0.3313 -0.6545 -0.6524
 2036TIP3    H130303   3.176   3.037   7.831 -0.5069  0.0687 -1.1424
 2036TIP3    H230304   3.292   2.980   7.753 -0.5113 -1.3147 -0.1805
 2037TIP3   OH230305   7.666   3.341   9.521  0.2445 -0.0270  0.1179
 2037TIP3    H130306   7.607   3.297   9.582 -0.3716 -0.2083 -0.6019
 2037TIP3    H230307   7.734   3.276   9.503 -0.1283 -0.3435 -0.1747
 2038TIP3   OH230308   3.108   7.316   8.278 -0.6235 -0.1145  0.2413
 2038TIP3    H130309   3.064   7.255   8.337 -0.6785 -0.0311  0.2867
 2038TIP3    H230310   3.180   7.266   8.240  0.1833  0.1978  1.3145
 2039TIP3   OH230311   7.284   4.030   8.329 -0.2512 -0.0845  0.1052
 2039TIP3    H130312   7.228   3.990   8.262 -1.0490 -0.4604  0.9775
 2039TIP3    H230313   7.321   4.107   8.286 -1.2064  0.0021 -0.5971
 2040TIP3   OH230314   3.916   2.725   6.651 -0.5818 -0.3409 -0.9639
 2040TIP3    H130315   3.905   2.630   6.649  0.4092 -0.4707 -0.6927
 2040TIP3    H230316   3.960   2.742   6.734 -2.1989  0.5352 -0.2440
 2041TIP3   OH230317   5.574   0.131   6.919  0.5214  0.2111 -0.0807
 2041TIP3    H130318   5.655   0.146   6.870  0.7288  0.7304  0.4074
 2041TIP3    H230319   5.527   0.215   6.916  0.2207  0.0503  0.0275
 2042TIP3   OH230320   3.898   0.020   8.413 -0.1854 -0.1526 -0.1526
 2042TIP3    H130321   3.968   0.070   8.371 -0.6583 -0.1372 -0.9275
 2042TIP3    H230322   3.894  -0.062   8.364 -1.9878  0.6098 -1.3917
 2043TIP3   OH230323   2.227   1.966   8.808  1.0799 -0.1408  0.2686
 2043TIP3    H130324   2.198   2.003   8.724 -0.1906 -0.3551  0.5810
 2043TIP3    H230325   2.147   1.962   8.860  1.9864  0.6938  1.7779
 2044TIP3   OH230326   4.578   5.447   9.459  0.2961 -0.4733  0.5900
 2044TIP3    H130327   4.616   5.432   9.546 -0.2265 -0.3141  0.8521
 2044TIP3    H230328   4.647   5.492   9.410  0.7223 -0.8931  0.8058
 2045TIP3   OH230329   6.317   7.214   8.869  0.6779 -0.5037 -0.3815
 2045TIP3    H130330   6.296   7.126   8.837 -1.8771 -0.4087  0.7723
 2045TIP3    H230331   6.394   7.202   8.924  0.6786 -1.9183 -0.6394
 2046TIP3   OH230332   3.123   3.825   8.654 -0.2857 -0.2845 -0.5493
 2046TIP3    H130333   3.070   3.860   8.583  1.4785  0.4732 -1.5393
 2046TIP3    H230334   3.198   3.785   8.610  1.0621  0.5782  0.8947
 2047TIP3   OH230335   6.394   4.076   8.881 -0.1730 -0.5954 -0.3178
 2047TIP3    H130336   6.338   4.154   8.886  1.0033  0.3217 -1.0652
 2047TIP3    H230337   6.379   4.031   8.965  0.2588  1.2145  0.7944
 2048TIP3   OH230338   3.573   6.667   8.611 -0.5894  0.1182 -0.0094
 2048TIP3    H130339   3.503   6.718   8.651 -1.3426 -0.9554  0.0515
 2048TIP3    H230340   3.532   6.586   8.583  0.7377 -0.7881  0.5507
 2049TIP3   OH230341   1.615   7.293   7.614  0.0549 -0.2945  0.7808
 2049TIP3    H130342   1.560   7.224   7.576 -2.0066  1.8690 -0.4470
 2049TIP3    H230343   1.671   7.321   7.542  0.3924 -0.2191  1.0723
 2050TIP3   OH230344   6.418   5.912   7.436 -0.0694 -0.3195 -0.1514
 2050TIP3    H130345   6.417   5.975   7.508  0.0089 -2.6030  1.9798
 2050TIP3    H230346   6.327   5.909   7.407 -0.4476 -0.5219  0.9791
 2051TIP3   OH230347   1.090   2.437   8.117  0.0703  0.2452 -0.3490
 2051TIP3    H130348   1.099   2.398   8.030 -0.2801  0.8434 -0.6539
 2051TIP3    H230349   1.113   2.365   8.177  0.4053 -0.1449 -0.9278
 2052TIP3   OH230350   2.940   4.296   8.096 -0.0092  0.3665 -0.2286
 2052TIP3    H130351   2.965   4.387   8.079  3.3533 -0.3986 -0.2111
 2052TIP3    H230352   2.929   4.258   8.009  0.8082  0.2953 -0.3091
 2053TIP3   OH230353   3.266   4.044   8.728  0.4914 -0.5235  0.2229
 2053TIP3    H130354   3.285   4.083   8.642  1.4839 -1.2728  0.0874
 2053TIP3    H230355   3.215   3.966   8.707 -2.5761  1.2136  0.5557
 2054TIP3   OH230356   1.895   1.472   8.047  0.1302  0.0972 -0.3997
 2054TIP3    H130357   1.856   1.396   8.005  0.5097 -0.0569 -0.4726
 2054TIP3    H230358   1.944   1.516   7.977  0.5332 -0.0070 -0.1840
 2055TIP3   OH230359   0.347   3.823   8.608 -0.6415 -0.5542 -0.3985
 2055TIP3    H130360   0.368   3.853   8.696  2.0692 -1.7169 -0.5607
 2055TIP3    H230361   0.325   3.902   8.560 -0.2402  0.3243  0.8296
 2056TIP3   OH230362   2.360   7.375   8.558  0.4471  0.2107 -0.1573
 2056TIP3    H130363   2.357   7.322   8.479 -0.1130  0.5716 -0.3800
 2056TIP3    H230364   2.333   7.462   8.530  1.9948  0.8065  0.0552
 2057TIP3   OH230365   4.299   6.703   9.696  0.0796  0.3236  0.3659
 2057TIP3    H130366   4.210   6.725   9.721  0.6045 -0.2017  3.0776
 2057TIP3    H230367   4.327   6.774   9.638 -2.3786 -0.0419 -1.4028
 2058TIP3   OH230368   4.266   7.166   8.667 -0.4728 -0.4204  0.3919
 2058TIP3    H130369   4.225   7.252   8.657  2.3736  1.4960  3.2960
 2058TIP3    H230370   4.287   7.139   8.578  0.1414  2.7849 -0.5482
 2059TIP3   OH230371   4.430   1.394   7.338 -0.2759 -0.2950 -0.4162
 2059TIP3    H130372   4.414   1.304   7.312  0.4651 -0.6533  0.3483
 2059TIP3    H230373   4.348   1.439   7.318 -0.6675 -1.1423 -0.7561
 2060TIP3   OH230374   3.666   1.420   8.674  0.2955 -0.1381  0.3151
 2060TIP3    H130375   3.648   1.357   8.604 -3.4099  0.1818  0.7950
 2060TIP3    H230376   3.692   1.500   8.628 -0.3389 -0.4528 -0.6287
 2061TIP3   OH230377   2.831   5.641   9.391 -0.6223 -0.8007 -0.5085
 2061TIP3    H130378   2.753   5.659   9.444  0.9556  0.5897  1.5076
 2061TIP3    H230379   2.797   5.600   9.312 -3.3682 -0.4817  0.3901
 2062TIP3   OH230380   2.126   0.854   8.301 -0.6314  1.1401  0.0195
 2062TIP3    H130381   2.132   0.947   8.276 -1.0720  1.0109 -0.6018
 2062TIP3    H230382   2.032   0.836   8.304 -0.5415  0.5525 -0.5023
 2063TIP3   OH230383   0.902   1.472   8.590 -0.3135 -1.0836  0.1250
 2063TIP3    H130384   0.822   1.434   8.553 -1.0142  0.0557  0.3931
 2063TIP3    H230385   0.942   1.519   8.518 -0.3222 -0.9859  0.1833
 2064TIP3   OH230386   7.259   1.037   8.202  0.1521  0.0731 -0.0362
 2064TIP3    H130387   7.287   0.982   8.275  1.6339  1.1547  0.2679
 2064TIP3    H230388   7.202   1.103   8.243 -0.3501 -0.2770 -0.1505
 2065TIP3   OH230389   5.570   0.911   8.916 -0.2749 -0.6793 -0.3692
 2065TIP3    H130390   5.483   0.872   8.906 -1.1414  0.6514  1.2646
 2065TIP3    H230391   5.612   0.857   8.984 -1.3764  0.8960  1.7027
 2066TIP3   OH230392   3.146   2.320   9.081 -0.4285  0.4416 -0.0770
 2066TIP3    H130393   3.070   2.339   9.137 -0.4711  1.5753 -0.4938
 2066TIP3    H230394   3.177   2.406   9.053  1.9286  0.1143  1.2560
 2067TIP3   OH230395   4.624   5.500   8.020  0.1323  0.1477 -0.1562
 2067TIP3    H130396   4.699   5.521   8.075  0.2046  2.0324 -0.9321
 2067TIP3    H230397   4.593   5.416   8.054  1.9333 -0.1628  0.8534
 2068TIP3   OH230398   3.096   5.355   7.554  0.3485 -0.4788 -0.2053
 2068TIP3    H130399   3.143   5.288   7.505  1.1871 -0.6124  0.7323
 2068TIP3    H230400   3.164   5.419   7.578  0.0833 -0.6882  1.2022
 2069TIP3   OH230401   6.259   0.860   8.138  0.2155  0.2794 -0.0936
 2069TIP3    H130402   6.330   0.808   8.175 -0.5748 -0.4057  0.4955
 2069TIP3    H230403   6.236   0.921   8.208  0.4963  0.7832 -0.4362
 2070TIP3   OH230404   1.546   4.792   9.337  0.2840  0.1591  0.1614
 2070TIP3    H130405   1.455   4.816   9.321  0.2649  0.5289  0.7803
 2070TIP3    H230406   1.597   4.857   9.288  0.2303  1.3794  1.6588
 2071TIP3   OH230407   3.835   6.345   8.616  0.0517 -0.3701  0.1635
 2071TIP3    H130408   3.874   6.286   8.551  1.3035  0.4058  0.1623
 2071TIP3    H230409   3.867   6.432   8.591  0.0335  0.0225  1.4318
 2072TIP3   OH230410   1.038   4.928   7.126  0.9900  0.3600 -0.2949
 2072TIP3    H130411   1.089   4.950   7.204  1.8518 -0.9984 -0.4484
 2072TIP3    H230412   1.068   4.991   7.060 -0.2185  1.9505  0.5950
 2073TIP3   OH230413   5.165   3.025   8.515  0.2965 -0.3204  0.2171
 2073TIP3    H130414   5.141   3.043   8.606  0.5397  1.5394 -0.0462
 2073TIP3    H230415   5.242   3.080   8.499 -0.1091 -0.1439 -1.2805
 2074TIP3   OH230416   3.028   3.116   7.471 -0.2036 -0.0972 -0.1889
 2074TIP3    H130417   2.943   3.156   7.453 -0.5856 -0.7917  0.0275
 2074TIP3    H230418   3.011   3.022   7.473  0.8108 -0.3321 -1.4127
 2075TIP3   OH230419   5.848   0.159   6.789 -0.5794  0.1520 -0.1938
 2075TIP3    H130420   5.867   0.082   6.736  2.9470  0.0123  0.9951
 2075TIP3    H230421   5.932   0.205   6.795 -1.4411  1.5577  3.0313
 2076TIP3   OH230422   3.529   5.649   6.929 -0.1790 -0.2426  0.0054
 2076TIP3    H130423   3.522   5.663   6.834 -0.1354 -2.2005 -0.3201
 2076TIP3    H230424   3.622   5.630   6.943 -0.0692  0.6478  0.5551
 2077TIP3   OH230425   1.773   1.404   8.460 -0.1981 -0.2304  0.6903
 2077TIP3    H130426   1.768   1.492   8.498 -1.0255 -0.6101  1.4995
 2077TIP3    H230427   1.702   1.356   8.502  0.5140 -1.4136  0.5712
 2078TIP3   OH230428   6.446   6.258   8.746 -0.0605 -0.0249 -0.2566
 2078TIP3    H130429   6.460   6.279   8.653  0.4867 -1.1932 -0.4612
 2078TIP3    H230430   6.368   6.203   8.746 -0.1390  0.0875 -0.0085
 2079TIP3   OH230431   0.790   6.421   8.417  0.3035 -0.3108  0.0988
 2079TIP3    H130432   0.715   6.436   8.475 -1.3267 -1.0334 -1.7572
 2079TIP3    H230433   0.826   6.337   8.445 -0.5284 -0.7040 -0.0073
 2080TIP3   OH230434   3.579   3.033   9.096  0.2883  0.3942  0.0537
 2080TIP3    H130435   3.633   3.023   9.174 -1.0685  1.9874  1.2512
 2080TIP3    H230436   3.515   2.961   9.102  1.0624 -0.3607 -0.3981
 2081TIP3   OH230437   6.437   6.297   9.191  0.6940 -0.8164 -0.0880
 2081TIP3    H130438   6.508   6.344   9.148  0.4399 -0.4711 -0.1318
 2081TIP3    H230439   6.403   6.238   9.124  0.0628 -0.0262 -0.4841
 2082TIP3   OH230440   4.048   2.365   8.026 -0.2918 -0.0949 -0.7537
 2082TIP3    H130441   4.026   2.317   8.106  1.7239  0.7726  0.4102
 2082TIP3    H230442   4.007   2.451   8.038  0.5780  0.2754 -0.2706
 2083TIP3   OH230443   7.513   5.589   8.069 -0.2608 -0.3458 -0.3566
 2083TIP3    H130444   7.525   5.649   7.996 -0.9217  0.3929  0.1211
 2083TIP3    H230445   7.423   5.557   8.060 -0.2634 -0.4451 -0.0171
 2084TIP3   OH230446   0.926   4.976   7.515 -0.5485 -0.1054  0.5992
 2084TIP3    H130447   0.949   4.886   7.493  1.6183  0.9035 -1.7042
 2084TIP3    H230448   0.895   4.971   7.606 -0.8799 -3.1876  0.4218
 2085TIP3   OH230449   1.615   5.118   7.650  0.0387  0.0705  0.3420
 2085TIP3    H130450   1.558   5.081   7.718 -0.6410  2.6735  1.3011
 2085TIP3    H230451   1.690   5.153   7.699  0.3080  0.5817 -0.4273
 2086TIP3   OH230452   5.423   3.874   7.951  0.1683  0.4717  0.1263
 2086TIP3    H130453   5.511   3.910   7.955  0.3130  0.0545  1.0842
 2086TIP3    H230454   5.424   3.817   7.873  0.2568  1.6464 -0.7587
 2087TIP3   OH230455   7.570   3.206   8.928 -0.1536  0.3447  1.1222
 2087TIP3    H130456   7.495   3.151   8.953  0.5556 -0.0936  2.3892
 2087TIP3    H230457   7.624   3.209   9.007  1.6531 -0.1616 -0.0357
 2088TIP3   OH230458   2.590   3.415   7.086 -0.3327  0.3816 -0.6059
 2088TIP3    H130459   2.542   3.497   7.097  0.9942  1.0474  0.5119
 2088TIP3    H230460   2.599   3.406   6.991 -1.7002  0.7812 -0.8044
 2089TIP3   OH230461   0.543   4.779   9.047 -0.0122  0.0408  0.0250
 2089TIP3    H130462   0.513   4.785   8.956  0.3486  2.5822 -0.0031
 2089TIP3    H230463   0.636   4.761   9.040 -0.0072  0.1119 -0.1099
 2090TIP3   OH230464   2.546   3.567   8.519  0.0398 -0.0632 -0.3169
 2090TIP3    H130465   2.515   3.488   8.473 -0.6963  0.0666 -0.0524
 2090TIP3    H230466   2.573   3.535   8.605 -1.8017  0.1960  0.3991
 2091TIP3   OH230467   0.340   4.197   9.314  0.4322  0.7269  0.5533
 2091TIP3    H130468   0.388   4.207   9.396 -0.1417 -0.5659  1.0774
 2091TIP3    H230469   0.264   4.254   9.323 -0.2592 -0.2978  1.4429
 2092TIP3   OH230470   2.219   5.397   7.765  0.2431 -0.0670  0.2354
 2092TIP3    H130471   2.162   5.473   7.755 -1.3785 -1.0123  1.8624
 2092TIP3    H230472   2.188   5.335   7.699 -0.6704 -0.5915  1.1383
 2093TIP3   OH230473   5.837   5.573   8.476 -0.2423  0.2531 -0.7280
 2093TIP3    H130474   5.843   5.575   8.571  0.3163  0.3991 -0.7650
 2093TIP3    H230475   5.819   5.481   8.455 -1.0606  0.3395 -0.4509
 2094TIP3   OH230476   0.755   4.624   7.479  0.3437 -0.2674 -0.4377
 2094TIP3    H130477   0.675   4.615   7.427  0.2264 -0.9052 -0.1556
 2094TIP3    H230478   0.766   4.539   7.521  0.6259  0.1346  0.3193
 2095TIP3   OH230479   0.651   0.341   7.146  0.2005  0.3039  0.4739
 2095TIP3    H130480   0.720   0.312   7.206 -1.9385 -0.8494  2.5529
 2095TIP3    H230481   0.634   0.432   7.172  0.2405  0.2562  0.6698
 2096TIP3   OH230482   7.371   3.233   7.206 -0.0209  0.2150  0.1147
 2096TIP3    H130483   7.288   3.248   7.252 -0.3480 -1.3171  0.0924
 2096TIP3    H230484   7.435   3.224   7.277  0.2558  1.9099  0.1199
 2097TIP3   OH230485   0.962   1.675   8.798 -0.1184  0.5683 -0.1500
 2097TIP3    H130486   0.967   1.755   8.746 -0.4883  0.9861  0.4498
 2097TIP3    H230487   0.947   1.606   8.733  0.1917  0.9734 -0.6700
 2098TIP3   OH230488   1.480   7.189   8.072  0.0675  0.0472 -0.1761
 2098TIP3    H130489   1.530   7.130   8.127 -0.3568  1.1437  1.4428
 2098TIP3    H230490   1.521   7.181   7.985  1.7695 -0.5394  0.6381
 2099TIP3   OH230491   4.669   3.270   7.127 -0.1159 -0.6811 -0.3059
 2099TIP3    H130492   4.628   3.355   7.144  0.6067 -0.3758 -0.0713
 2099TIP3    H230493   4.705   3.278   7.039  0.4978 -0.5239 -0.0435
 2100TIP3   OH230494   0.764   4.873   8.710 -0.3004  0.0702 -0.3930
 2100TIP3    H130495   0.792   4.789   8.749 -1.6099 -0.4516 -0.5230
 2100TIP3    H230496   0.828   4.890   8.641 -0.3635 -1.1578 -0.7833
 2101TIP3   OH230497   0.283   2.393   9.442 -0.0073 -0.0180  0.2347
 2101TIP3    H130498   0.287   2.472   9.388 -0.5625 -0.1606 -0.0219
 2101TIP3    H230499   0.359   2.400   9.500 -0.7355  1.3411  1.0914
 2102TIP3   OH230500   6.096   4.572   7.949  0.0685  0.5480 -0.0852
 2102TIP3    H130501   6.085   4.520   8.028  2.0254  1.7598  1.0735
 2102TIP3    H230502   6.026   4.542   7.890 -0.2509 -1.7540  1.3395
 2103TIP3   OH230503   1.999   3.311   7.803  0.0391  0.1424 -0.6603
 2103TIP3    H130504   2.054   3.279   7.875  0.0085 -0.7301 -1.0072
 2103TIP3    H230505   2.007   3.406   7.807  0.2928  0.0928  0.2925
 2104TIP3   OH230506   1.660   3.134   8.530 -0.3743 -0.5433  0.1307
 2104TIP3    H130507   1.598   3.065   8.511 -0.0797 -0.5298 -0.9724
 2104TIP3    H230508   1.637   3.164   8.618 -0.1488 -2.4077  0.8769
 2105TIP3   OH230509   3.082   6.146   7.664  0.6993  0.4474  0.1118
 2105TIP3    H130510   3.038   6.079   7.611  0.2968  0.8156 -0.0245
 2105TIP3    H230511   3.161   6.103   7.696  0.3457 -0.1594  0.1866
 2106TIP3   OH230512   3.420   1.262   8.973  0.0568 -0.5036  0.1002
 2106TIP3    H130513   3.478   1.209   8.918  0.1332 -1.7888  1.3384
 2106TIP3    H230514   3.338   1.213   8.976 -0.1721 -0.0992  0.5341
 2107TIP3   OH230515   6.702   1.320   8.677  0.0428 -0.1167 -0.1944
 2107TIP3    H130516   6.662   1.407   8.687  1.9798  0.8248 -0.1634
 2107TIP3    H230517   6.660   1.283   8.599 -0.5874  0.9729 -0.3926
 2108TIP3   OH230518   3.142   0.055   6.665 -0.3291  0.0577  0.2010
 2108TIP3    H130519   3.090   0.114   6.610 -0.0410  2.6108  2.4484
 2108TIP3    H230520   3.091   0.046   6.746  0.6866 -0.9787  0.7547
 2109TIP3   OH230521   0.706   5.070   9.175 -0.0785  0.0986  0.4281
 2109TIP3    H130522   0.739   5.100   9.090 -0.9043 -0.8254 -0.2353
 2109TIP3    H230523   0.633   5.130   9.194  0.2029  0.4016  0.5670
 2110TIP3   OH230524   0.139   2.321   8.383 -0.3622 -0.2975 -0.7656
 2110TIP3    H130525   0.221   2.334   8.336  0.1203  2.2357  0.5853
 2110TIP3    H230526   0.152   2.240   8.433  0.9434 -0.4310 -1.2748
 2111TIP3   OH230527   6.013   3.473   9.471 -0.1919  0.3719  0.0966
 2111TIP3    H130528   6.081   3.489   9.536 -0.0237  0.0583  0.0026
 2111TIP3    H230529   6.058   3.425   9.401 -0.7502 -0.8667  0.5608
 2112TIP3   OH230530   1.117   4.560   7.622 -0.1747  0.5429 -0.2378
 2112TIP3    H130531   1.191   4.503   7.600 -0.8690  0.0735 -1.4955
 2112TIP3    H230532   1.086   4.528   7.707 -0.0147 -0.4235 -0.5289
 2113TIP3   OH230533   7.355   4.177   8.793  0.0556 -0.1491  0.2550
 2113TIP3    H130534   7.292   4.172   8.864  1.5805 -0.4342  1.6652
 2113TIP3    H230535   7.440   4.179   8.837  1.2501 -3.2657 -1.5658
 2114TIP3   OH230536   2.508   3.237   6.630 -0.0440 -0.0519  0.0147
 2114TIP3    H130537   2.461   3.153   6.636 -0.6015  0.1407 -1.3211
 2114TIP3    H230538   2.461   3.285   6.563  0.8086  1.0052  0.1594
 2115TIP3   OH230539   6.713   6.466   8.168 -0.0056 -0.1672 -0.1870
 2115TIP3    H130540   6.774   6.511   8.110  1.3153 -0.9770  0.5229
 2115TIP3    H230541   6.716   6.374   8.139 -0.6365 -0.2746  0.0698
 2116TIP3   OH230542   5.492   0.057   7.187  0.1448 -0.6168 -0.6618
 2116TIP3    H130543   5.571   0.004   7.178  0.6214 -0.0232 -0.1675
 2116TIP3    H230544   5.483   0.101   7.103 -0.2967 -1.5313 -1.0965
 2117TIP3   OH230545   1.088   6.591   7.874 -0.4445  0.4247 -0.1132
 2117TIP3    H130546   1.166   6.536   7.880 -0.7640 -0.1504 -1.0199
 2117TIP3    H230547   1.051   6.571   7.788 -0.8970  1.6245 -0.2197
 2118TIP3   OH230548   2.834   3.747   9.073 -0.5206 -0.4733 -0.0123
 2118TIP3    H130549   2.836   3.678   9.139 -2.0639  0.2960  0.8966
 2118TIP3    H230550   2.756   3.728   9.021  0.1305 -0.5034 -1.0023
 2119TIP3   OH230551   2.853   3.846   9.366  0.5290  0.1907 -0.4175
 2119TIP3    H130552   2.788   3.784   9.398  1.4395 -1.7504 -2.0844
 2119TIP3    H230553   2.801   3.918   9.328 -0.5521  0.2550  1.0901
 2120TIP3   OH230554   6.481   6.659   8.038 -0.0567  0.0232 -0.2849
 2120TIP3    H130555   6.532   6.663   8.119  0.2744 -1.9252 -0.3678
 2120TIP3    H230556   6.400   6.706   8.059  0.1643 -0.1449  1.0710
 2121TIP3   OH230557   6.126   4.828   9.278  0.6228  0.0223 -0.1257
 2121TIP3    H130558   6.039   4.787   9.269  0.2680  0.7968 -0.3280
 2121TIP3    H230559   6.149   4.853   9.188  1.1650 -0.3859 -0.1047
 2122TIP3   OH230560   3.622   4.073   8.454 -0.2593 -0.1727 -0.5132
 2122TIP3    H130561   3.664   4.097   8.371  0.4728  3.4243  0.7102
 2122TIP3    H230562   3.694   4.038   8.507 -0.7971 -2.8314 -1.3742
 2123TIP3   OH230563   2.677   5.410   7.906  0.2780  0.0355  0.3464
 2123TIP3    H130564   2.755   5.388   7.856  0.8415  1.3368  0.6051
 2123TIP3    H230565   2.613   5.344   7.881  1.2386 -0.6425 -0.3986
 2124TIP3   OH230566   2.203   7.161   8.089  0.1478 -0.0809  0.5171
 2124TIP3    H130567   2.235   7.072   8.099 -0.1407 -0.2099  0.2875
 2124TIP3    H230568   2.140   7.157   8.018 -1.1233 -0.0269  1.5898
 2125TIP3   OH230569   5.418   7.566   6.791 -0.1126 -0.4407  0.3765
 2125TIP3    H130570   5.432   7.653   6.830 -0.1087  0.5232 -1.6477
 2125TIP3    H230571   5.491   7.513   6.825 -0.2941  0.2224  1.9004
 2126TIP3   OH230572   0.958   7.636   7.921  0.8310 -0.2107  0.1619
 2126TIP3    H130573   0.915   7.680   7.994 -0.6927  0.7486 -1.2458
 2126TIP3    H230574   0.943   7.543   7.936  0.0819  0.0057  0.7798
 2127TIP3   OH230575   6.194   0.177   8.951  0.0120  0.5368  0.2623
 2127TIP3    H130576   6.251   0.243   8.912 -1.0276  0.4901 -1.4640
 2127TIP3    H230577   6.105   0.212   8.941 -0.5039 -0.8018 -0.1044
 2128TIP3   OH230578   5.032   2.968   7.079  0.0164  0.0459 -0.0441
 2128TIP3    H130579   5.074   2.884   7.098  0.1815 -0.0420 -0.7797
 2128TIP3    H230580   5.053   2.985   6.987  0.0288  0.9177  0.1147
 2129TIP3   OH230581   4.053   5.850   7.507 -0.0928  0.0135  0.3926
 2129TIP3    H130582   4.101   5.767   7.498 -1.4540 -0.6439 -1.4764
 2129TIP3    H230583   4.069   5.895   7.424 -1.3111  0.5192  0.4151
 2130TIP3   OH230584   5.983   3.141   6.759  0.0808 -0.6378  0.2045
 2130TIP3    H130585   5.996   3.056   6.801 -1.5806 -0.0949  1.9201
 2130TIP3    H230586   5.894   3.139   6.725  0.0855  0.3518  0.0845
 2131TIP3   OH230587   2.117   3.285   8.631  0.0938  0.6005 -0.2204
 2131TIP3    H130588   2.209   3.291   8.605  0.1789  2.0261  0.2976
 2131TIP3    H230589   2.104   3.194   8.656  1.7406  0.6700  1.0085
 2132TIP3   OH230590   5.532   7.430   9.228 -0.5016  0.6596  0.5018
 2132TIP3    H130591   5.557   7.371   9.299 -1.3497  0.2839  0.4916
 2132TIP3    H230592   5.549   7.381   9.148 -1.6907  0.2100  0.5025
 2133TIP3   OH230593   2.421   4.006   9.099 -0.0601 -0.0589  0.2154
 2133TIP3    H130594   2.375   4.070   9.154  0.0220 -0.7137  1.0736
 2133TIP3    H230595   2.381   4.016   9.013  1.1091  2.3293 -0.1345
 2134TIP3   OH230596   4.551   7.353   8.963 -0.0849 -0.2613  0.3679
 2134TIP3    H130597   4.626   7.307   9.000 -0.4324 -1.0720  0.0892
 2134TIP3    H230598   4.525   7.300   8.888  1.0097  1.6727 -1.4884
 2135TIP3   OH230599   3.708   2.208   8.704  0.1982 -0.3020  0.3910
 2135TIP3    H130600   3.741   2.232   8.617  1.2136  0.9038  1.0783
 2135TIP3    H230601   3.635   2.267   8.719 -0.0205 -0.5571  0.3284
 2136TIP3   OH230602   2.258   7.130   8.681  0.3717  0.0903  0.0708
 2136TIP3    H130603   2.305   7.200   8.637 -0.0727 -0.0096 -0.5870
 2136TIP3    H230604   2.318   7.098   8.748  1.1833  0.0541 -0.6611
 2137TIP3   OH230605   2.647   2.300   9.115 -0.0718 -0.3246  0.0244
 2137TIP3    H130606   2.645   2.225   9.056 -0.3606  1.8965 -3.0245
 2137TIP3    H230607   2.692   2.268   9.193  2.1699 -2.9614 -2.1473
 2138TIP3   OH230608   6.813   3.364   9.062  0.1081  0.2607  0.2288
 2138TIP3    H130609   6.776   3.332   8.979 -0.3452 -0.7664  0.8088
 2138TIP3    H230610   6.906   3.377   9.043 -0.0835  0.5602 -0.5817
 2139TIP3   OH230611   0.064   3.256   8.675 -0.0670  0.0088  0.3078
 2139TIP3    H130612   0.020   3.175   8.703 -1.1530  0.8641  1.1775
 2139TIP3    H230613   0.142   3.262   8.730 -0.0014 -0.4373  0.2631
 2140TIP3   OH230614   6.270   6.350   7.762  0.6053 -0.0881  0.5699
 2140TIP3    H130615   6.303   6.356   7.852 -0.0245  1.3714  0.7364
 2140TIP3    H230616   6.276   6.439   7.728 -0.2988 -0.3736 -0.4203
 2141TIP3   OH230617   4.278   0.924   7.225  0.4623  0.3449  0.2278
 2141TIP3    H130618   4.291   0.971   7.308 -0.0331 -0.7943  0.9775
 2141TIP3    H230619   4.350   0.954   7.169  0.3893  1.6789  0.8080
 2142TIP3   OH230620   5.060   5.748   8.990 -0.8395  0.3830 -0.2270
 2142TIP3    H130621   5.110   5.829   8.983  0.1641 -0.2742 -0.9816
 2142TIP3    H230622   4.977   5.774   9.029 -0.2477  1.6519  0.2423
 2143TIP3   OH230623   6.856   7.651   7.151  0.1734  0.0086  0.0443
 2143TIP3    H130624   6.792   7.626   7.085 -0.2781 -0.5043  0.6634
 2143TIP3    H230625   6.940   7.620   7.117 -0.2365 -1.4433  0.3112
 2144TIP3   OH230626   3.404   2.238   8.576 -0.0560  0.1103  0.0446
 2144TIP3    H130627   3.406   2.150   8.615  0.8495 -1.2070 -2.7371
 2144TIP3    H230628   3.329   2.237   8.517  1.5707  0.0990 -2.1670
 2145TIP3   OH230629   4.112   3.355   7.146 -0.1780  0.5668 -0.4671
 2145TIP3    H130630   4.170   3.376   7.219 -1.9163 -0.4791  1.2926
 2145TIP3    H230631   4.114   3.433   7.091  1.4037  1.2675  0.5171
 2146TIP3   OH230632   3.074   2.071   8.393  0.2813 -0.3508 -0.3759
 2146TIP3    H130633   3.117   1.997   8.435  1.8820  0.9264  0.3242
 2146TIP3    H230634   3.028   2.116   8.464 -1.7251 -1.2879 -0.9933
 2147TIP3   OH230635   5.002   7.105   7.057  0.3759  0.8751 -0.0208
 2147TIP3    H130636   5.041   7.190   7.038  0.8043  0.5255 -0.7266
 2147TIP3    H230637   4.944   7.122   7.132  0.8720  1.6691  0.2006
 2148TIP3   OH230638   0.052   0.986   7.724 -0.3733 -0.2406 -0.1056
 2148TIP3    H130639   0.008   0.970   7.808  2.2963 -0.6348  1.3132
 2148TIP3    H230640   0.076   0.898   7.693  0.3385  0.0187 -0.3039
 2149TIP3   OH230641   2.303   7.534   9.099  0.0124 -0.9141 -0.0132
 2149TIP3    H130642   2.287   7.610   9.155 -1.3369 -0.8482 -0.4446
 2149TIP3    H230643   2.238   7.541   9.029  0.8959 -1.6279 -0.9387
 2150TIP3   OH230644   0.159   0.371   7.911  0.1206 -0.0295 -0.2504
 2150TIP3    H130645   0.064   0.373   7.920  0.1888 -0.5259  0.7973
 2150TIP3    H230646   0.190   0.338   7.996  1.2500  0.6646 -0.3684
 2151TIP3   OH230647   5.585   1.817   8.856 -0.6580  0.2252 -0.2609
 2151TIP3    H130648   5.540   1.809   8.940 -0.8251  0.8546 -0.2842
 2151TIP3    H230649   5.541   1.889   8.812  0.7341  1.2690 -0.0415
 2152TIP3   OH230650   3.243   6.029   8.298  0.6641 -0.3298  0.4581
 2152TIP3    H130651   3.163   6.025   8.351  0.3039 -1.7921 -0.1387
 2152TIP3    H230652   3.288   5.947   8.317  2.6540  0.9541  1.6734
 2153TIP3   OH230653   7.579   2.035   9.095  0.3791 -0.3131 -0.3890
 2153TIP3    H130654   7.554   2.012   9.185  1.6060 -1.1998 -0.2503
 2153TIP3    H230655   7.528   2.114   9.076 -2.1903 -1.7788 -0.0122
 2154TIP3   OH230656   2.935   0.375   8.338  0.2761 -0.2219  0.1959
 2154TIP3    H130657   2.945   0.453   8.393  0.6862 -0.8059  0.9795
 2154TIP3    H230658   2.971   0.304   8.391 -3.4545 -1.6415  1.1285
 2155TIP3   OH230659   1.671   1.469   9.230  0.2081  0.0325  0.1351
 2155TIP3    H130660   1.699   1.525   9.303  0.6332  1.0627 -0.8060
 2155TIP3    H230661   1.750   1.418   9.208  0.6721  1.1559 -0.8908
 2156TIP3   OH230662   0.242   3.286   6.596 -0.1351  0.7021 -0.3529
 2156TIP3    H130663   0.289   3.227   6.538 -1.2003 -2.7411  1.9602
 2156TIP3    H230664   0.305   3.307   6.665 -0.7216 -0.7500  0.6861
 2157TIP3   OH230665   3.890   3.278   7.355  0.3938  0.7726 -0.1544
 2157TIP3    H130666   3.979   3.312   7.358  0.7838 -0.2558  0.7964
 2157TIP3    H230667   3.852   3.300   7.440 -0.1365  0.8865 -0.4149
 2158TIP3   OH230668   4.352   5.464   7.820  0.4933 -0.5117 -0.1773
 2158TIP3    H130669   4.266   5.479   7.782  1.3962 -0.4972 -2.3200
 2158TIP3    H230670   4.341   5.487   7.913 -1.3261  1.2122 -0.7450
 2159TIP3   OH230671   5.005   3.042   7.346  0.0049  0.1748  0.0608
 2159TIP3    H130672   4.953   3.122   7.337  0.5846  0.6141  0.5328
 2159TIP3    H230673   5.023   3.015   7.255 -0.1191  0.6234 -0.1005
 2160TIP3   OH230674   6.453   5.020   8.784  0.1437 -0.5258 -0.4917
 2160TIP3    H130675   6.390   5.081   8.822 -0.3950 -0.7510 -1.0129
 2160TIP3    H230676   6.403   4.971   8.719  0.6924 -1.1850 -0.4261
 2161TIP3   OH230677   4.677   4.463   8.351  0.2855  0.1995  0.2490
 2161TIP3    H130678   4.634   4.548   8.349  0.4495  0.2651 -0.8448
 2161TIP3    H230679   4.606   4.399   8.359  0.0738  0.3716 -0.2648
 2162TIP3   OH230680   6.266   0.993   7.319  0.1644  0.3600 -0.1859
 2162TIP3    H130681   6.354   0.994   7.280 -0.5280  2.2914 -1.8708
 2162TIP3    H230682   6.238   0.901   7.313  2.9859 -0.8719  2.7745
 2163TIP3   OH230683   4.312   1.643   8.209  0.3501  0.0006 -0.3702
 2163TIP3    H130684   4.288   1.578   8.142  0.3267  1.9323 -2.3778
 2163TIP3    H230685   4.228   1.682   8.235  0.5295  0.9460 -1.1205
 2164TIP3   OH230686   7.265   2.556   8.243  0.1301 -0.0520 -0.5556
 2164TIP3    H130687   7.334   2.616   8.271  0.1342 -1.2760  2.3522
 2164TIP3    H230688   7.296   2.469   8.268 -1.8928 -0.7748 -0.3514
 2165TIP3   OH230689   5.395   6.762   8.775 -0.7173  0.1226  0.0455
 2165TIP3    H130690   5.426   6.720   8.856 -0.5977  1.0071  0.4754
 2165TIP3    H230691   5.316   6.714   8.752 -0.6300 -0.2870  0.5647
 2166TIP3   OH230692   1.068   3.634   7.371 -0.5862  0.4075  0.9089
 2166TIP3    H130693   1.101   3.702   7.312 -0.3953  0.8664  1.5293
 2166TIP3    H230694   1.089   3.552   7.327  1.5298  0.6735  1.3209
 2167TIP3   OH230695   4.076   4.131   7.305  0.3249 -0.1698  0.2539
 2167TIP3    H130696   4.134   4.107   7.233  1.4518 -1.8090  1.6406
 2167TIP3    H230697   4.133   4.171   7.371 -0.8146  2.1079 -0.0299
 2168TIP3   OH230698   5.775   1.490   7.991 -0.1722  0.2115  0.0663
 2168TIP3    H130699   5.689   1.478   7.952 -0.4459 -1.7382  1.1354
 2168TIP3    H230700   5.758   1.524   8.078 -0.0126 -1.4779  0.8055
 2169TIP3   OH230701   4.001   4.195   9.687 -0.4034 -0.3960 -0.3467
 2169TIP3    H130702   3.978   4.204   9.779 -0.7379 -0.6295 -0.4036
 2169TIP3    H230703   4.015   4.101   9.674 -1.1076 -0.4644 -0.6943
 2170TIP3   OH230704   2.205   4.759   8.718  0.2073 -0.2361  0.0844
 2170TIP3    H130705   2.140   4.814   8.674 -2.0046 -1.7509  1.2934
 2170TIP3    H230706   2.230   4.809   8.795 -1.1937 -0.4940  0.7493
 2171TIP3   OH230707   1.138   4.031   8.078  0.1286  0.3830  0.7123
 2171TIP3    H130708   1.113   4.119   8.051  1.3596  0.9876  1.4354
 2171TIP3    H230709   1.102   3.974   8.010 -0.8716  1.4187  0.3453
 2172TIP3   OH230710   6.981   1.814   9.399  0.1930 -0.6755  0.0475
 2172TIP3    H130711   6.964   1.815   9.494  0.1488  1.5376  0.0651
 2172TIP3    H230712   7.070   1.847   9.391 -0.2627  0.4361 -0.7162
 2173TIP3   OH230713   5.989   2.409   9.253 -0.0159  0.0451  0.1678
 2173TIP3    H130714   5.923   2.394   9.184 -0.6643  0.4646  0.6873
 2173TIP3    H230715   5.989   2.503   9.265  0.2182 -0.0149  0.6304
 2174TIP3   OH230716   3.238   6.419   8.447  0.2833  0.3884 -0.1317
 2174TIP3    H130717   3.148   6.443   8.425 -0.2194 -1.9716 -1.0088
 2174TIP3    H230718   3.258   6.468   8.527 -2.1219  0.2703  0.6129
 2175TIP3   OH230719   0.540   6.324   7.795 -0.0931 -0.3429 -0.1869
 2175TIP3    H130720   0.495   6.293   7.717  1.1472  0.2276 -1.1773
 2175TIP3    H230721   0.600   6.253   7.819 -0.9668 -0.8087  0.6961
 2176TIP3   OH230722   0.260   3.603   8.887  0.4348 -0.2170 -0.3373
 2176TIP3    H130723   0.307   3.554   8.820 -0.6176 -1.8801  0.1002
 2176TIP3    H230724   0.170   3.571   8.883  0.1858  0.1429  1.3833
 2177TIP3   OH230725   1.508   2.151   8.135  0.3813 -0.4309  0.3219
 2177TIP3    H130726   1.480   2.241   8.155  0.6912 -0.7398  2.4132
 2177TIP3    H230727   1.452   2.096   8.190  0.1083 -1.5569 -1.0334
 2178TIP3   OH230728   5.180   3.874   7.731 -0.0939  0.6314  0.1391
 2178TIP3    H130729   5.258   3.918   7.698 -0.8426 -0.0183 -2.8308
 2178TIP3    H230730   5.149   3.930   7.802  1.3338  2.5827 -0.6732
 2179TIP3   OH230731   7.015   6.752   6.880  0.0245 -0.2105 -0.0767
 2179TIP3    H130732   7.084   6.698   6.842 -1.5766 -1.7820 -0.8955
 2179TIP3    H230733   6.980   6.802   6.806 -2.6652 -2.7950 -0.7284
 2180TIP3   OH230734   3.686   2.936   7.991 -0.2126 -0.7831  0.0555
 2180TIP3    H130735   3.771   2.917   7.951  1.0223  0.5431  1.8925
 2180TIP3    H230736   3.660   3.020   7.954 -0.5475 -1.0148 -0.2354
 2181TIP3   OH230737   6.001   7.543   7.812 -0.2204 -0.5746 -0.7793
 2181TIP3    H130738   6.009   7.606   7.884 -2.1077 -0.1373 -0.8903
 2181TIP3    H230739   6.091   7.518   7.792  0.5466  1.4625 -0.1692
 2182TIP3   OH230740   6.770   1.966   8.586 -0.1176 -0.1829  0.0857
 2182TIP3    H130741   6.774   2.062   8.580 -0.5635 -0.2000 -0.5658
 2182TIP3    H230742   6.725   1.950   8.669 -0.4888  0.1796 -0.0415
 2183TIP3   OH230743   4.940   3.501   6.676  0.1691 -0.1203 -0.0291
 2183TIP3    H130744   4.987   3.582   6.656 -0.6941  0.3520 -0.1831
 2183TIP3    H230745   4.877   3.491   6.605 -1.2547  0.2738  1.1467
 2184TIP3   OH230746   2.238   1.803   6.884 -0.6910  0.1366  0.3444
 2184TIP3    H130747   2.165   1.744   6.897 -0.1996 -0.5264  0.1244
 2184TIP3    H230748   2.203   1.890   6.907 -2.1621  0.1677 -1.7950
 2185TIP3   OH230749   1.265   6.261   9.139  0.7089  0.1168 -0.0090
 2185TIP3    H130750   1.260   6.356   9.145  1.5419  0.1070  1.3695
 2185TIP3    H230751   1.291   6.243   9.049  0.9384  1.2174 -0.1669
 2186TIP3   OH230752   4.661   5.806   7.767  0.4286 -0.3525  0.1827
 2186TIP3    H130753   4.700   5.893   7.758  1.0511 -0.7216 -0.8974
 2186TIP3    H230754   4.701   5.755   7.696 -0.3420 -1.3651  0.4626
 2187TIP3   OH230755   7.478   7.153   7.412 -0.7039  0.5753  0.2665
 2187TIP3    H130756   7.387   7.177   7.427 -0.3598  1.5475  0.9194
 2187TIP3    H230757   7.513   7.224   7.359 -0.1843  0.4888  0.4886
 2188TIP3   OH230758   5.372   2.791   8.623  0.5171  0.0133  0.0641
 2188TIP3    H130759   5.415   2.727   8.681 -0.9095 -0.5329  0.5567
 2188TIP3    H230760   5.345   2.862   8.682 -1.4228 -0.7937  0.2272
 2189TIP3   OH230761   5.446   1.495   8.127  0.3159  0.3611  0.0991
 2189TIP3    H130762   5.460   1.431   8.196 -0.5569 -0.0165 -0.0728
 2189TIP3    H230763   5.467   1.448   8.046  1.6996  0.9066  0.1087
 2190TIP3   OH230764   4.196   2.483   9.239 -0.0270 -0.0690  0.0878
 2190TIP3    H130765   4.121   2.543   9.231  0.2003  0.2778  0.4875
 2190TIP3    H230766   4.178   2.434   9.320  0.5352  0.5423  0.5983
 2191TIP3   OH230767   7.281   3.553   8.821 -0.2023  0.6375 -0.5876
 2191TIP3    H130768   7.314   3.642   8.808 -0.7098  0.7550 -1.1199
 2191TIP3    H230769   7.309   3.505   8.743 -2.0856  0.9919 -1.5268
 2192TIP3   OH230770   4.801   7.071   7.666 -0.1204 -0.1818  0.4625
 2192TIP3    H130771   4.739   7.099   7.733 -0.5660  0.5246 -0.2358
 2192TIP3    H230772   4.883   7.114   7.689 -0.6326  1.2107 -0.2298
 2193TIP3   OH230773   7.328   1.814   7.384  0.0576 -0.4459 -0.5735
 2193TIP3    H130774   7.359   1.743   7.328  2.5451 -1.3447  1.7145
 2193TIP3    H230775   7.253   1.778   7.432 -0.1856 -0.6867 -1.1341
 2194TIP3   OH230776   6.410   3.964   9.388 -0.1917  0.3702 -0.2964
 2194TIP3    H130777   6.436   3.887   9.438  0.7810  0.5790 -0.4761
 2194TIP3    H230778   6.365   4.020   9.452  1.3395  0.7859  0.4449
 2195TIP3   OH230779   3.069   1.179   9.544 -0.3216 -0.1359 -0.7038
 2195TIP3    H130780   3.007   1.209   9.477 -0.2140  0.0669 -0.7115
 2195TIP3    H230781   3.042   1.088   9.562  0.2499 -0.5278 -1.7290
 2196TIP3   OH230782   2.696   6.354   7.864  0.2530 -0.0309  0.1749
 2196TIP3    H130783   2.627   6.406   7.821  0.8116  0.6843  0.1139
 2196TIP3    H230784   2.656   6.326   7.946 -0.5063 -0.6108 -0.3754
 2197TIP3   OH230785   7.466   6.064   7.814 -0.3681  0.1671  0.2253
 2197TIP3    H130786   7.380   6.103   7.804  0.0911  1.4814  1.1596
 2197TIP3    H230787   7.496   6.049   7.724 -1.7093 -0.6864 -0.1079
 2198TIP3   OH230788   1.658   2.251   9.369  0.4395 -0.1226  0.0404
 2198TIP3    H130789   1.706   2.320   9.323  0.8399 -0.8757 -0.7130
 2198TIP3    H230790   1.570   2.285   9.380  0.6713  0.5629 -0.1956
 2199TIP3   OH230791   3.683   3.197   8.896 -0.3730  0.5603  0.1333
 2199TIP3    H130792   3.657   3.139   8.968 -1.4699  0.2777 -0.4729
 2199TIP3    H230793   3.601   3.238   8.867  0.2163  1.5265 -0.2290
 2200TIP3   OH230794   1.638   3.654   9.083  0.0550 -0.0074  0.5930
 2200TIP3    H130795   1.733   3.644   9.086  0.1678  0.5373 -0.5360
 2200TIP3    H230796   1.624   3.748   9.086 -0.3406  0.0057 -0.9210
 2201TIP3   OH230797   1.029   5.953   7.255 -0.1473  0.0660  0.1372
 2201TIP3    H130798   0.990   5.920   7.336  0.2769 -0.7438  0.0200
 2201TIP3    H230799   0.992   5.896   7.186  0.3350  0.0439 -0.1069
 2202TIP3   OH230800   0.482   2.528   7.836 -0.2328  0.8891  0.1639
 2202TIP3    H130801   0.489   2.503   7.928  1.7004  0.4265 -0.0555
 2202TIP3    H230802   0.572   2.523   7.803 -0.7020  2.1705 -1.4666
 2203TIP3   OH230803   7.533   3.739   7.572 -0.5824  0.5402  0.0124
 2203TIP3    H130804   7.624   3.747   7.542 -0.7172  1.4242 -0.1964
 2203TIP3    H230805   7.498   3.666   7.522 -0.1855  0.6466 -0.4382
 2204TIP3   OH230806   5.872   6.488   9.494 -0.7168 -0.0325  0.0012
 2204TIP3    H130807   5.931   6.557   9.464 -1.8139  0.6535 -0.6353
 2204TIP3    H230808   5.921   6.444   9.564 -0.6067  2.4117  1.5633
 2205TIP3   OH230809   3.031   5.707   7.216  0.0155  0.5616  0.3272
 2205TIP3    H130810   2.970   5.657   7.271  1.9048 -1.6105  0.6055
 2205TIP3    H230811   3.001   5.691   7.127 -0.3708  0.2383  0.5090
 2206TIP3   OH230812   5.341   0.570   7.904 -0.4016  0.1470  0.4270
 2206TIP3    H130813   5.343   0.515   7.827  0.0737 -1.1253  1.3168
 2206TIP3    H230814   5.274   0.636   7.885 -0.7521 -0.5305 -0.7884
 2207TIP3   OH230815   4.357   5.606   8.462 -1.2805 -0.5293  0.2270
 2207TIP3    H130816   4.395   5.675   8.408 -1.7795 -0.5531 -0.1561
 2207TIP3    H230817   4.272   5.641   8.489 -1.4114 -0.8796  0.2674
 2208TIP3   OH230818   3.254   4.311   7.954 -0.5772 -0.3430 -0.5294
 2208TIP3    H130819   3.201   4.323   8.033 -2.4856  2.0304 -2.0105
 2208TIP3    H230820   3.338   4.277   7.986 -2.0316 -1.6935  2.2216
 2209TIP3   OH230821   6.221   4.030   7.805 -0.3024  0.5292 -0.1528
 2209TIP3    H130822   6.311   4.000   7.813  0.7067  3.2274 -0.3384
 2209TIP3    H230823   6.174   3.957   7.765  1.6661 -1.1078  0.3734
 2210TIP3   OH230824   0.551   1.299   7.216 -0.0542 -0.2426  0.3280
 2210TIP3    H130825   0.471   1.272   7.172  0.6329 -0.5238 -0.7971
 2210TIP3    H230826   0.614   1.229   7.198  0.0824 -0.7350  2.3798
 2211TIP3   OH230827   1.016   6.258   8.024  0.8065 -0.4237  0.5759
 2211TIP3    H130828   1.079   6.297   8.085 -0.0202  1.1005  0.5177
 2211TIP3    H230829   0.975   6.333   7.981 -0.0382 -1.4184 -0.4198
 2212TIP3   OH230830   2.357   6.428   7.946  0.0993 -0.0307  0.3699
 2212TIP3    H130831   2.293   6.471   7.889 -2.1902 -0.9813  2.0423
 2212TIP3    H230832   2.314   6.346   7.971  1.9524 -0.6507  1.7039
 2213TIP3   OH230833   2.337   0.705   8.220  0.3051  0.4357  0.0751
 2213TIP3    H130834   2.385   0.753   8.287  0.2535 -0.4915  0.8050
 2213TIP3    H230835   2.250   0.745   8.218  0.2765  0.4134  0.6402
 2214TIP3   OH230836   4.020   0.504   9.049 -0.0487  0.2604  0.2929
 2214TIP3    H130837   4.003   0.522   8.956 -2.2480 -0.8333  0.4234
 2214TIP3    H230838   3.942   0.536   9.094 -0.2290 -1.6732  1.4350
 2215TIP3   OH230839   1.761   7.024   9.009 -0.0884  0.1670 -0.0795
 2215TIP3    H130840   1.836   7.073   8.973  1.3045 -0.5823  1.6728
 2215TIP3    H230841   1.739   7.070   9.089 -2.1031  0.8541 -0.9613
 2216TIP3   OH230842   7.322   1.490   8.223 -0.0098  0.4268 -0.1016
 2216TIP3    H130843   7.268   1.430   8.274  1.2131  0.6330  1.4978
 2216TIP3    H230844   7.401   1.441   8.204 -0.5042  0.2916 -2.0186
 2217TIP3   OH230845   7.124   1.921   9.124  0.3361 -0.1190 -0.2651
 2217TIP3    H130846   7.146   1.864   9.051 -2.0762 -0.2489 -0.9880
 2217TIP3    H230847   7.172   1.885   9.198  0.9393 -1.4527 -1.2551
 2218TIP3   OH230848   1.232   1.905   7.415  0.3380 -0.1060  0.3363
 2218TIP3    H130849   1.228   1.954   7.497  1.0558 -0.6098  0.6810
 2218TIP3    H230850   1.268   1.820   7.440 -0.5263 -0.6849 -0.3089
 2219TIP3   OH230851   5.782   6.265   8.441 -0.5820 -0.1554 -0.2018
 2219TIP3    H130852   5.806   6.218   8.520  0.1233  1.2815  0.4854
 2219TIP3    H230853   5.826   6.218   8.370  0.5255 -0.2262  0.5208
 2220TIP3   OH230854   2.837   4.677   9.383  0.0768 -0.7619  0.2341
 2220TIP3    H130855   2.873   4.711   9.301  1.4314 -0.1749  1.0371
 2220TIP3    H230856   2.795   4.594   9.358 -0.1279 -0.2752 -1.1474
 2221TIP3   OH230857   3.788   0.564   9.397  0.1368 -0.1020  0.0735
 2221TIP3    H130858   3.881   0.550   9.411 -0.3392 -2.1321  1.7424
 2221TIP3    H230859   3.752   0.582   9.484 -1.0622  0.4496 -0.5098
 2222TIP3   OH230860   1.890   3.492   9.280 -0.3209 -0.0464 -0.2222
 2222TIP3    H130861   1.918   3.543   9.204  2.0648  2.1048  1.8875
 2222TIP3    H230862   1.901   3.401   9.254  1.3207  0.6271 -2.1468
 2223TIP3   OH230863   4.504   6.467   7.482 -0.1121 -0.5635 -0.5400
 2223TIP3    H130864   4.457   6.469   7.399  0.7453  0.8734 -1.0154
 2223TIP3    H230865   4.586   6.512   7.464 -0.4548  0.9809  1.4025
 2224TIP3   OH230866   7.018   7.258   9.149  0.4794 -0.1959 -0.3617
 2224TIP3    H130867   6.956   7.193   9.184 -0.0007  0.5155  0.1591
 2224TIP3    H230868   7.061   7.214   9.076 -0.5912 -0.7446 -0.6876
 2225TIP3   OH230869   7.034   1.129   7.882 -0.1871 -0.5219 -0.1038
 2225TIP3    H130870   6.941   1.150   7.881 -0.1834 -0.5247 -1.4067
 2225TIP3    H230871   7.076   1.206   7.922 -0.7289 -0.5142  0.4633
 2226TIP3   OH230872   4.179   2.277   9.059  0.1713  0.2302  0.0412
 2226TIP3    H130873   4.084   2.269   9.046  0.0502  1.7222 -0.0878
 2226TIP3    H230874   4.189   2.347   9.123  1.1762 -0.3542  0.5411
 2227TIP3   OH230875   2.408   3.311   8.416  0.6843  0.0524 -0.5279
 2227TIP3    H130876   2.330   3.342   8.369  1.2008  1.1117 -0.7302
 2227TIP3    H230877   2.459   3.264   8.351  0.6772  0.2169 -0.6549
 2228TIP3   OH230878   0.203   0.528   8.650  0.2153 -0.0183  0.6487
 2228TIP3    H130879   0.205   0.490   8.738  0.3898  0.8171  1.0263
 2228TIP3    H230880   0.292   0.515   8.616  0.1994 -0.1828  0.6726
 2229TIP3   OH230881   4.084   6.858   8.309  0.2751  0.2612  0.2709
 2229TIP3    H130882   4.139   6.936   8.318  0.2341  0.2935  0.2408
 2229TIP3    H230883   4.074   6.847   8.215 -0.2322  0.5746  0.2885
 2230TIP3   OH230884   1.559   2.764   9.044 -0.0040  0.0426 -0.6400
 2230TIP3    H130885   1.563   2.694   9.110  0.4688  1.7004  1.2138
 2230TIP3    H230886   1.650   2.792   9.034 -0.4617  2.6897  1.3935
 2231TIP3   OH230887   2.233   4.630   8.141  0.0485  0.0512 -0.0728
 2231TIP3    H130888   2.191   4.565   8.198 -0.8678 -0.1037 -0.9000
 2231TIP3    H230889   2.273   4.692   8.201  1.1751 -1.4153  0.7467
 2232TIP3   OH230890   1.318   6.868   8.015 -0.2386  1.1670  0.0452
 2232TIP3    H130891   1.353   6.862   8.104 -1.1026 -1.0452  0.2919
 2232TIP3    H230892   1.385   6.829   7.959 -1.2525 -1.0267  0.2540
 2233TIP3   OH230893   1.223   6.814   7.253 -0.0651  0.6348 -0.6692
 2233TIP3    H130894   1.154   6.803   7.319  0.0759 -4.9112 -0.9859
 2233TIP3    H230895   1.175   6.831   7.172 -0.8423  0.0822 -0.3391
 2234TIP3   OH230896   3.669   3.423   8.252 -0.1911 -0.2071  0.1526
 2234TIP3    H130897   3.627   3.373   8.182 -2.0557  1.0387  0.2936
 2234TIP3    H230898   3.659   3.368   8.329 -0.2710 -0.5700 -0.1125
 2235TIP3   OH230899   5.608   3.957   8.166  0.0173  0.1528  0.0789
 2235TIP3    H130900   5.612   4.027   8.101  0.4561 -0.1292 -0.2047
 2235TIP3    H230901   5.576   4.000   8.245 -0.4553  0.5132 -0.3000
 2236TIP3   OH230902   0.500   6.520   8.908  0.3936  0.0496 -0.0038
 2236TIP3    H130903   0.425   6.477   8.867  1.9600 -3.7806  0.7564
 2236TIP3    H230904   0.545   6.564   8.836 -2.3629  2.3548 -0.4908
 2237TIP3   OH230905   3.413   2.808   9.119  0.3117 -0.4593  0.4520
 2237TIP3    H130906   3.402   2.770   9.206  0.2181 -1.3481  0.0681
 2237TIP3    H230907   3.326   2.840   9.095 -0.1128 -1.8507 -0.0287
 2238TIP3   OH230908   1.559   6.557   8.912 -0.8773 -0.9193 -0.1682
 2238TIP3    H130909   1.549   6.493   8.841 -1.2044 -0.8961 -0.1447
 2238TIP3    H230910   1.653   6.563   8.926 -0.5679  1.1028 -2.4614
 2239TIP3   OH230911   2.561   0.201   8.608 -0.6695  0.2340  0.0073
 2239TIP3    H130912   2.512   0.190   8.526 -0.1187 -2.0936 -0.0895
 2239TIP3    H230913   2.587   0.112   8.632 -0.0220  0.9625  2.2427
 2240TIP3   OH230914   3.173   6.723   9.032  0.4432 -0.5691 -0.1995
 2240TIP3    H130915   3.224   6.774   9.094 -1.7020 -0.1543  1.3341
 2240TIP3    H230916   3.238   6.684   8.973  2.3429  1.3659  0.5132
 2241TIP3   OH230917   6.867   1.994   7.361  0.1678  0.0611 -0.1207
 2241TIP3    H130918   6.854   1.971   7.453 -3.0845 -2.1052 -0.9839
 2241TIP3    H230919   6.910   1.918   7.323 -1.8061 -0.6620 -1.0440
 2242TIP3   OH230920   7.471   4.470   6.885  0.1982  0.6571  0.0851
 2242TIP3    H130921   7.475   4.550   6.833 -0.7474 -0.2579 -1.4893
 2242TIP3    H230922   7.392   4.480   6.938 -0.4213  0.3993 -0.7753
 2243TIP3   OH230923   3.021   7.003   7.373 -0.9616 -0.5210 -0.2488
 2243TIP3    H130924   3.061   7.088   7.388 -0.6852 -0.5600 -0.7490
 2243TIP3    H230925   2.951   7.020   7.310 -1.8463 -0.4278  0.7227
 2244TIP3   OH230926   4.962   2.799   8.994 -0.0180  0.0418  0.5231
 2244TIP3    H130927   5.045   2.757   9.016 -0.3726 -2.3971 -2.1316
 2244TIP3    H230928   4.934   2.841   9.075  1.2010 -3.5690  3.0654
 2245TIP3   OH230929   2.890   4.292   8.395  0.3297 -0.2683 -0.4389
 2245TIP3    H130930   2.983   4.270   8.384  0.5455  0.8339 -0.9520
 2245TIP3    H230931   2.870   4.347   8.320 -0.9054 -0.9454 -0.6337
 2246TIP3   OH230932   3.594   5.221   9.346  0.1102 -0.1129  0.0745
 2246TIP3    H130933   3.500   5.219   9.361  0.1975 -0.0128  0.6815
 2246TIP3    H230934   3.607   5.292   9.283 -0.3039 -0.7303 -0.7233
 2247TIP3   OH230935   7.074   5.514   9.499 -0.0068 -0.5959  0.2814
 2247TIP3    H130936   6.992   5.472   9.472  0.0434 -0.0007 -0.8279
 2247TIP3    H230937   7.110   5.551   9.419  0.1273  1.2581  1.1411
 2248TIP3   OH230938   6.838   0.127   7.966  0.0349  0.3589  0.1266
 2248TIP3    H130939   6.815   0.178   8.044 -0.0344  1.1406 -0.3999
 2248TIP3    H230940   6.930   0.150   7.949  0.0913  0.0826  0.0581
 2249TIP3   OH230941   0.879   1.095   8.856  0.0630 -0.0951  0.5143
 2249TIP3    H130942   0.974   1.088   8.844  0.6691  3.7622  1.3759
 2249TIP3    H230943   0.869   1.112   8.950 -1.1209  2.1655  0.0464
 2250TIP3   OH230944   3.241   2.556   8.510  0.2361 -0.0408 -0.0899
 2250TIP3    H130945   3.194   2.535   8.430  1.5989  1.8629 -1.4728
 2250TIP3    H230946   3.229   2.479   8.566 -0.3509 -1.6298 -2.2806
 2251TIP3   OH230947   0.618   3.286   9.171 -0.3804  0.7467 -0.5321
 2251TIP3    H130948   0.637   3.333   9.253 -0.5669 -1.3445  0.7872
 2251TIP3    H230949   0.555   3.341   9.125  0.1456  2.2371  0.4729
 2252TIP3   OH230950   1.837   6.137   8.371 -0.2791  0.7915  0.3308
 2252TIP3    H130951   1.798   6.224   8.355 -0.7554  0.8676  1.7491
 2252TIP3    H230952   1.868   6.109   8.285 -1.4210  1.7387 -0.4378
 2253TIP3   OH230953   2.914   3.616   7.701  0.1582 -0.2013 -0.1280
 2253TIP3    H130954   2.837   3.560   7.711  0.3911 -0.6748 -0.9174
 2253TIP3    H230955   2.970   3.570   7.639 -0.2006  1.4808 -1.8199
 2254TIP3   OH230956   7.323   5.855   7.507  0.3745  0.3171 -0.2552
 2254TIP3    H130957   7.408   5.818   7.484  0.6260  0.9258 -0.3449
 2254TIP3    H230958   7.345   5.937   7.552 -0.1346 -0.4257  1.3843
 2255TIP3   OH230959   3.785   5.256   8.780 -1.0731  0.2156 -0.0568
 2255TIP3    H130960   3.831   5.310   8.844 -1.4602  1.9285 -1.1438
 2255TIP3    H230961   3.835   5.266   8.699 -2.1543  0.4299 -0.7316
 2256TIP3   OH230962   4.145   1.852   7.805 -0.0403 -0.0674 -0.1522
 2256TIP3    H130963   4.074   1.916   7.811 -1.8101 -1.9582  0.7299
 2256TIP3    H230964   4.169   1.834   7.896  1.8097  0.7319 -0.4460
 2257TIP3   OH230965   2.025   7.374   7.160  0.2208 -0.1383  0.3113
 2257TIP3    H130966   1.981   7.423   7.090  0.5631 -0.9084 -0.4652
 2257TIP3    H230967   2.031   7.285   7.126 -2.2803 -1.2782  2.5515
 2258TIP3   OH230968   3.162   5.987   6.874 -0.2934  0.4136 -0.4729
 2258TIP3    H130969   3.181   6.042   6.798 -0.0019  0.8556 -0.0802
 2258TIP3    H230970   3.071   5.961   6.862 -0.8698  2.0884  0.0298
 2259TIP3   OH230971   2.244   2.595   8.541 -0.3953 -0.6002  0.3856
 2259TIP3    H130972   2.156   2.559   8.552 -0.9595  0.3671 -0.7535
 2259TIP3    H230973   2.235   2.658   8.470  1.3779 -0.9947 -0.2262
 2260TIP3   OH230974   3.139   2.485   7.002 -0.1915  0.9321  0.5259
 2260TIP3    H130975   3.142   2.534   7.084 -0.1266  0.4497  0.8107
 2260TIP3    H230976   3.226   2.496   6.964 -0.1668  1.0139  0.6055
 2261TIP3   OH230977   4.832   6.249   7.547  0.0630 -0.4481 -0.2729
 2261TIP3    H130978   4.888   6.174   7.568  0.2124 -0.3874 -0.4536
 2261TIP3    H230979   4.759   6.242   7.608  0.0446 -0.7788 -0.3329
 2262TIP3   OH230980   1.008   3.285   9.142 -0.5687  0.4673 -0.7626
 2262TIP3    H130981   1.016   3.370   9.185 -0.4466 -0.2819  0.7681
 2262TIP3    H230982   1.092   3.271   9.099  0.1038  0.3251  0.5433
 2263TIP3   OH230983   7.250   4.870   8.426  0.2409 -0.4879  0.1568
 2263TIP3    H130984   7.189   4.866   8.352  0.3218 -2.9387  0.1646
 2263TIP3    H230985   7.225   4.950   8.472 -1.5228 -0.2724 -1.0472
 2264TIP3   OH230986   6.032   4.847   8.656  0.2281  0.1430  0.5273
 2264TIP3    H130987   6.020   4.820   8.565 -1.6573  0.5366  0.6082
 2264TIP3    H230988   6.117   4.811   8.681  0.5127 -0.4812 -1.1977
 2265TIP3   OH230989   7.356   6.862   8.436  0.5440 -0.5211 -0.4158
 2265TIP3    H130990   7.331   6.796   8.372  0.9481 -0.6103 -0.4850
 2265TIP3    H230991   7.331   6.824   8.520  0.8479 -0.8030 -0.4476
 2266TIP3   OH230992   4.718   1.540   9.133  0.1819 -0.3160  0.5373
 2266TIP3    H130993   4.687   1.497   9.053 -3.9547 -1.8901  2.6757
 2266TIP3    H230994   4.641   1.588   9.165  2.6513  3.1117  1.9324
 2267TIP3   OH230995   6.312   0.473   7.321  0.0648  0.1337  0.1187
 2267TIP3    H130996   6.334   0.480   7.228 -0.7920 -0.1643 -0.1236
 2267TIP3    H230997   6.349   0.389   7.348  1.0611  0.6131  0.2759
 2268TIP3   OH230998   5.122   5.986   9.266 -0.5776 -0.6741  0.0170
 2268TIP3    H130999   5.156   5.897   9.273  0.1314 -0.2875  2.5895
 2268TIP3    H231000   5.033   5.981   9.303 -0.8159 -0.4421 -0.5131
 2269TIP3   OH231001   1.554   4.049   9.050 -0.2063  0.1576  0.0258
 2269TIP3    H131002   1.563   4.139   9.020  0.7268  0.5660  1.4097
 2269TIP3    H231003   1.643   4.013   9.044  0.3166  0.6441  3.2847
 2270TIP3   OH231004   6.465   2.389   9.057 -0.4537  0.4741  0.2550
 2270TIP3    H131005   6.403   2.430   8.996 -0.8811  0.0076  0.3664
 2270TIP3    H231006   6.425   2.305   9.078  0.7720 -0.3462 -0.5529
 2271TIP3   OH231007   5.078   6.797   6.648  0.3294 -0.2573  0.3556
 2271TIP3    H131008   5.027   6.725   6.612 -0.8366  0.2559  0.9345
 2271TIP3    H231009   5.019   6.840   6.710  2.1306 -0.9159  2.6669
 2272TIP3   OH231010   3.658   2.099   6.719  0.1369 -0.4075 -0.3657
 2272TIP3    H131011   3.698   2.095   6.806 -0.5245  2.9114  0.2324
 2272TIP3    H231012   3.664   2.009   6.686  1.2070 -1.6256  2.7163
 2273TIP3   OH231013   3.492   0.529   9.254 -0.1786 -0.3497  0.1085
 2273TIP3    H131014   3.411   0.546   9.302  0.0440  0.0041  0.3645
 2273TIP3    H231015   3.533   0.616   9.246 -0.9710 -0.1181 -2.1002
 2274TIP3   OH231016   7.163   5.051   7.134  0.0514 -0.2013 -0.3271
 2274TIP3    H131017   7.187   4.964   7.167  0.2869 -0.1186 -0.2761
 2274TIP3    H231018   7.073   5.041   7.104 -1.8697  0.7038  4.2650
 2275TIP3   OH231019   1.088   5.741   7.722 -0.2267 -0.7529 -0.0393
 2275TIP3    H131020   1.151   5.706   7.785  0.5989  0.2837 -0.2613
 2275TIP3    H231021   1.090   5.679   7.649  0.0618 -1.0655  0.2345
 2276TIP3   OH231022   0.126   5.283   6.750 -0.1578 -0.2683 -0.8760
 2276TIP3    H131023   0.153   5.357   6.696 -0.7529  0.2397 -0.4812
 2276TIP3    H231024   0.202   5.225   6.750  0.4811  0.5476 -0.8227
 2277TIP3   OH231025   2.940   3.554   8.139 -0.3303 -0.2224 -0.2465
 2277TIP3    H131026   3.034   3.536   8.143  0.2512  1.6991 -2.6800
 2277TIP3    H231027   2.900   3.468   8.131  1.1013 -1.1534  1.8162
 2278TIP3   OH231028   4.177   4.112   8.684  0.4150  0.1804  0.1230
 2278TIP3    H131029   4.105   4.167   8.716 -0.0188 -0.1524 -0.2714
 2278TIP3    H231030   4.175   4.036   8.741 -0.3041 -0.3735 -0.6118
 2279TIP3   OH231031   7.358   1.910   8.623 -0.5839  0.0285  0.6355
 2279TIP3    H131032   7.266   1.898   8.603 -0.2323 -0.4316 -0.8392
 2279TIP3    H231033   7.364   1.898   8.718 -1.8278 -1.3515  0.5762
 2280TIP3   OH231034   4.816   2.915   8.663  0.7100 -0.2147 -0.1837
 2280TIP3    H131035   4.810   2.996   8.612 -0.6712 -0.1534  0.0321
 2280TIP3    H231036   4.909   2.904   8.679  0.9288  1.3470 -0.2090
 2281TIP3   OH231037   4.124   1.735   7.495  0.0816 -0.2542  0.9921
 2281TIP3    H131038   4.139   1.642   7.479 -0.0232 -0.3423  1.3954
 2281TIP3    H231039   4.164   1.752   7.581 -0.4621 -0.0710  1.2140
 2282TIP3   OH231040   4.602   0.883   9.091  0.1827  0.1702  0.4802
 2282TIP3    H131041   4.682   0.933   9.108 -0.5782  1.1051  1.4239
 2282TIP3    H231042   4.562   0.926   9.016  1.4260 -1.3972 -1.1679
 2283TIP3   OH231043   5.490   3.725   9.440  0.2344  0.3050  0.1977
 2283TIP3    H131044   5.511   3.776   9.362  0.3182  0.2894  0.2110
 2283TIP3    H231045   5.424   3.777   9.486 -0.5561 -0.1468 -0.3943
 2284TIP3   OH231046   2.767   3.259   7.346  0.9111  0.2377 -0.1361
 2284TIP3    H131047   2.692   3.207   7.317 -0.3239 -0.4630  3.7362
 2284TIP3    H231048   2.745   3.349   7.321 -1.2799  0.0388  0.8422
 2285TIP3   OH231049   7.598   1.666   8.991  0.0506  0.0835  0.2860
 2285TIP3    H131050   7.584   1.624   8.906  1.2814 -0.3738  0.2853
 2285TIP3    H231051   7.671   1.727   8.975 -0.7755  1.1972  0.6323
 2286TIP3   OH231052   2.673   2.898   6.626  0.4323 -0.6812 -0.0177
 2286TIP3    H131053   2.763   2.929   6.621 -0.1237  0.8697 -1.1816
 2286TIP3    H231054   2.655   2.862   6.539 -0.2040 -0.5525  0.0522
 2287TIP3   OH231055   5.436   1.314   8.353 -0.0963 -0.1558  0.2166
 2287TIP3    H131056   5.418   1.401   8.391  0.5565  0.2214 -0.3115
 2287TIP3    H231057   5.376   1.255   8.398 -1.4945  0.7856 -0.3479
 2288TIP3   OH231058   4.870   0.524   8.734  0.1678 -0.3246 -0.0512
 2288TIP3    H131059   4.910   0.448   8.693  0.3952 -0.6608  0.7689
 2288TIP3    H231060   4.913   0.530   8.820 -1.6615 -0.8201  0.9538
 2289TIP3   OH231061   4.168   1.464   7.459 -0.1013  0.2612 -0.2259
 2289TIP3    H131062   4.204   1.391   7.510 -1.6797  0.1049  0.7096
 2289TIP3    H231063   4.102   1.424   7.403 -0.3877  0.8632 -0.3176
 2290TIP3   OH231064   0.084   1.575   9.223 -0.1229 -0.3327  0.0718
 2290TIP3    H131065   0.012   1.616   9.175  0.2019 -1.0029 -0.9990
 2290TIP3    H231066   0.067   1.481   9.217  0.2952 -0.4553  0.6963
 2291TIP3   OH231067   2.382   5.102   8.312  0.0421 -0.4422  0.4304
 2291TIP3    H131068   2.425   5.113   8.228  0.7653 -0.0229  0.8416
 2291TIP3    H231069   2.314   5.171   8.313 -2.1279 -2.4081 -1.0824
 2292TIP3   OH231070   6.091   7.395   8.891 -0.1129 -0.4349 -0.1235
 2292TIP3    H131071   6.139   7.315   8.868  0.5550  0.3214 -1.4089
 2292TIP3    H231072   6.149   7.466   8.867 -1.6042  0.5030 -1.1351
 2293TIP3   OH231073   1.915   4.141   7.682  0.0770  0.5347 -0.2280
 2293TIP3    H131074   1.831   4.187   7.671  0.4760  1.3384 -0.0267
 2293TIP3    H231075   1.963   4.161   7.602  0.5700  1.1659  0.2150
 2294TIP3   OH231076   3.376   7.569   8.782  0.6820  0.2812 -0.2781
 2294TIP3    H131077   3.436   7.639   8.758  1.3554 -0.4672 -0.8427
 2294TIP3    H231078   3.289   7.608   8.775  1.0985  1.6053  1.2710
 2295TIP3   OH231079   2.262   0.050   7.658  0.0046  0.1121 -0.4526
 2295TIP3    H131080   2.183   0.004   7.686  0.6121 -0.8151 -0.2225
 2295TIP3    H231081   2.297  -0.003   7.587  0.4325  0.5122 -0.5464
 2296TIP3   OH231082   2.120   2.149   9.271 -0.6258  0.0376 -0.3011
 2296TIP3    H131083   2.117   2.240   9.300  0.5768 -0.6514  2.2613
 2296TIP3    H231084   2.193   2.146   9.209  0.1494  0.6024  0.5609
 2297TIP3   OH231085   2.756   4.037   8.196 -0.1266  0.0246 -0.0272
 2297TIP3    H131086   2.679   4.093   8.206 -0.3336 -0.1095 -0.7923
 2297TIP3    H231087   2.827   4.097   8.174  0.0669  0.1862  1.0099
 2298TIP3   OH231088   5.208   4.730   8.464 -0.5572  0.2453  0.1170
 2298TIP3    H131089   5.217   4.825   8.464  1.1501  0.1119  0.9199
 2298TIP3    H231090   5.124   4.714   8.420 -0.7197  2.0915 -0.3187
 2299TIP3   OH231091   2.185   4.884   7.415  0.2307 -0.3947 -0.1401
 2299TIP3    H131092   2.096   4.920   7.417 -0.2538 -1.5638  0.6661
 2299TIP3    H231093   2.217   4.903   7.327 -0.5002  0.7753 -0.1718
 2300TIP3   OH231094   5.203   3.697   9.287  0.6959 -0.3604  0.4858
 2300TIP3    H131095   5.245   3.640   9.222  1.0387  0.0274  0.3678
 2300TIP3    H231096   5.230   3.785   9.263 -0.1737 -0.1035  0.4198
 2301TIP3   OH231097   6.714   6.790   7.269 -0.4850 -0.3329 -0.0417
 2301TIP3    H131098   6.638   6.788   7.211 -0.0393 -0.0234 -0.6425
 2301TIP3    H231099   6.677   6.788   7.357 -1.3829  2.8746 -0.2110
 2302TIP3   OH231100   4.471   5.240   7.781 -0.0461 -0.2031  0.7579
 2302TIP3    H131101   4.497   5.242   7.689 -2.9308 -0.6105 -0.1801
 2302TIP3    H231102   4.431   5.325   7.796 -1.8068 -0.9930  0.8381
 2303TIP3   OH231103   3.116   3.722   7.119  0.1170 -0.3494  0.4771
 2303TIP3    H131104   3.033   3.683   7.089 -0.4331 -0.7545  2.3862
 2303TIP3    H231105   3.153   3.763   7.040 -1.3146 -1.1698 -0.6820
 2304TIP3   OH231106   0.453   4.766   7.853  0.6059  0.5270 -0.3356
 2304TIP3    H131107   0.525   4.726   7.804  0.2510 -0.0586 -0.3798
 2304TIP3    H231108   0.425   4.840   7.799 -1.1590 -1.3047 -2.1135
 2305TIP3   OH231109   5.379   1.043   7.252 -0.5542 -0.0418  0.3543
 2305TIP3    H131110   5.420   1.028   7.167  1.0604  1.1972  0.8837
 2305TIP3    H231111   5.320   1.117   7.238 -0.4330  0.0372  0.2588
 2306TIP3   OH231112   2.173   7.448   7.824 -0.0578 -0.5952  0.1932
 2306TIP3    H131113   2.213   7.405   7.748  0.9153  1.0982 -0.3181
 2306TIP3    H231114   2.085   7.470   7.795 -0.1659 -1.2084  0.0544
 2307TIP3   OH231115   4.103   2.594   8.689 -0.7341 -0.2399  0.5213
 2307TIP3    H131116   4.148   2.670   8.653 -1.8369 -0.8745 -2.4161
 2307TIP3    H231117   4.040   2.631   8.752  2.7603  0.7314  3.8145
 2308TIP3   OH231118   6.025   0.018   6.617 -0.2887 -0.5974 -0.1826
 2308TIP3    H131119   6.013   0.111   6.637 -0.0306 -0.5257 -0.3566
 2308TIP3    H231120   6.120   0.006   6.615 -0.2900 -0.5779 -1.4434
 2309TIP3   OH231121   7.546   6.270   7.538 -0.2538 -0.7358  0.0383
 2309TIP3    H131122   7.589   6.307   7.615  0.2865 -1.3537  0.0379
 2309TIP3    H231123   7.452   6.284   7.553 -0.0931  0.0888  0.3136
 2310TIP3   OH231124   6.147   7.467   9.287  0.2173  0.0771 -0.4462
 2310TIP3    H131125   6.227   7.424   9.318  0.9648  1.2785 -0.6399
 2310TIP3    H231126   6.112   7.407   9.221  1.1516 -0.3183 -0.6092
 2311TIP3   OH231127   0.959   5.712   8.965  0.2413  0.7548 -0.4808
 2311TIP3    H131128   0.866   5.715   8.987  0.2697 -1.4185  0.1652
 2311TIP3    H231129   0.965   5.761   8.883 -2.1144 -1.8061 -2.3797
 2312TIP3   OH231130   0.004   6.797   8.919 -0.0695 -0.5477 -0.2711
 2312TIP3    H131131   0.048   6.818   8.837  2.0822  1.1829  1.2249
 2312TIP3    H231132   0.048   6.718   8.951  1.8810  0.9844  1.0514
 2313TIP3   OH231133   1.262   4.912   9.260  0.5296 -0.0890  0.4307
 2313TIP3    H131134   1.263   5.005   9.237 -1.3450  0.4393  2.2194
 2313TIP3    H231135   1.214   4.870   9.188 -0.6581  0.7227  0.7203
 2314TIP3   OH231136   6.991   3.294   8.458  0.4861 -0.1038 -0.7469
 2314TIP3    H131137   7.004   3.206   8.492 -0.2646 -0.8975 -2.3796
 2314TIP3    H231138   6.969   3.347   8.534  2.5176 -0.9600  0.4985
 2315TIP3   OH231139   5.986   5.192   9.712 -0.2010 -0.3582 -0.2476
 2315TIP3    H131140   5.947   5.119   9.760 -0.8928 -0.0501 -0.3174
 2315TIP3    H231141   6.037   5.151   9.643 -0.2935 -0.7800 -0.0695
 2316TIP3   OH231142   4.944   3.604   8.360 -0.5839 -0.3846  0.3238
 2316TIP3    H131143   5.031   3.633   8.332 -0.4543 -1.8266 -0.9277
 2316TIP3    H231144   4.890   3.610   8.281 -1.3225 -0.5874  0.8020
 2317TIP3   OH231145   2.763   5.456   8.254 -0.4558  0.3443  0.2823
 2317TIP3    H131146   2.798   5.375   8.216  1.6387  0.5515  1.5720
 2317TIP3    H231147   2.668   5.445   8.251 -0.3036 -1.0771 -1.7941
 2318TIP3   OH231148   7.282   4.873   9.029  0.4554  0.1940 -0.3218
 2318TIP3    H131149   7.369   4.906   9.007  1.2085 -2.1234 -1.1499
 2318TIP3    H231150   7.227   4.898   8.954  0.2110  2.1518  0.4553
 2319TIP3   OH231151   0.964   0.225   9.138 -0.5536  0.0523  0.4225
 2319TIP3    H131152   0.941   0.274   9.059 -1.4317  0.8350  1.1355
 2319TIP3    H231153   1.039   0.171   9.112 -0.2952  0.9107 -0.7112
 2320TIP3   OH231154   5.674   3.252   6.952 -0.3110  0.1944  0.1790
 2320TIP3    H131155   5.675   3.161   6.981  0.3884  0.6641  1.7625
 2320TIP3    H231156   5.756   3.289   6.987 -1.1155  1.7055  0.5607
 2321TIP3   OH231157   5.824   6.885   9.270 -0.7491 -0.2375 -0.0861
 2321TIP3    H131158   5.797   6.843   9.188 -0.7143  1.6457 -1.1128
 2321TIP3    H231159   5.743   6.920   9.307 -0.6105 -0.0965  0.0875
 2322TIP3   OH231160   7.210   7.433   7.130 -0.3418 -0.1862  0.5160
 2322TIP3    H131161   7.260   7.487   7.191  1.0295  0.1715 -0.8693
 2322TIP3    H231162   7.146   7.493   7.092  0.4162  0.1927 -0.1747
 2323TIP3   OH231163   6.008   2.255   7.985 -0.0436  0.4212  0.1294
 2323TIP3    H131164   5.962   2.205   8.053  1.8431 -0.9488  0.4888
 2323TIP3    H231165   6.093   2.277   8.025  0.9005  0.0461 -1.5832
 2324TIP3   OH231166   6.243   1.635   9.427 -0.4852  0.0377 -0.6083
 2324TIP3    H131167   6.212   1.713   9.381  2.1583  1.2369 -0.5121
 2324TIP3    H231168   6.269   1.666   9.513  0.0501 -1.0519 -0.3572
 2325TIP3   OH231169   7.059   5.244   8.267 -0.0280 -0.2045  0.2003
 2325TIP3    H131170   7.150   5.271   8.274  0.1661 -1.1257  1.8716
 2325TIP3    H231171   7.013   5.323   8.237  1.0781  0.7955  1.0277
 2326TIP3   OH231172   1.534   5.313   7.432  0.4912 -0.2390 -0.1697
 2326TIP3    H131173   1.511   5.379   7.497 -1.0888 -1.7746  0.9302
 2326TIP3    H231174   1.629   5.319   7.424  0.3986  2.1904 -0.1964
 2327TIP3   OH231175   0.773   0.662   8.839 -0.4584 -0.3341  0.4753
 2327TIP3    H131176   0.709   0.689   8.774 -1.3120 -2.2412  0.4721
 2327TIP3    H231177   0.855   0.653   8.790 -0.7738 -0.3912 -0.0455
 2328TIP3   OH231178   3.820   3.846   8.448 -0.0077 -0.4831 -0.2573
 2328TIP3    H131179   3.833   3.758   8.482  1.0718  0.3943  1.7881
 2328TIP3    H231180   3.899   3.864   8.397  0.9395  0.0977  1.3151
 2329TIP3   OH231181   0.732   5.682   8.255 -0.2119 -0.2437 -0.1042
 2329TIP3    H131182   0.692   5.608   8.301 -1.4515  2.0080  2.8210
 2329TIP3    H231183   0.821   5.687   8.290  0.3081 -1.0306 -1.2543
 2330TIP3   OH231184   2.973   0.925   9.489 -0.0195 -0.7304 -0.3697
 2330TIP3    H131185   3.047   0.874   9.455 -0.0954 -2.2060  1.5058
 2330TIP3    H231186   2.900   0.863   9.492 -0.6186 -0.0192  0.2280
 2331TIP3   OH231187   4.547   7.365   7.176  0.9331 -0.1074 -0.1251
 2331TIP3    H131188   4.585   7.396   7.258  1.9025  1.1016 -0.9920
 2331TIP3    H231189   4.456   7.345   7.197  1.2523 -0.1259  1.3031
 2332TIP3   OH231190   5.026   0.461   7.357  0.3590 -0.2604 -0.4206
 2332TIP3    H131191   4.945   0.506   7.334  1.7688  2.2748 -0.8440
 2332TIP3    H231192   5.036   0.394   7.290 -0.3099  0.8537 -1.6791
 2333TIP3   OH231193   5.362   3.761   8.526 -0.0574  0.0718  0.2181
 2333TIP3    H131194   5.268   3.760   8.542  0.0919 -2.2775  1.4168
 2333TIP3    H231195   5.370   3.752   8.431 -1.1291 -2.5439  0.2841
 2334TIP3   OH231196   5.018   6.836   7.221  0.1856 -0.4878  0.0721
 2334TIP3    H131197   5.014   6.929   7.198 -0.9225 -0.0379  1.9365
 2334TIP3    H231198   5.042   6.793   7.139  1.8354  1.5166 -0.5944
 2335TIP3   OH231199   2.342   1.808   9.178  0.0300 -0.1244 -0.1357
 2335TIP3    H131200   2.324   1.715   9.190 -2.5835  0.3834  0.4803
 2335TIP3    H231201   2.382   1.836   9.260 -0.9327 -0.3441  0.4233
 2336TIP3   OH231202   4.766   1.204   7.007  0.4569 -0.3872 -0.1268
 2336TIP3    H131203   4.675   1.234   7.013  0.6977  0.2036  0.6502
 2336TIP3    H231204   4.806   1.261   6.942  0.3695 -0.4040 -0.1963
 2337TIP3   OH231205   7.499   7.495   8.677 -0.6703  0.0281 -0.0379
 2337TIP3    H131206   7.526   7.414   8.721 -1.8853  0.0964  0.8782
 2337TIP3    H231207   7.581   7.535   8.649 -0.0196 -1.3693 -0.2598
 2338TIP3   OH231208   6.635   0.715   9.497 -0.2584  0.1873 -0.3879
 2338TIP3    H131209   6.597   0.738   9.582 -1.4244  0.4249 -0.9455
 2338TIP3    H231210   6.576   0.755   9.433  0.2990 -0.4415 -1.3214
 2339TIP3   OH231211   6.374   1.100   8.690  0.0183  0.4492 -0.1349
 2339TIP3    H131212   6.429   1.135   8.759 -0.4402  0.7733  0.0761
 2339TIP3    H231213   6.369   1.171   8.625 -0.3441  0.5190 -0.0361
 2340TIP3   OH231214   6.703   7.363   7.129  0.3290  0.5696  0.5570
 2340TIP3    H131215   6.661   7.277   7.139 -0.3531  0.9949  1.5186
 2340TIP3    H231216   6.644   7.412   7.072  0.1792  0.7463  0.8649
 2341TIP3   OH231217   2.988   5.673   8.821 -0.0731 -0.2320 -0.7212
 2341TIP3    H131218   3.006   5.580   8.829  1.3052  0.1241  0.9888
 2341TIP3    H231219   2.892   5.678   8.814 -0.1605 -1.7584 -0.9693
 2342TIP3   OH231220   1.047   6.339   8.783  0.6159 -0.2938 -0.4516
 2342TIP3    H131221   0.972   6.326   8.725 -0.4484  0.1790  0.7563
 2342TIP3    H231222   1.053   6.434   8.793  0.0618 -0.3957  1.0824
 2343TIP3   OH231223   6.020   1.008   7.995  0.1088 -0.2773 -0.4500
 2343TIP3    H131224   6.099   1.060   7.977 -1.3424  0.8960 -4.7207
 2343TIP3    H231225   5.949   1.072   7.999 -1.0423 -1.5359  0.0562
 2344TIP3   OH231226   4.638   3.587   7.640 -0.1554  0.7832  0.0753
 2344TIP3    H131227   4.716   3.640   7.658  1.4005 -1.1833 -0.5561
 2344TIP3    H231228   4.628   3.590   7.545 -0.7312  0.8448  0.1351
 2345TIP3   OH231229   5.408   4.202   8.620 -0.1274  0.0612  0.3502
 2345TIP3    H131230   5.357   4.276   8.589 -0.0796 -0.3586 -0.7815
 2345TIP3    H231231   5.346   4.150   8.672  0.0075  1.1919  1.7238
 2346TIP3   OH231232   0.531   0.368   6.609 -0.4667 -1.1143  0.3183
 2346TIP3    H131233   0.527   0.446   6.664  0.3266  0.2877 -1.5314
 2346TIP3    H231234   0.526   0.400   6.519 -0.4009 -3.2221 -0.5097
 2347TIP3   OH231235   7.224   1.813   7.996  0.3667 -0.4570  0.5194
 2347TIP3    H131236   7.217   1.755   7.920  1.5807 -0.5922  0.4967
 2347TIP3    H231237   7.268   1.760   8.063  0.3614  0.0348  0.9178
 2348TIP3   OH231238   0.572   6.875   7.608 -0.0150 -0.1570  0.5610
 2348TIP3    H131239   0.651   6.928   7.612 -1.0251  1.4176  0.4651
 2348TIP3    H231240   0.563   6.839   7.697 -0.5988  1.8355  1.3565
 2349TIP3   OH231241   3.197   4.856   7.918 -0.4837  0.2264  0.2812
 2349TIP3    H131242   3.114   4.903   7.906 -0.7762  0.6719  3.3118
 2349TIP3    H231243   3.177   4.786   7.980  1.3776  0.2659  0.9856
 2350TIP3   OH231244   2.524   5.650   7.930 -0.4664  0.5112 -0.2368
 2350TIP3    H131245   2.548   5.558   7.930 -0.8474  0.4009  0.5809
 2350TIP3    H231246   2.435   5.652   7.965 -0.8663  1.1015 -1.2433
 2351TIP3   OH231247   2.297   3.455   6.822 -0.0001  0.0928 -0.6856
 2351TIP3    H131248   2.205   3.429   6.834 -0.0887  0.7822  0.2682
 2351TIP3    H231249   2.347   3.378   6.847 -0.3144 -0.8659 -2.8077
 2352TIP3   OH231250   0.065   4.893   7.616  0.5340  0.2865  0.2595
 2352TIP3    H131251   0.041   4.885   7.524  2.3240  1.3283 -0.3523
 2352TIP3    H231252   0.058   4.805   7.651  1.2260 -0.3948 -1.2438
 2353TIP3   OH231253   0.533   3.426   8.294  0.4855  0.4018 -0.3415
 2353TIP3    H131254   0.494   3.457   8.375 -0.3407  0.0896 -0.6101
 2353TIP3    H231255   0.458   3.404   8.238  1.0214 -1.0523 -0.5492
 2354TIP3   OH231256   4.473   6.568   7.218  0.0817  0.2959  0.3034
 2354TIP3    H131257   4.542   6.516   7.176 -0.4529  0.2464 -0.5595
 2354TIP3    H231258   4.392   6.521   7.196 -0.2799  0.6858  0.7811
 2355TIP3   OH231259   6.405   3.978   8.136 -0.5303  0.1971  0.0123
 2355TIP3    H131260   6.333   4.040   8.127 -0.6024  0.4409  1.8241
 2355TIP3    H231261   6.367   3.904   8.183  0.2774  0.1591  0.6379
 2356TIP3   OH231262   3.153   4.288   9.401  0.5520  0.2305  0.3541
 2356TIP3    H131263   3.085   4.323   9.343  0.4312  0.8736  0.8729
 2356TIP3    H231264   3.128   4.197   9.414  0.5049  0.1150 -0.4916
 2357TIP3   OH231265   2.526   2.773   9.482  0.2203 -0.1636 -0.2140
 2357TIP3    H131266   2.505   2.694   9.531 -1.7130  0.0745 -0.5730
 2357TIP3    H231267   2.494   2.756   9.393  0.7654  0.6267 -0.5817
 2358TIP3   OH231268   1.540   4.154   8.111 -0.1223  0.5054 -0.7574
 2358TIP3    H131269   1.625   4.198   8.120  0.4248 -0.7156  0.3349
 2358TIP3    H231270   1.477   4.216   8.148  0.6371  0.4249  0.7649
 2359TIP3   OH231271   0.695   3.855   9.080  0.6910  0.7684 -0.0168
 2359TIP3    H131272   0.653   3.775   9.050 -0.6958  1.3547  0.2530
 2359TIP3    H231273   0.727   3.834   9.168  0.1266  0.5691  0.1464
 2360TIP3   OH231274   1.609   6.942   8.771  0.2130  0.1046  0.0523
 2360TIP3    H131275   1.517   6.918   8.780  0.4763 -1.2365 -0.5801
 2360TIP3    H231276   1.639   6.961   8.860 -0.3774 -0.6182  0.4108
 2361TIP3   OH231277   5.846   4.034   7.801 -0.3097 -0.3975 -0.0616
 2361TIP3    H131278   5.871   4.067   7.715  1.4063 -0.0807  0.5296
 2361TIP3    H231279   5.863   4.106   7.861  1.9728 -1.7091  1.0177
 2362TIP3   OH231280   1.934   5.090   7.963  0.2442  0.2905 -0.2031
 2362TIP3    H131281   1.970   5.013   8.006  1.5532 -0.4743 -2.5058
 2362TIP3    H231282   1.839   5.076   7.963  0.4550 -1.3735 -0.6184
 2363TIP3   OH231283   2.887   4.956   9.257 -0.1649 -0.1445 -0.1677
 2363TIP3    H131284   2.953   5.026   9.255 -0.8411  0.4907 -1.0441
 2363TIP3    H231285   2.804   5.001   9.242 -0.8194 -0.9375  0.9028
 2364TIP3   OH231286   3.335   3.672   8.546  0.5497  0.2780  0.7326
 2364TIP3    H131287   3.424   3.695   8.522  1.1923 -1.2736  1.4871
 2364TIP3    H231288   3.344   3.622   8.627 -1.0889  0.8201  1.2929
 2365TIP3   OH231289   1.766   4.321   8.078  0.5926  0.5906 -0.0116
 2365TIP3    H131290   1.765   4.388   8.146 -1.2881  0.0240  0.5952
 2365TIP3    H231291   1.852   4.329   8.038  1.4666  1.4896  1.8849
 2366TIP3   OH231292   4.412   3.470   6.941  0.0760 -0.0711 -0.0840
 2366TIP3    H131293   4.477   3.423   6.888  0.8704  1.5185 -0.5780
 2366TIP3    H231294   4.328   3.433   6.914  0.5773 -0.2491 -1.4529
 2367TIP3   OH231295   2.139   4.593   8.939  0.0585 -0.4109 -0.3238
 2367TIP3    H131296   2.208   4.529   8.950  0.3447 -0.0629 -0.0490
 2367TIP3    H231297   2.162   4.640   8.859  1.1653  0.9326  0.7296
 2368TIP3   OH231298   3.374   2.891   7.163  0.0244 -1.1340 -0.3959
 2368TIP3    H131299   3.341   2.962   7.218  1.3536 -0.8791  0.1164
 2368TIP3    H231300   3.386   2.931   7.077 -0.8303 -1.1950 -0.5529
 2369TIP3   OH231301   1.804   6.773   9.127 -0.2573 -0.3978  0.1446
 2369TIP3    H131302   1.867   6.802   9.194 -0.9930  1.2435  0.1901
 2369TIP3    H231303   1.790   6.851   9.074  0.8502 -1.8397 -2.4269
 2370TIP3   OH231304   7.090   6.117   8.701  0.0393  0.2933 -0.2664
 2370TIP3    H131305   7.072   6.116   8.607 -0.5384  1.3895 -0.1829
 2370TIP3    H231306   7.026   6.178   8.737  0.3887  0.0407  0.8183
 2371TIP3   OH231307   4.568   1.561   8.272 -0.3091 -0.6148  0.2155
 2371TIP3    H131308   4.601   1.594   8.356 -2.4347 -1.1870  1.3495
 2371TIP3    H231309   4.480   1.598   8.265 -0.2300 -0.6985 -1.7328
 2372TIP3   OH231310   3.919   6.796   7.188 -0.3100 -0.2369 -0.4491
 2372TIP3    H131311   3.904   6.765   7.098  2.5921 -2.0527 -0.4641
 2372TIP3    H231312   3.984   6.866   7.179 -1.3952  0.8814  0.1501
 2373TIP3   OH231313   5.258   1.698   7.376  0.2253  0.0360 -0.3023
 2373TIP3    H131314   5.267   1.633   7.307  0.0986  0.4027 -0.6690
 2373TIP3    H231315   5.304   1.660   7.451 -0.1683 -0.6344 -0.3983
 2374TIP3   OH231316   6.752   4.529   7.999  0.4547  0.1538 -0.4702
 2374TIP3    H131317   6.844   4.503   8.003  0.4727  0.3306  2.1171
 2374TIP3    H231318   6.754   4.619   7.968  1.0734 -0.1206 -1.2510
 2375TIP3   OH231319   1.617   4.552   8.500  0.2045  0.5464 -0.1515
 2375TIP3    H131320   1.588   4.465   8.526  0.1413  0.6151  0.0118
 2375TIP3    H231321   1.549   4.611   8.532  0.5513  0.7131  0.2986
 2376TIP3   OH231322   7.239   0.374   7.372  0.1566  0.3306  0.0104
 2376TIP3    H131323   7.184   0.408   7.443 -1.5268 -1.6683 -0.2446
 2376TIP3    H231324   7.217   0.427   7.296 -0.3503  0.4796  0.2579
 2377TIP3   OH231325   0.677   3.019   7.301 -0.0094 -0.5210  0.5685
 2377TIP3    H131326   0.681   3.103   7.254 -2.0229 -0.4741  0.3647
 2377TIP3    H231327   0.743   2.964   7.260  0.7710  0.7007  0.1444
 2378TIP3   OH231328   0.262   3.794   7.205 -0.4476  0.3617  0.0278
 2378TIP3    H131329   0.255   3.770   7.113  1.8354 -0.7673  0.0582
 2378TIP3    H231330   0.312   3.722   7.244 -2.5215  0.0981  2.4765
 2379TIP3   OH231331   3.646   2.773   8.836  0.5946  0.8170  0.2123
 2379TIP3    H131332   3.590   2.846   8.863 -0.4968 -0.1770  0.6993
 2379TIP3    H231333   3.637   2.770   8.740 -0.7242  0.2719  0.3329
 2380TIP3   OH231334   0.214   5.236   7.896  0.2247 -0.2786  0.0072
 2380TIP3    H131335   0.126   5.198   7.902 -0.4904  1.1242 -0.8639
 2380TIP3    H231336   0.269   5.164   7.866 -1.0344 -0.7113 -1.4272
 2381TIP3   OH231337   7.115   6.504   6.523  0.1651 -0.1017  0.4253
 2381TIP3    H131338   7.090   6.415   6.545 -1.3497  0.5824  1.7173
 2381TIP3    H231339   7.156   6.538   6.603 -0.1739  0.6556  0.2910
 2382TIP3   OH231340   3.814   3.778   7.781 -0.2241 -0.5009 -0.1567
 2382TIP3    H131341   3.721   3.786   7.759 -0.3416  0.0904  0.5242
 2382TIP3    H231342   3.822   3.692   7.821 -0.6290 -0.2605  0.4594
 2383TIP3   OH231343   6.735   1.245   9.336  0.3480  0.3579 -0.3491
 2383TIP3    H131344   6.828   1.267   9.344  0.6535 -0.9373 -0.1743
 2383TIP3    H231345   6.734   1.151   9.320 -1.0108  0.0186  1.4896
 2384TIP3   OH231346   3.683   1.089   8.521  0.3207 -0.1728 -0.2676
 2384TIP3    H131347   3.656   1.025   8.456  0.0041 -0.3688  0.0575
 2384TIP3    H231348   3.648   1.172   8.489 -1.2716 -0.5222  0.4952
 2385TIP3   OH231349   2.953   0.221   8.082  0.4606  0.3727  0.1120
 2385TIP3    H131350   3.029   0.264   8.044  1.3962 -0.2120  1.2490
 2385TIP3    H231351   2.946   0.259   8.170 -1.4976  1.5182 -0.4676
 2386TIP3   OH231352   0.282   6.715   7.949  0.2094 -0.3715  0.3615
 2386TIP3    H131353   0.189   6.728   7.935  0.3172 -1.0676 -1.3027
 2386TIP3    H231354   0.293   6.620   7.948  0.8643 -0.3124  1.1284
 2387TIP3   OH231355   4.401   3.437   7.703  0.0204  0.0161  0.7778
 2387TIP3    H131356   4.474   3.496   7.689 -0.6154  0.7220  0.3456
 2387TIP3    H231357   4.437   3.350   7.686  1.1155  0.2054  2.0041
 2388TIP3   OH231358   2.966   3.039   8.514  0.6407 -0.4222 -0.1596
 2388TIP3    H131359   2.949   2.947   8.534  1.6674 -0.0834  2.8534
 2388TIP3    H231360   3.061   3.043   8.501  0.9085  0.4175  1.6746
 2389TIP3   OH231361   4.467   4.802   9.519 -0.2445 -0.0577 -0.4893
 2389TIP3    H131362   4.454   4.721   9.568 -1.0676 -0.3200 -1.1126
 2389TIP3    H231363   4.418   4.789   9.437  1.4681  0.1873 -1.5979
 2390TIP3   OH231364   3.363   2.005   8.740  0.2823  0.1501 -0.2959
 2390TIP3    H131365   3.310   1.927   8.753  0.0159  0.4689  0.5867
 2390TIP3    H231366   3.447   1.984   8.782 -0.3783  0.9632  1.5157
 2391TIP3   OH231367   2.130   3.388   8.292  0.8200  0.1800  0.2517
 2391TIP3    H131368   2.162   3.419   8.207 -2.2061  0.6737 -0.8180
 2391TIP3    H231369   2.091   3.466   8.332 -0.2534 -0.6530  0.8594
 2392TIP3   OH231370   3.645   5.898   7.413 -0.0639 -0.4104  0.7267
 2392TIP3    H131371   3.592   5.894   7.333 -0.2679 -2.5947  0.9011
 2392TIP3    H231372   3.725   5.943   7.385 -0.3450 -0.6676 -0.5814
 2393TIP3   OH231373   5.997   0.912   9.061  0.6746 -0.0174 -0.6615
 2393TIP3    H131374   6.068   0.901   8.998  0.5739  0.6341 -0.8959
 2393TIP3    H231375   6.024   0.986   9.115  0.0627  0.4033 -0.9214
 2394TIP3   OH231376   4.545   0.889   8.264 -0.1766  0.1649 -0.6731
 2394TIP3    H131377   4.481   0.864   8.330 -0.5263  1.5104 -0.4914
 2394TIP3    H231378   4.587   0.968   8.298  0.5227  0.1667 -1.4829
 2395TIP3   OH231379   7.125   1.672   8.996 -0.0077 -0.3867 -0.7288
 2395TIP3    H131380   7.071   1.694   8.919 -1.4685 -0.3449  0.2739
 2395TIP3    H231381   7.062   1.658   9.066  1.2981 -0.6135  0.4350
 2396TIP3   OH231382   1.139   2.887   7.744 -0.1535  0.1315 -0.3127
 2396TIP3    H131383   1.072   2.951   7.765  0.1737  0.7788 -1.1878
 2396TIP3    H231384   1.181   2.921   7.665  1.2055 -0.2416  0.2162
 2397TIP3   OH231385   6.732   7.330   7.913  0.0850  0.0694 -0.1529
 2397TIP3    H131386   6.799   7.282   7.865 -0.1422 -0.5818  0.1654
 2397TIP3    H231387   6.773   7.414   7.935 -0.2199  0.9060 -2.5367
 2398TIP3   OH231388   2.329   1.519   9.216  0.8477 -0.3342 -0.1041
 2398TIP3    H131389   2.252   1.540   9.269  1.0922 -1.9368  0.9521
 2398TIP3    H231390   2.388   1.473   9.275  1.3675 -1.7201 -1.6202
 2399TIP3   OH231391   5.382   3.023   9.276 -0.4167  0.0392  0.1079
 2399TIP3    H131392   5.325   2.961   9.321 -0.4607 -1.1706 -1.5065
 2399TIP3    H231393   5.323   3.092   9.245 -0.7559 -0.3417 -0.1090
 2400TIP3   OH231394   3.851   6.027   7.255 -0.4801  0.2136 -0.2322
 2400TIP3    H131395   3.943   6.008   7.236 -0.4837 -0.6746  0.5144
 2400TIP3    H231396   3.808   6.027   7.170  0.1536  0.2996 -0.5583
 2401TIP3   OH231397   5.579   7.667   9.080  0.4259  0.5634  0.0808
 2401TIP3    H131398   5.643   7.633   9.017 -0.2717 -0.4239 -0.1214
 2401TIP3    H231399   5.592   7.613   9.158  1.0139  1.5178  0.6560
 2402TIP3   OH231400   0.746   7.132   7.344 -0.0167  0.0320  0.4988
 2402TIP3    H131401   0.717   7.193   7.275 -2.1403 -0.3428  0.9833
 2402TIP3    H231402   0.840   7.123   7.329 -0.2107  0.8056 -1.6864
 2403TIP3   OH231403   2.751   2.001   8.437 -0.5795  0.0459 -0.5401
 2403TIP3    H131404   2.753   1.909   8.463  0.9994 -0.0837 -1.0184
 2403TIP3    H231405   2.823   2.011   8.375 -0.9017  1.5471 -0.7339
 2404TIP3   OH231406   1.990   3.841   8.862 -0.7847  0.5146  0.4697
 2404TIP3    H131407   2.000   3.780   8.788 -1.8849 -0.8568  1.3996
 2404TIP3    H231408   2.043   3.917   8.837 -3.1388  1.2535 -2.9325
 2405TIP3   OH231409   5.403   2.469   8.269 -0.3228  1.0642  0.2103
 2405TIP3    H131410   5.348   2.420   8.208 -0.7338  1.7200  0.0489
 2405TIP3    H231411   5.371   2.444   8.356  1.3465 -1.1792  0.2880
 2406TIP3   OH231412   0.522   0.354   8.971 -0.2432  0.1336  0.0551
 2406TIP3    H131413   0.524   0.269   8.927 -0.8067  0.0427  0.1986
 2406TIP3    H231414   0.504   0.333   9.063  0.3569  0.3628  0.2346
 2407TIP3   OH231415   5.590   1.956   7.571  0.2258 -0.0657 -0.0765
 2407TIP3    H131416   5.510   1.903   7.577 -0.6964  1.0952 -1.4667
 2407TIP3    H231417   5.558   2.045   7.558  1.7595  0.6721  0.9518
 2408TIP3   OH231418   3.208   0.077   8.985 -0.8754 -0.1494  0.0662
 2408TIP3    H131419   3.188   0.081   8.892 -0.9795 -0.9654  0.0436
 2408TIP3    H231420   3.127   0.048   9.026 -0.6078 -0.5689  0.3129
 2409TIP3   OH231421   7.607   2.431   8.485 -0.5619 -0.4535 -0.0712
 2409TIP3    H131422   7.593   2.420   8.580 -1.3035 -0.6600 -0.1993
 2409TIP3    H231423   7.694   2.393   8.470  0.5110  1.5006  0.8586
 2410TIP3   OH231424   1.764   4.513   8.285 -0.4683 -0.1184 -0.1224
 2410TIP3    H131425   1.745   4.593   8.237 -1.7637  0.0724  0.6691
 2410TIP3    H231426   1.716   4.523   8.368  0.8454 -0.8883  0.7754
 2411TIP3   OH231427   1.391   5.199   8.217 -0.4634 -0.5144 -0.1956
 2411TIP3    H131428   1.355   5.269   8.271  1.6423  0.9395 -0.5791
 2411TIP3    H231429   1.481   5.189   8.246 -0.8868 -3.6833  0.3967
 2412TIP3   OH231430   7.561   3.663   7.837  0.3138  0.1580  0.1594
 2412TIP3    H131431   7.653   3.639   7.854  0.2697 -0.7808 -0.8072
 2412TIP3    H231432   7.555   3.668   7.742 -0.6019  0.3634  0.2254
 2413TIP3   OH231433   7.560   3.562   6.659  0.2100 -0.0557  0.3491
 2413TIP3    H131434   7.590   3.523   6.577  0.9876  1.6492 -0.2339
 2413TIP3    H231435   7.470   3.590   6.641  0.6308  1.0084 -0.2207
 2414TIP3   OH231436   7.314   1.118   8.575 -0.2885 -0.5331 -0.2690
 2414TIP3    H131437   7.353   1.102   8.661 -0.2517 -1.1469 -0.3913
 2414TIP3    H231438   7.225   1.084   8.583  0.0266 -1.5108 -0.7687
 2415TIP3   OH231439   5.665   5.352   7.318  0.5643 -0.5062  0.2203
 2415TIP3    H131440   5.691   5.443   7.302  3.1979 -0.8105  2.0625
 2415TIP3    H231441   5.593   5.336   7.257  1.2689  2.2124 -1.4889
 2416TIP3   OH231442   7.039   6.516   8.958  0.3908 -0.2645  0.1854
 2416TIP3    H131443   7.121   6.509   9.006  1.7279 -0.1815 -1.9624
 2416TIP3    H231444   7.065   6.522   8.866 -1.9826  0.7936 -0.5011
 2417TIP3   OH231445   1.892   1.336   9.124  0.0387  0.4077 -0.0165
 2417TIP3    H131446   1.952   1.308   9.193 -1.2594  1.2926  1.5319
 2417TIP3    H231447   1.949   1.369   9.055  1.5059 -3.0755 -0.6573
 2418TIP3   OH231448   5.810   5.108   9.167  0.0581 -0.2074 -0.1114
 2418TIP3    H131449   5.856   5.184   9.131  1.5490  0.3789  2.7518
 2418TIP3    H231450   5.843   5.034   9.115 -1.8530  1.0127 -3.3436
 2419TIP3   OH231451   4.102   1.100   8.612 -0.1286  0.2328 -0.3326
 2419TIP3    H131452   4.118   1.132   8.701 -1.6532 -0.8187  0.3546
 2419TIP3    H231453   4.054   1.018   8.624 -0.2216 -0.0140 -2.1358
 2420TIP3   OH231454   4.558   2.066   7.955  0.1521 -0.2748 -0.0519
 2420TIP3    H131455   4.480   2.121   7.966  0.8387  0.4148  1.6386
 2420TIP3    H231456   4.547   1.996   8.019  0.2863 -0.9572 -0.7587
 2421TIP3   OH231457   5.876   3.854   9.156  0.2555 -0.0393  0.8021
 2421TIP3    H131458   5.894   3.805   9.075  0.0579  0.6486  0.3293
 2421TIP3    H231459   5.843   3.939   9.125  0.1349  0.2124  1.6108
 2422TIP3   OH231460   6.414   4.253   7.219  0.8257 -0.1885  0.0398
 2422TIP3    H131461   6.394   4.220   7.131 -2.7200  0.7398  0.3090
 2422TIP3    H231462   6.446   4.342   7.204 -1.1093  0.4910 -0.3665
 2423TIP3   OH231463   7.367   2.578   8.906 -0.1751 -0.1727 -0.2771
 2423TIP3    H131464   7.280   2.572   8.867  0.0322  0.3356 -0.8417
 2423TIP3    H231465   7.363   2.653   8.964 -0.5942 -1.1572  1.0106
 2424TIP3   OH231466   3.472   5.769   9.094  0.4078 -0.5052 -0.3511
 2424TIP3    H131467   3.564   5.770   9.071 -0.1598  2.0586 -3.2389
 2424TIP3    H231468   3.436   5.693   9.050  0.8443 -0.5175 -0.6861
 2425TIP3   OH231469   0.321   3.960   9.149  0.1312  0.0319 -0.4608
 2425TIP3    H131470   0.339   4.037   9.204  1.0661  0.2109 -0.9926
 2425TIP3    H231471   0.255   3.990   9.087  0.9433  0.6058 -1.0650
 2426TIP3   OH231472   0.502   2.353   7.349 -0.1843 -0.1533 -0.0712
 2426TIP3    H131473   0.440   2.414   7.309  1.1069  1.3634  0.1432
 2426TIP3    H231474   0.557   2.322   7.277  0.1114  0.1150  0.0344
 2427TIP3   OH231475   3.006   2.734   7.610 -0.7950 -0.1333 -0.0312
 2427TIP3    H131476   2.949   2.805   7.640  0.3418  0.4091  0.9765
 2427TIP3    H231477   3.001   2.738   7.514 -2.6815 -0.3386  0.0243
 2428TIP3   OH231478   7.331   5.925   8.557  0.0208 -0.2085 -0.0236
 2428TIP3    H131479   7.254   5.899   8.506  1.5882 -1.8612 -1.7223
 2428TIP3    H231480   7.325   5.875   8.638 -0.3477 -0.8426 -0.4368
 2429TIP3   OH231481   1.089   1.289   8.974 -0.8906 -0.5830 -0.2915
 2429TIP3    H131482   1.129   1.221   8.920  0.2486 -0.7424  0.7104
 2429TIP3    H231483   1.045   1.241   9.044 -1.6880 -0.3543 -0.6333
 2430TIP3   OH231484   4.986   4.651   7.310  0.0249 -0.0145  0.2713
 2430TIP3    H131485   4.954   4.574   7.263  0.7519  0.4553 -1.0405
 2430TIP3    H231486   5.041   4.697   7.247  1.6332  0.2819  1.8172
 2431TIP3   OH231487   4.492   5.605   7.617  0.2942  0.1793 -0.5421
 2431TIP3    H131488   4.478   5.562   7.702 -0.8373  0.2252 -0.6823
 2431TIP3    H231489   4.517   5.533   7.558 -0.3949 -0.1075 -0.4995
 2432TIP3   OH231490   6.565   1.215   8.458 -0.5880 -0.4198  0.1938
 2432TIP3    H131491   6.568   1.307   8.433 -1.1665  0.0108  1.5912
 2432TIP3    H231492   6.473   1.191   8.448 -0.2814 -1.1631 -1.1273
 2433TIP3   OH231493   3.332   0.272   8.494 -0.0435  0.0866  0.3992
 2433TIP3    H131494   3.340   0.356   8.541 -1.6143 -0.4278  1.6758
 2433TIP3    H231495   3.325   0.297   8.402  1.7797  1.2067  0.5154
 2434TIP3   OH231496   4.020   7.166   8.315  0.0257  0.5748 -0.0311
 2434TIP3    H131497   3.959   7.150   8.243 -0.8111  0.1782  0.7488
 2434TIP3    H231498   3.990   7.249   8.353 -1.0716 -0.4066  1.3593
 2435TIP3   OH231499   5.732   1.470   9.020  0.3916 -0.1293 -0.1458
 2435TIP3    H131500   5.680   1.391   9.005 -0.8446  0.3717  1.2293
 2435TIP3    H231501   5.668   1.535   9.050  1.9931  0.0480  3.2363
 2436TIP3   OH231502   6.219   3.164   8.969 -0.0167 -0.0051 -0.3816
 2436TIP3    H131503   6.305   3.131   8.993 -0.4784  0.2106  1.7629
 2436TIP3    H231504   6.233   3.257   8.948  0.1820  0.2175  0.6830
 2437TIP3   OH231505   2.077   4.451   8.307 -0.3741  0.3697 -0.1984
 2437TIP3    H131506   1.990   4.449   8.269 -0.4219  2.0645 -0.2531
 2437TIP3    H231507   2.062   4.461   8.401 -0.2634  1.3116 -0.2688
 2438TIP3   OH231508   3.823   1.613   8.477 -0.4053  0.0413  0.2764
 2438TIP3    H131509   3.848   1.551   8.409 -1.9878 -0.5366  0.1624
 2438TIP3    H231510   3.776   1.682   8.429  0.5647  0.8934  0.5141
 2439TIP3   OH231511   5.169   3.428   8.633 -0.1597 -0.5394  0.0341
 2439TIP3    H131512   5.074   3.440   8.644 -0.5957 -1.7432 -1.7774
 2439TIP3    H231513   5.177   3.389   8.545  1.8665 -2.2067  0.8770
 2440TIP3   OH231514   4.186   5.968   8.339  0.3188 -0.3156  0.6684
 2440TIP3    H131515   4.098   5.932   8.328  0.9708 -1.3699 -1.8781
 2440TIP3    H231516   4.180   6.057   8.302  0.1663 -0.0833  1.2350
 2441TIP3   OH231517   0.999   2.773   8.811 -0.6163  0.2008 -0.7767
 2441TIP3    H131518   1.082   2.751   8.852  0.0671  1.3679 -1.4856
 2441TIP3    H231519   0.978   2.861   8.842 -1.7691 -0.2014 -0.3496
 2442TIP3   OH231520   1.573   2.656   7.900  0.8502 -0.3818  0.3887
 2442TIP3    H131521   1.584   2.728   7.963  2.5903 -0.1812 -0.0895
 2442TIP3    H231522   1.528   2.588   7.950 -2.6451  1.6543  0.3388
 2443TIP3   OH231523   6.609   4.119   7.503  0.3243  0.5016 -0.0437
 2443TIP3    H131524   6.601   4.198   7.556 -0.8261  1.1487 -1.1331
 2443TIP3    H231525   6.696   4.126   7.464  0.3078  1.1366  0.0205
 2444TIP3   OH231526   3.799   5.775   7.037 -0.2694 -0.0839  0.5424
 2444TIP3    H131527   3.795   5.869   7.023 -0.1716 -0.0200  0.9497
 2444TIP3    H231528   3.881   5.748   6.995 -0.7512 -0.1332 -0.3923
 2445TIP3   OH231529   5.482   0.894   7.697  0.2537 -0.4533 -0.4561
 2445TIP3    H131530   5.551   0.828   7.692  0.7006 -0.0396  0.0728
 2445TIP3    H231531   5.436   0.876   7.779 -0.9457 -1.3673 -1.3072
 2446TIP3   OH231532   7.557   2.616   9.198 -0.7547  0.1361 -0.4927
 2446TIP3    H131533   7.599   2.575   9.122 -1.8762 -0.3344 -0.8867
 2446TIP3    H231534   7.546   2.544   9.260  1.1473  0.7242  0.6151
 2447TIP3   OH231535   0.876   0.011   8.653  0.0338  0.2035 -0.0679
 2447TIP3    H131536   0.963   0.015   8.613 -0.1145  2.8556 -0.3075
 2447TIP3    H231537   0.866  -0.080   8.679  2.8752 -0.1893 -0.0308
 2448TIP3   OH231538   4.390   2.459   7.216  0.1871  0.0950  0.2502
 2448TIP3    H131539   4.332   2.414   7.154 -1.1793  1.5104  0.4344
 2448TIP3    H231540   4.420   2.389   7.274 -0.4493 -0.8701 -0.5230
 2449TIP3   OH231541   5.061   0.889   7.130 -0.3361  0.0616  0.8866
 2449TIP3    H131542   5.062   0.985   7.124  0.6009  0.0125 -0.0674
 2449TIP3    H231543   4.974   0.868   7.162 -1.5035  1.1271 -1.3427
 2450TIP3   OH231544   7.469   2.308   9.081 -0.5994 -0.1283  0.7637
 2450TIP3    H131545   7.401   2.360   9.039 -1.3915 -1.7339  0.0134
 2450TIP3    H231546   7.549   2.332   9.034 -0.8358  0.8333  0.8219
 2451TIP3   OH231547   4.224   6.749   9.049  0.1191  0.0749 -0.2467
 2451TIP3    H131548   4.240   6.691   9.123  0.0068 -0.9162 -0.9816
 2451TIP3    H231549   4.291   6.817   9.056 -0.2074  0.2833  1.0327
 2452TIP3   OH231550   0.521   4.550   7.386  0.2688  0.4089 -0.1892
 2452TIP3    H131551   0.454   4.598   7.336 -0.1023  0.2171  0.1171
 2452TIP3    H231552   0.492   4.459   7.382  0.7086  0.2768 -0.3544
 2453TIP3   OH231553   1.629   5.877   7.390  0.0299  0.0450  0.1473
 2453TIP3    H131554   1.666   5.923   7.315  1.6812  0.4943  1.1771
 2453TIP3    H231555   1.577   5.944   7.435  0.4710  0.2642  0.3401
 2454TIP3   OH231556   1.721   5.399   7.795 -0.3281 -0.2661  0.1570
 2454TIP3    H131557   1.721   5.394   7.891 -0.6353  1.9841  0.3354
 2454TIP3    H231558   1.797   5.347   7.769 -0.0410 -0.6537  1.6479
 2455TIP3   OH231559   4.364   4.019   8.144  0.3488 -0.2460  0.5525
 2455TIP3    H131560   4.366   4.018   8.240  0.8426  2.4761  0.6494
 2455TIP3    H231561   4.454   4.000   8.119  0.8170  1.5162  0.7665
 2456TIP3   OH231562   6.657   5.647   7.758 -0.3759  0.4967  0.3495
 2456TIP3    H131563   6.665   5.582   7.828  0.4737 -0.1428 -0.3116
 2456TIP3    H231564   6.563   5.663   7.751 -0.5377 -0.0893  1.0425
 2457TIP3   OH231565   6.430   1.353   7.926 -0.6994  0.0645 -0.4783
 2457TIP3    H131566   6.411   1.281   7.866 -0.3883 -0.2796 -0.1685
 2457TIP3    H231567   6.345   1.394   7.942 -0.9199 -0.3877 -0.4663
 2458TIP3   OH231568   0.335   2.636   8.239  0.1201  0.3658  0.3567
 2458TIP3    H131569   0.394   2.601   8.173  0.7754  1.8349  0.1287
 2458TIP3    H231570   0.252   2.649   8.192  0.6459  1.6204 -0.2791
 2459TIP3   OH231571   4.008   7.675   8.945 -0.9391  0.9145 -0.0974
 2459TIP3    H131572   4.092   7.705   8.911 -1.2052  0.9535 -0.7481
 2459TIP3    H231573   4.015   7.685   9.040  0.2394 -0.2625 -0.0313
 2460TIP3   OH231574   3.917   4.814   9.245  0.8206 -0.0309  0.0818
 2460TIP3    H131575   3.923   4.874   9.171 -0.6684  0.2818  0.1838
 2460TIP3    H231576   3.826   4.785   9.245  0.5684  0.5877  2.2313
 2461TIP3   OH231577   2.101   1.332   9.294 -0.4597  0.9296  0.0546
 2461TIP3    H131578   2.138   1.406   9.341  0.1847  0.4672  0.2941
 2461TIP3    H231579   2.133   1.255   9.342 -0.6484  0.4851 -0.5246
 2462TIP3   OH231580   0.715   4.603   8.856 -0.5144  0.1997  0.0872
 2462TIP3    H131581   0.635   4.647   8.827 -0.5118  0.0093 -0.2172
 2462TIP3    H231582   0.685   4.516   8.884 -0.7845  0.9262  2.2851
 2463TIP3   OH231583   4.479   3.504   8.871 -0.1663  0.4528  0.4561
 2463TIP3    H131584   4.472   3.599   8.861  0.9785  0.7542  2.2020
 2463TIP3    H231585   4.392   3.476   8.898 -0.9661  0.7369 -1.6148
 2464TIP3   OH231586   0.331   5.434   9.369 -0.3856  0.2849  0.4086
 2464TIP3    H131587   0.411   5.402   9.411  0.9325 -1.3831 -2.9253
 2464TIP3    H231588   0.363   5.489   9.297 -2.2560  0.2257 -0.5198
 2465TIP3   OH231589   1.184   4.815   7.943  0.2320 -0.0511  0.1400
 2465TIP3    H131590   1.224   4.811   7.856 -1.6877 -1.3208 -0.7489
 2465TIP3    H231591   1.254   4.847   8.000  1.2741  1.7521 -2.0031
 2466TIP3   OH231592   5.562   5.256   6.723 -0.3734 -0.0402 -0.3266
 2466TIP3    H131593   5.605   5.340   6.708 -1.5582  0.3047 -2.0435
 2466TIP3    H231594   5.600   5.198   6.657 -0.0627 -0.6885  0.4054
 2467TIP3   OH231595   5.705   1.239   8.180 -0.4018 -0.2408  0.1970
 2467TIP3    H131596   5.638   1.293   8.223 -0.3473  0.1070 -0.1407
 2467TIP3    H231597   5.762   1.210   8.250  0.8839  1.9923  0.1662
 2468TIP3   OH231598   4.671   4.323   8.642  0.1047  0.4484  0.1655
 2468TIP3    H131599   4.593   4.366   8.677 -1.3874 -1.4022 -0.6721
 2468TIP3    H231600   4.661   4.231   8.668  1.3542 -0.0726 -1.0734
 2469TIP3   OH231601   1.347   0.833   7.959 -0.2388  0.1902  0.4720
 2469TIP3    H131602   1.309   0.920   7.941  1.0332  0.5911 -0.4671
 2469TIP3    H231603   1.440   0.844   7.939 -0.2915 -1.7837 -1.1641
 2470TIP3   OH231604   3.990   5.841   6.744 -0.0062  0.3376  0.6158
 2470TIP3    H131605   3.911   5.863   6.695  0.0279 -0.1769  0.3284
 2470TIP3    H231606   4.017   5.924   6.784  0.3324  0.9057 -0.7510
 2471TIP3   OH231607   1.038   2.196   6.824 -0.2425 -0.4852 -0.3826
 2471TIP3    H131608   1.023   2.150   6.907 -0.3479  2.3153  1.3052
 2471TIP3    H231609   0.950   2.216   6.792 -0.3421  2.4953  1.4061
 2472TIP3   OH231610   4.996   4.236   6.542  0.1983  0.5214  0.2598
 2472TIP3    H131611   4.958   4.263   6.625  0.0576 -0.1261  0.4132
 2472TIP3    H231612   5.038   4.315   6.507  1.1799  0.5506  1.4430
 2473TIP3   OH231613   2.017   6.840   7.267 -0.5495 -0.6201 -0.0367
 2473TIP3    H131614   1.935   6.792   7.282 -1.1998  0.6017  0.4088
 2473TIP3    H231615   2.051   6.856   7.355 -0.3668 -0.2075 -0.1856
 2474TIP3   OH231616   2.731   6.952   8.401 -0.2834  0.6275  0.2279
 2474TIP3    H131617   2.803   6.963   8.339 -1.0343  1.4760 -0.5376
 2474TIP3    H231618   2.652   6.973   8.350 -0.8313  2.7734  1.8029
 2475TIP3   OH231619   4.074   0.468   9.443 -0.0106  0.0942 -0.2155
 2475TIP3    H131620   4.091   0.379   9.414 -1.8878 -0.0318 -1.0562
 2475TIP3    H231621   4.140   0.521   9.398  0.2757 -0.7089 -0.7650
 2476TIP3   OH231622   5.269   2.949   8.817  0.1752  0.5191 -0.0977
 2476TIP3    H131623   5.348   2.985   8.857  0.4231  0.9377 -0.9447
 2476TIP3    H231624   5.214   3.025   8.799  1.2073  0.7251 -3.0037
 2477TIP3   OH231625   3.283   2.186   7.776  0.4191  0.3837 -0.0372
 2477TIP3    H131626   3.286   2.092   7.759  0.8929 -0.2181  2.8521
 2477TIP3    H231627   3.195   2.201   7.811  0.4579  0.9593 -0.1790
 2478TIP3   OH231628   1.305   3.167   7.822  0.1737  0.4382  0.1308
 2478TIP3    H131629   1.214   3.187   7.845  0.5752  1.1321  1.2120
 2478TIP3    H231630   1.308   3.171   7.727 -0.7462  1.2464  0.1260
 2479TIP3   OH231631   3.122   1.194   7.902 -0.0662 -0.0097 -0.1453
 2479TIP3    H131632   3.150   1.128   7.964 -1.0062 -0.4291 -0.1408
 2479TIP3    H231633   3.106   1.272   7.955  0.1229 -0.0667 -0.0055
 2480TIP3   OH231634   2.428   6.128   8.277  0.3222  0.3705 -0.4621
 2480TIP3    H131635   2.340   6.161   8.296 -0.7511 -0.9609 -2.7093
 2480TIP3    H231636   2.430   6.040   8.315  0.1678 -0.1083 -1.5161
 2481TIP3   OH231637   7.444   3.505   7.479  0.2120  0.2532  0.2551
 2481TIP3    H131638   7.374   3.484   7.417  1.8993  0.0437 -1.6756
 2481TIP3    H231639   7.477   3.420   7.508 -0.2275  0.3521  1.0758
 2482TIP3   OH231640   7.038   2.589   7.697 -0.3650  0.0037  0.6762
 2482TIP3    H131641   6.962   2.575   7.754  0.0612 -1.9995  0.8419
 2482TIP3    H231642   7.100   2.638   7.751 -2.1872  3.4725 -0.0982
 2483TIP3   OH231643   6.073   2.418   8.446  0.4817  0.8809  0.5748
 2483TIP3    H131644   6.015   2.344   8.426  0.8852  0.8130 -0.3325
 2483TIP3    H231645   6.051   2.440   8.537 -0.7872  0.6867  0.3351
 2484TIP3   OH231646   2.757   6.244   9.342  0.2460  0.2721  0.8147
 2484TIP3    H131647   2.767   6.153   9.315 -0.2398  0.6205 -0.6384
 2484TIP3    H231648   2.782   6.245   9.434  0.3733 -1.3012  0.8170
 2485TIP3   OH231649   3.567   0.587   7.857 -0.2247  0.0466  0.1273
 2485TIP3    H131650   3.541   0.678   7.843  0.7313  0.3424  0.2004
 2485TIP3    H231651   3.626   0.568   7.784  0.4723 -0.1463  0.7323
 2486TIP3   OH231652   2.698   4.803   8.207  0.7030 -0.7856 -0.1973
 2486TIP3    H131653   2.712   4.805   8.301 -3.6318  1.1553  0.6686
 2486TIP3    H231654   2.655   4.720   8.191 -0.0853 -0.4081 -0.1023
 2487TIP3   OH231655   5.779   3.766   8.160  0.5044  0.2035 -0.2274
 2487TIP3    H131656   5.702   3.822   8.168 -0.2210 -1.0210  2.6957
 2487TIP3    H231657   5.853   3.827   8.164 -0.2680  1.1681 -0.1346
 2488TIP3   OH231658   2.697   0.874   8.973 -0.0215 -0.3220 -0.1607
 2488TIP3    H131659   2.613   0.901   9.010  0.0844  0.4428 -0.4552
 2488TIP3    H231660   2.710   0.785   9.004  0.1085  0.3160  1.7213
 2489TIP3   OH231661   3.424   4.754   6.718 -1.2148  0.2384  0.2747
 2489TIP3    H131662   3.418   4.784   6.809  0.5220 -0.6567  0.7424
 2489TIP3    H231663   3.496   4.805   6.681 -1.0384 -0.3431 -0.1955
 2490TIP3   OH231664   3.569   6.749   7.779 -0.8123  0.4674  0.0125
 2490TIP3    H131665   3.645   6.693   7.792 -0.7733  0.5577  0.1769
 2490TIP3    H231666   3.539   6.729   7.690 -1.7873 -0.9980  0.6499
 2491TIP3   OH231667   4.265   0.172   7.902 -0.5266 -0.5035 -0.5768
 2491TIP3    H131668   4.172   0.192   7.894  0.0735  2.0613 -2.0315
 2491TIP3    H231669   4.286   0.123   7.823 -0.5717 -0.8733 -0.3631
 2492TIP3   OH231670   2.080   0.245   8.534 -0.1533  0.2645  0.5926
 2492TIP3    H131671   2.005   0.305   8.533 -0.5292 -0.1900  1.0162
 2492TIP3    H231672   2.041   0.158   8.543  0.4414  0.0491  1.1443
 2493TIP3   OH231673   7.291   4.057   7.348  0.0303 -0.1751  0.2016
 2493TIP3    H131674   7.245   4.140   7.335 -1.7765 -1.0023  1.0653
 2493TIP3    H231675   7.342   4.071   7.429  0.7219  0.4761 -0.3275
 2494TIP3   OH231676   4.758   2.506   7.781  0.5076  0.2206  0.0022
 2494TIP3    H131677   4.727   2.439   7.841  0.5383  2.7120  3.0750
 2494TIP3    H231678   4.839   2.539   7.821  2.2807  0.0356 -3.0608
 2495TIP3   OH231679   6.876   1.088   7.001  0.9118 -0.4914  0.1122
 2495TIP3    H131680   6.785   1.105   6.980  0.9768  0.6245  0.6459
 2495TIP3    H231681   6.894   1.002   6.965 -0.2328 -0.5401 -0.3636
 2496TIP3   OH231682   7.205   2.273   8.594 -0.3312 -0.3599  0.3629
 2496TIP3    H131683   7.157   2.197   8.627  0.2485 -1.1876 -0.6501
 2496TIP3    H231684   7.297   2.254   8.611 -0.2452  0.7059  1.2455
 2497TIP3   OH231685   6.827   6.120   6.283 -0.0620 -0.0498  0.4236
 2497TIP3    H131686   6.764   6.185   6.251 -0.3099  0.3702  1.7213
 2497TIP3    H231687   6.861   6.157   6.364  2.9444  0.3890 -0.9007
 2498TIP3   OH231688   5.836   5.581   9.405 -0.0271  0.0000 -0.0689
 2498TIP3    H131689   5.780   5.572   9.482  0.3429  0.9246  0.3251
 2498TIP3    H231690   5.909   5.521   9.422  1.0334  1.5840  1.2366
 2499TIP3   OH231691   3.998   1.583   8.783  0.2146  0.2683  0.4148
 2499TIP3    H131692   3.909   1.615   8.796 -0.6707 -2.2980  1.3503
 2499TIP3    H231693   4.000   1.497   8.826  3.2572  0.3555  0.7083
 2500TIP3   OH231694   6.566   3.444   9.417  0.5555  0.2748 -0.0434
 2500TIP3    H131695   6.494   3.383   9.398 -0.7151  1.7502 -0.1729
 2500TIP3    H231696   6.644   3.389   9.420 -0.6599 -1.4905  0.8097
 2501TIP3   OH231697   3.531   7.382   9.507  0.3027  0.0464  0.0433
 2501TIP3    H131698   3.593   7.329   9.558  0.7533  0.9489  0.4605
 2501TIP3    H231699   3.572   7.468   9.502 -0.9941  0.7102  0.4583
 2502TIP3   OH231700   6.308   0.409   9.176 -0.5194  0.1534  0.2127
 2502TIP3    H131701   6.380   0.363   9.133 -1.0038  0.8450 -1.4066
 2502TIP3    H231702   6.271   0.465   9.108 -1.1755  1.4895  1.6123
 2503TIP3   OH231703   5.679   2.076   8.064  0.1088  0.2278  0.0325
 2503TIP3    H131704   5.738   2.053   8.136  0.6049  0.5196 -0.2761
 2503TIP3    H231705   5.692   2.008   7.999 -0.1792  0.0833  0.1255
 2504TIP3   OH231706   6.403   6.955   8.028 -0.4982  0.1873  0.1435
 2504TIP3    H131707   6.492   6.986   8.041 -0.5130  0.3900 -0.2177
 2504TIP3    H231708   6.384   6.973   7.936 -1.4933  1.6749  0.6097
 2505TIP3   OH231709   0.219   5.422   8.156  0.9989 -0.3701 -0.4845
 2505TIP3    H131710   0.124   5.424   8.170  1.1047  0.6037  0.2064
 2505TIP3    H231711   0.235   5.338   8.113 -0.2954 -0.1308 -1.5025
 2506TIP3   OH231712   6.670   3.977   8.195 -0.0551 -0.4377  0.0778
 2506TIP3    H131713   6.669   3.947   8.286 -0.2982  0.7972  0.5066
 2506TIP3    H231714   6.579   3.969   8.166  0.1594 -1.5583 -0.3221
 2507TIP3   OH231715   2.173   1.030   8.707  0.3350  0.5791  0.0967
 2507TIP3    H131716   2.181   0.949   8.656  0.2249 -0.1715  1.2322
 2507TIP3    H231717   2.258   1.073   8.698  0.7201 -0.1370  0.2527
 2508TIP3   OH231718   2.644   5.223   8.443 -0.2629  0.1775 -0.1302
 2508TIP3    H131719   2.716   5.160   8.447  0.0629  0.6088  1.1845
 2508TIP3    H231720   2.631   5.238   8.349  1.1597 -0.1531 -0.4098
 2509TIP3   OH231721   1.089   6.293   9.500  0.2647 -0.4716 -0.3203
 2509TIP3    H131722   1.129   6.379   9.509 -0.0853 -0.2975 -0.3900
 2509TIP3    H231723   1.060   6.290   9.408 -0.4938 -0.3176 -0.0908
 2510TIP3   OH231724   4.514   0.308   8.664 -0.2834  0.1023 -0.3284
 2510TIP3    H131725   4.490   0.235   8.608 -0.5359 -1.7197  1.9827
 2510TIP3    H231726   4.431   0.340   8.699 -0.0065 -0.4026  0.8500
 2511TIP3   OH231727   4.854   2.909   7.815 -0.7378  0.1009 -0.4719
 2511TIP3    H131728   4.872   3.000   7.793 -1.9102  0.7341  1.0143
 2511TIP3    H231729   4.940   2.870   7.829 -0.2120  0.9119 -1.3215
 2512TIP3   OH231730   7.423   1.818   6.968  0.4231  0.4234  0.5109
 2512TIP3    H131731   7.339   1.838   6.925  0.9230  0.4552 -0.4870
 2512TIP3    H231732   7.414   1.728   6.998 -0.0167  0.4719  0.5362
 2513TIP3   OH231733   4.793   2.349   8.287  0.0936 -0.3283  0.3609
 2513TIP3    H131734   4.874   2.331   8.335 -0.5533 -0.0066  1.6350
 2513TIP3    H231735   4.814   2.330   8.196  2.1753  1.6118  0.3618
 2514TIP3   OH231736   4.949   3.667   9.370 -0.6821 -0.0415 -0.4613
 2514TIP3    H131737   5.045   3.661   9.370 -0.6823 -0.7622 -2.5252
 2514TIP3    H231738   4.931   3.759   9.388  0.3702 -0.0306  0.6217
 2515TIP3   OH231739   5.808   6.965   7.650 -0.1821 -0.1744 -0.3104
 2515TIP3    H131740   5.857   6.887   7.678  0.1931  0.9447  2.5022
 2515TIP3    H231741   5.874   7.034   7.646 -0.9199  0.5525 -0.1676
 2516TIP3   OH231742   4.345   2.809   8.638 -0.0293  0.3560  0.0428
 2516TIP3    H131743   4.433   2.829   8.607 -0.0848 -0.8522 -0.9611
 2516TIP3    H231744   4.288   2.865   8.586  0.1506  1.4895  1.0240
 2517TIP3   OH231745   7.182   0.914   9.020  0.2831 -0.4845  0.0118
 2517TIP3    H131746   7.204   1.001   8.988  2.6462 -1.5714 -1.5913
 2517TIP3    H231747   7.087   0.907   9.008 -0.2710  2.3771  1.7185
 2518TIP3   OH231748   5.269   5.565   8.978  0.3118 -0.7338  0.7296
 2518TIP3    H131749   5.230   5.494   8.928 -0.1788 -0.0312  0.0841
 2518TIP3    H231750   5.209   5.639   8.965  1.5062  0.1792  0.2895
 2519TIP3   OH231751   7.128   1.373   7.298  0.2421 -0.0844  0.2604
 2519TIP3    H131752   7.157   1.458   7.264 -1.9771  0.6253 -0.0293
 2519TIP3    H231753   7.173   1.363   7.382  0.7946  1.2038  0.1358
 2520TIP3   OH231754   4.668   3.693   8.207 -0.1542  0.7522 -0.2854
 2520TIP3    H131755   4.654   3.712   8.115  0.5585  0.2253 -0.5112
 2520TIP3    H231756   4.691   3.777   8.247 -0.6190  1.0065 -0.5534
 2521TIP3   OH231757   3.515   1.601   7.229  0.3511  0.1109 -0.3825
 2521TIP3    H131758   3.554   1.663   7.168  2.0506 -0.0098  0.5073
 2521TIP3    H231759   3.434   1.642   7.258  2.1924  2.7892  1.4641
 2522TIP3   OH231760   1.210   0.644   7.828 -0.0246 -0.2370 -0.5901
 2522TIP3    H131761   1.272   0.696   7.878  0.8391 -0.3026 -1.5606
 2522TIP3    H231762   1.151   0.708   7.789  0.7412 -0.0112 -1.3913
 2523TIP3   OH231763   1.343   1.304   8.145  0.3960  0.3570  0.5846
 2523TIP3    H131764   1.422   1.329   8.097  0.3989 -0.0134  0.3898
 2523TIP3    H231765   1.368   1.224   8.191 -0.6663 -1.3966 -1.6838
 2524TIP3   OH231766   0.627   6.082   9.096 -0.1500 -0.0071  0.2857
 2524TIP3    H131767   0.613   6.172   9.066  1.0899  0.6628  1.6341
 2524TIP3    H231768   0.663   6.091   9.184 -0.1568 -1.8415  0.5127
 2525TIP3   OH231769   4.456   4.397   9.162 -0.0070  0.1812  0.3372
 2525TIP3    H131770   4.477   4.373   9.252  0.2140  0.5207  0.3769
 2525TIP3    H231771   4.439   4.314   9.119  1.6131 -0.1395  0.2472
 2526TIP3   OH231772   1.048   4.861   6.679  0.3163  0.1663 -0.1973
 2526TIP3    H131773   1.101   4.801   6.732  1.4428  0.9860 -0.3687
 2526TIP3    H231774   1.053   4.825   6.590 -0.1558 -0.2495 -0.0598
 2527TIP3   OH231775   0.725   5.367   7.589  0.4386 -0.3301 -0.0478
 2527TIP3    H131776   0.653   5.393   7.646 -0.5458  0.7388 -1.7167
 2527TIP3    H231777   0.692   5.293   7.539  0.1404  0.7082 -1.4422
 2528TIP3   OH231778   6.740   3.585   8.684 -0.0397  0.0013 -0.1867
 2528TIP3    H131779   6.796   3.663   8.680  0.0766 -0.1225 -1.3318
 2528TIP3    H231780   6.658   3.617   8.722  0.6458  0.2672  1.1127
 2529TIP3   OH231781   4.431   3.600   8.325  0.1587 -0.5865  0.3222
 2529TIP3    H131782   4.444   3.638   8.238 -1.7991 -0.4632  0.0302
 2529TIP3    H231783   4.516   3.607   8.367  0.6425  1.3137 -0.8272
 2530TIP3   OH231784   2.679   3.526   7.941 -0.1385  0.1487 -0.1404
 2530TIP3    H131785   2.774   3.528   7.943 -0.1437  1.2572 -0.2026
 2530TIP3    H231786   2.652   3.596   8.001 -0.8947  0.4070 -0.7520
 2531TIP3   OH231787   2.343   4.394   8.911 -0.0360  0.3957  0.0321
 2531TIP3    H131788   2.334   4.321   8.850 -2.2053 -0.6844  1.5119
 2531TIP3    H231789   2.431   4.384   8.947  0.6174  0.0254 -1.6056
 2532TIP3   OH231790   4.661   6.730   7.490  0.0824  0.3699  0.6207
 2532TIP3    H131791   4.750   6.757   7.509  0.2060 -0.5276  1.3894
 2532TIP3    H231792   4.650   6.746   7.396  0.9000  0.8879  0.6089
 2533TIP3   OH231793   0.299   1.565   8.310  0.7528 -0.9817 -0.1678
 2533TIP3    H131794   0.209   1.568   8.343  0.1744  0.6200 -1.7380
 2533TIP3    H231795   0.327   1.475   8.326 -0.0466 -0.7916  2.9962
 2534TIP3   OH231796   2.734   5.231   7.461  0.2231 -0.1341 -0.2332
 2534TIP3    H131797   2.728   5.306   7.402  0.3923 -0.5819 -0.8300
 2534TIP3    H231798   2.765   5.159   7.406  1.4013 -0.3137  0.6242
 2535TIP3   OH231799   7.349   5.728   9.102 -0.2710  0.1668  0.1537
 2535TIP3    H131800   7.330   5.759   9.191  0.5240  1.1065  0.0114
 2535TIP3    H231801   7.359   5.634   9.111 -2.0583 -0.0153  0.7286
 2536TIP3   OH231802   6.448   5.440   8.836  0.3062 -0.5552 -0.1744
 2536TIP3    H131803   6.462   5.376   8.906  0.1996 -0.0768  0.2961
 2536TIP3    H231804   6.397   5.510   8.878 -0.4333 -0.6244 -0.9361
 2537TIP3   OH231805   6.664   7.532   9.222 -0.0828  0.1987  0.4111
 2537TIP3    H131806   6.706   7.446   9.225  0.0753  0.2911  0.9964
 2537TIP3    H231807   6.581   7.517   9.177  0.4558 -0.0348 -0.5468
 2538TIP3   OH231808   0.700   0.916   8.177  0.3544 -0.1521 -0.0298
 2538TIP3    H131809   0.770   0.980   8.171 -1.3324  1.6397 -2.6138
 2538TIP3    H231810   0.628   0.962   8.221 -0.2662 -0.8846 -0.2478
 2539TIP3   OH231811   1.562   0.566   8.965  0.1811 -0.5963 -0.0523
 2539TIP3    H131812   1.501   0.638   8.947  0.2276 -0.5917 -0.1985
 2539TIP3    H231813   1.648   0.603   8.944  0.2432 -0.5701  0.2532
 2540TIP3   OH231814   6.315   7.348   8.639 -0.0708 -0.2946 -0.8305
 2540TIP3    H131815   6.315   7.281   8.571  3.6525 -0.2942 -0.9978
 2540TIP3    H231816   6.315   7.299   8.721  0.3766 -0.4228 -0.9088
 2541TIP3   OH231817   7.225   7.047   9.059 -0.0391 -0.0621  0.2824
 2541TIP3    H131818   7.257   6.989   8.990 -0.7597 -0.3857  0.2095
 2541TIP3    H231819   7.213   7.131   9.015 -1.8889 -0.6182 -0.3849
 2542TIP3   OH231820   4.792   0.793   8.173 -0.2669  0.0167 -0.5512
 2542TIP3    H131821   4.791   0.841   8.090 -1.0819  1.4710  0.2544
 2542TIP3    H231822   4.704   0.805   8.209 -0.6486 -2.4717 -0.4771
 2543TIP3   OH231823   7.434   3.276   7.667 -0.1946  0.1955  0.0130
 2543TIP3    H131824   7.485   3.291   7.746  0.5104 -0.3410 -0.3318
 2543TIP3    H231825   7.356   3.230   7.698 -1.0437  1.9838  0.6878
 2544TIP3   OH231826   5.903   1.736   8.232  0.2676 -0.1259  0.7867
 2544TIP3    H131827   5.810   1.746   8.253 -0.2238  0.2687 -1.3998
 2544TIP3    H231828   5.946   1.808   8.279 -0.6343  0.2117  1.1217
 2545TIP3   OH231829   4.819   7.160   7.260  0.3275 -0.4016  0.3572
 2545TIP3    H131830   4.829   7.238   7.314 -0.2465  0.0386 -0.1597
 2545TIP3    H231831   4.754   7.107   7.305 -0.8724  0.4078 -0.3768
 2546TIP3   OH231832   1.816   0.384   8.427 -0.2504  0.0168  0.1938
 2546TIP3    H131833   1.820   0.479   8.437 -1.6700  0.0658  0.4836
 2546TIP3    H231834   1.730   0.367   8.389  0.8068 -1.0162 -1.9462
 2547TIP3   OH231835   0.980   5.936   9.166 -0.3259 -0.1767  0.5482
 2547TIP3    H131836   0.949   5.866   9.108 -0.1939 -1.5698  2.0912
 2547TIP3    H231837   0.981   6.014   9.110 -2.0112 -1.0472 -0.8072
 2548TIP3   OH231838   6.022   5.607   7.470 -0.0599 -0.3143  0.3269
 2548TIP3    H131839   5.968   5.540   7.512  1.2852 -1.0758  0.8831
 2548TIP3    H231840   6.052   5.662   7.542 -0.1792  0.1793  0.0038
 2549TIP3   OH231841   5.960   6.631   8.318 -0.0491  0.4016 -0.2974
 2549TIP3    H131842   5.981   6.719   8.285 -1.4023  1.5480  1.7163
 2549TIP3    H231843   5.866   6.633   8.331  0.1710 -0.6484  1.7121
 2550TIP3   OH231844   7.568   3.813   9.518 -0.0103  0.1817 -0.0189
 2550TIP3    H131845   7.620   3.744   9.477 -0.1085  0.8360 -1.2945
 2550TIP3    H231846   7.598   3.815   9.609  2.4125  0.7254 -0.7650
 2551TIP3   OH231847   6.460   6.899   7.172 -0.4210  0.2442  0.5679
 2551TIP3    H131848   6.490   6.847   7.097  2.0479  1.7770  0.3660
 2551TIP3    H231849   6.378   6.939   7.143  0.0615  0.1388 -1.0080
 2552TIP3   OH231850   1.994   2.705   6.722 -0.1358 -0.1509  0.0839
 2552TIP3    H131851   2.049   2.763   6.774  1.2243 -0.1044 -1.3397
 2552TIP3    H231852   1.998   2.621   6.768  0.5720  0.0433  0.3913
 2553TIP3   OH231853   5.415   3.186   8.533 -0.1362 -0.5310 -0.0518
 2553TIP3    H131854   5.488   3.195   8.595  0.4498 -1.2246 -0.6378
 2553TIP3    H231855   5.377   3.274   8.530 -0.9275 -0.7116  2.1845
 2554TIP3   OH231856   6.150   4.045   9.186 -0.2507 -0.1493 -0.0606
 2554TIP3    H131857   6.125   3.958   9.215 -0.4009 -0.3637 -0.8045
 2554TIP3    H231858   6.109   4.104   9.249 -0.0150 -0.6149  0.5400
 2555TIP3   OH231859   5.786   3.747   8.496 -0.2655  0.0449  0.1465
 2555TIP3    H131860   5.855   3.796   8.453 -0.7818 -0.8085 -1.7808
 2555TIP3    H231861   5.721   3.813   8.520  1.2850  0.8993  2.2736
 2556TIP3   OH231862   2.717   3.731   8.366  0.1311  0.0040 -0.1603
 2556TIP3    H131863   2.799   3.689   8.341  0.3331 -0.1461  0.7008
 2556TIP3    H231864   2.673   3.665   8.420  0.8583  1.1711  2.0038
 2557TIP3   OH231865   2.287   7.577   8.041  0.6207  0.6102 -0.1733
 2557TIP3    H131866   2.199   7.589   8.076  0.4452  0.6306 -0.6118
 2557TIP3    H231867   2.273   7.550   7.950  1.0188 -1.0820  0.2281
 2558TIP3   OH231868   7.465   7.043   8.785  0.1015 -0.1742  0.3034
 2558TIP3    H131869   7.517   6.969   8.817  1.2279 -0.6041 -2.2266
 2558TIP3    H231870   7.376   7.008   8.780  0.4192 -1.0135  0.2231
 2559TIP3   OH231871   6.888   5.193   7.834  0.1418  0.0722 -0.0868
 2559TIP3    H131872   6.834   5.231   7.765  1.5906  0.7286 -0.9163
 2559TIP3    H231873   6.971   5.241   7.828  0.1121  0.5828  2.5167
 2560TIP3   OH231874   6.684   5.932   7.156 -0.6146 -0.3178 -0.0786
 2560TIP3    H131875   6.744   5.881   7.100  0.5377  0.9514 -0.0429
 2560TIP3    H231876   6.622   5.867   7.189  0.2267 -1.5388 -0.8007
 2561TIP3   OH231877   7.610   0.438   8.034  0.3086 -0.0491 -0.0933
 2561TIP3    H131878   7.656   0.466   8.113 -0.4969 -1.3034  0.8472
 2561TIP3    H231879   7.531   0.394   8.066 -0.9985  1.0441 -1.6367
 2562TIP3   OH231880   3.296   2.809   6.311  0.1778 -0.2478  0.5553
 2562TIP3    H131881   3.246   2.738   6.352  1.3051 -0.5036  1.5822
 2562TIP3    H231882   3.256   2.889   6.344 -0.2691 -0.4334  0.4626
 2563TIP3   OH231883   0.058   3.412   6.903 -0.1167  0.1915 -0.1134
 2563TIP3    H131884  -0.012   3.470   6.873 -0.5996 -0.6821 -0.7464
 2563TIP3    H231885   0.025   3.324   6.885  0.3048 -0.3192  1.4596
 2564TIP3   OH231886   0.112   2.168   8.620 -0.7362 -0.2142  0.6265
 2564TIP3    H131887   0.036   2.127   8.579 -1.4449  0.0956  1.5844
 2564TIP3    H231888   0.081   2.195   8.706  0.3611  0.2667  0.8912
 2565TIP3   OH231889   3.020   5.104   8.823  0.5838  0.4212 -0.0212
 2565TIP3    H131890   3.013   5.035   8.888 -2.7637 -0.8280 -1.4610
 2565TIP3    H231891   3.087   5.073   8.762 -0.8104 -1.6745 -0.6188
 2566TIP3   OH231892   0.046   2.710   8.669 -0.2842  0.5451  0.6885
 2566TIP3    H131893  -0.044   2.717   8.636 -1.4246 -3.1286  2.4095
 2566TIP3    H231894   0.101   2.721   8.592 -2.2924  1.4793 -0.6811
 2567TIP3   OH231895   5.336   6.164   7.328 -0.1156  0.2231  0.1321
 2567TIP3    H131896   5.410   6.185   7.271 -0.4032  0.2570 -0.2320
 2567TIP3    H231897   5.314   6.247   7.369 -0.5576  0.4143 -0.4818
 2568TIP3   OH231898   0.303   3.338   8.158 -0.6562 -0.3412  0.3592
 2568TIP3    H131899   0.296   3.326   8.064  0.9111  1.8817 -0.0954
 2568TIP3    H231900   0.216   3.367   8.186 -0.5910  0.9904 -0.7586
 2569TIP3   OH231901   3.094   5.411   6.951 -0.3070  0.0874  0.6120
 2569TIP3    H131902   3.077   5.368   7.035 -1.1904  0.4380  0.6185
 2569TIP3    H231903   3.035   5.487   6.950 -1.2026 -0.5913 -0.8467
 2570TIP3   OH231904   5.580   3.895   8.594  0.7515  0.2477  0.3843
 2570TIP3    H131905   5.547   3.960   8.655  0.7039  0.1119  0.5038
 2570TIP3    H231906   5.504   3.842   8.571  0.4841  1.1367 -0.8479
 2571TIP3   OH231907   2.071   4.458   8.584 -0.2958 -0.6481 -0.2268
 2571TIP3    H131908   2.125   4.488   8.658 -1.5349  2.2274 -0.3660
 2571TIP3    H231909   1.985   4.442   8.622 -0.8636  0.5609 -0.9545
 2572TIP3   OH231910   4.859   6.228   8.952  0.3279  0.3751 -0.1039
 2572TIP3    H131911   4.769   6.235   8.921  0.5320 -0.4243 -0.9208
 2572TIP3    H231912   4.856   6.256   9.043 -0.6206  1.0223 -0.3205
 2573TIP3   OH231913   6.287   0.263   9.474 -0.0405  0.2322  0.0668
 2573TIP3    H131914   6.223   0.287   9.407  0.1930 -0.2559 -0.3363
 2573TIP3    H231915   6.288   0.338   9.534 -1.3028  0.0760  0.3165
 2574TIP3   OH231916   4.878   3.709   7.696  0.3597 -0.1107  0.2906
 2574TIP3    H131917   4.876   3.800   7.666  0.4563  0.0934  0.8704
 2574TIP3    H231918   4.966   3.679   7.675 -0.4330 -0.9203 -2.2401
 2575TIP3   OH231919   7.456   0.428   7.071 -0.5072  0.1025 -0.2899
 2575TIP3    H131920   7.367   0.461   7.086  0.3193  1.3172  2.6137
 2575TIP3    H231921   7.505   0.504   7.040 -0.0190 -0.0147  0.1815
 2576TIP3   OH231922   1.190   7.241   8.066  0.2574  0.0968 -0.6317
 2576TIP3    H131923   1.282   7.215   8.056  0.5081  0.6022  0.2321
 2576TIP3    H231924   1.192   7.307   8.135 -0.4335  1.9447 -2.2770
 2577TIP3   OH231925   4.259   5.525   9.578  0.3047  0.4706 -0.5416
 2577TIP3    H131926   4.170   5.492   9.573  0.3997 -0.5784  2.6153
 2577TIP3    H231927   4.312   5.459   9.534 -0.1545 -0.6348  0.5202
 2578TIP3   OH231928   6.024   4.021   7.352  0.4212 -0.0338 -0.1687
 2578TIP3    H131929   6.087   4.093   7.362  0.6185  0.0755 -1.8751
 2578TIP3    H231930   6.049   3.978   7.270 -2.4265  0.7509 -1.5926
 2579TIP3   OH231931   6.358   6.388   9.452  0.1793  0.2196 -0.8129
 2579TIP3    H131932   6.370   6.483   9.463  0.9954 -0.0535  0.8926
 2579TIP3    H231933   6.390   6.370   9.364  1.3850  1.3098 -0.6232
 2580TIP3   OH231934   5.238   7.155   7.934 -0.6256 -0.4391 -0.7450
 2580TIP3    H131935   5.265   7.064   7.944  0.2152 -0.2830 -1.5401
 2580TIP3    H231936   5.315   7.200   7.900 -0.5462  0.8762  1.0027
 2581TIP3   OH231937   7.532   4.629   7.798  0.0804  0.0000 -0.1707
 2581TIP3    H131938   7.556   4.680   7.876 -0.4780 -0.8648  0.5936
 2581TIP3    H231939   7.455   4.579   7.825 -0.3692 -0.0114 -1.4242
 2582TIP3   OH231940   0.536   0.393   9.269  0.3754  0.0338 -0.2970
 2582TIP3    H131941   0.509   0.478   9.305  0.0785 -0.8179  1.6285
 2582TIP3    H231942   0.631   0.399   9.263  0.3334  0.6125 -0.4573
 2583TIP3   OH231943   0.145   6.908   9.334 -0.2088  0.3308  0.5674
 2583TIP3    H131944   0.183   6.840   9.389  2.5789  0.6371 -0.8000
 2583TIP3    H231945   0.206   6.982   9.342 -0.5692  0.9368 -1.6342
 2584TIP3   OH231946   6.762   3.654   9.092 -0.6028  0.0646 -0.6674
 2584TIP3    H131947   6.770   3.695   9.178 -1.2464 -1.0355 -0.0615
 2584TIP3    H231948   6.774   3.561   9.109 -0.2286 -0.1152 -1.8580
 2585TIP3   OH231949   3.510   3.196   7.758 -0.0753  0.2185  0.0249
 2585TIP3    H131950   3.527   3.113   7.713  1.2087  0.5355 -0.1257
 2585TIP3    H231951   3.415   3.198   7.770 -0.0062 -2.2199  1.8387
 2586TIP3   OH231952   6.418   3.805   8.348 -0.0610  0.5755 -0.2929
 2586TIP3    H131953   6.427   3.743   8.420 -1.3521  1.3449  0.5919
 2586TIP3    H231954   6.478   3.876   8.370 -0.9277  1.1200  0.4207
 2587TIP3   OH231955   0.770   6.492   7.798 -0.2301 -0.2788 -0.3554
 2587TIP3    H131956   0.750   6.567   7.742  1.2812  0.5043  0.0939
 2587TIP3    H231957   0.699   6.430   7.781 -0.2083  0.2193 -2.5715
 2588TIP3   OH231958   3.319   0.703   8.295  0.0868 -0.4078  0.1259
 2588TIP3    H131959   3.414   0.695   8.294  0.0443 -1.0391 -1.2024
 2588TIP3    H231960   3.303   0.790   8.332  1.1718 -0.3048  0.3945
 2589TIP3   OH231961   6.189   5.872   8.862  0.3265 -0.3663  0.1755
 2589TIP3    H131962   6.224   5.927   8.932  0.1066  0.1651 -0.1260
 2589TIP3    H231963   6.227   5.786   8.878 -1.0050 -0.6837  1.9215
 2590TIP3   OH231964   1.664   3.128   9.246 -0.3717 -0.2953  0.7264
 2590TIP3    H131965   1.658   3.042   9.287  1.1581 -0.0168  1.6110
 2590TIP3    H231966   1.594   3.179   9.286 -1.9564 -1.3843 -0.5473
 2591TIP3   OH231967   5.741   6.021   9.297 -0.7842  0.3126 -0.1400
 2591TIP3    H131968   5.785   6.105   9.313  1.0324 -0.6390  0.0352
 2591TIP3    H231969   5.657   6.030   9.343 -0.5103  1.9328  0.1103
 2592TIP3   OH231970   4.909   0.071   8.558  0.3451 -0.2506  0.4543
 2592TIP3    H131971   4.976   0.046   8.495  0.0920 -3.5217  1.2876
 2592TIP3    H231972   4.856  -0.008   8.570 -2.0464  1.4108  1.8292
 2593TIP3   OH231973   1.008   3.041   8.497 -0.2154  1.0886  0.3933
 2593TIP3    H131974   1.056   3.051   8.415  0.3235  2.1001  0.8110
 2593TIP3    H231975   0.918   3.024   8.469  0.0253  1.0580 -0.4083
 2594TIP3   OH231976   7.590   7.173   7.122 -0.5376 -0.2321  0.2334
 2594TIP3    H131977   7.676   7.208   7.098 -0.5783  1.5622  2.3936
 2594TIP3    H231978   7.607   7.081   7.143  0.3242 -0.5931 -1.7558
 2595TIP3   OH231979   3.677   1.270   7.989  0.3739  0.1454  0.2120
 2595TIP3    H131980   3.706   1.183   8.015 -0.3313 -0.5849 -1.3263
 2595TIP3    H231981   3.581   1.266   7.993  0.3207  0.7044 -0.2847
 2596TIP3   OH231982   5.388   2.056   6.863  0.2565  0.1817 -0.1103
 2596TIP3    H131983   5.379   2.129   6.801 -1.1127  1.6910  1.7551
 2596TIP3    H231984   5.480   2.059   6.891  1.0062 -0.7633 -2.2407
 2597TIP3   OH231985   4.751   6.521   8.572 -0.3059 -0.2525  0.3091
 2597TIP3    H131986   4.746   6.565   8.657  1.3213 -0.7281  0.6922
 2597TIP3    H231987   4.667   6.539   8.530 -0.2246  2.0729  1.0056
 2598TIP3   OH231988   6.767   2.738   7.728 -0.3707 -0.0763 -0.2480
 2598TIP3    H131989   6.795   2.791   7.653  0.7182 -0.1581  0.0974
 2598TIP3    H231990   6.780   2.794   7.804 -0.5026 -0.3575 -0.0139
 2599TIP3   OH231991   2.917   7.239   9.259 -0.4264  0.2046  0.0923
 2599TIP3    H131992   2.960   7.318   9.225 -0.6835  1.1926  1.9779
 2599TIP3    H231993   2.827   7.245   9.226 -0.2743  0.3649 -0.3004
 2600TIP3   OH231994   3.598   3.222   8.448 -0.1968  0.0099 -0.7664
 2600TIP3    H131995   3.560   3.136   8.465  1.7398 -0.6908  0.2260
 2600TIP3    H231996   3.688   3.217   8.480  0.2299  2.1627 -1.4011
 2601TIP3   OH231997   4.518   3.794   8.641 -0.1129 -0.1265  0.2420
 2601TIP3    H131998   4.527   3.888   8.624  2.8362 -0.3644 -0.1095
 2601TIP3    H231999   4.492   3.789   8.733  0.7234  1.0680  0.5744
 2602TIP3   OH232000   0.622   2.683   8.274 -0.2768 -0.2356  0.2268
 2602TIP3    H132001   0.697   2.739   8.292 -1.3351  1.7766 -1.2784
 2602TIP3    H232002   0.545   2.739   8.287 -1.3981 -1.3434 -1.2018
 2603TIP3   OH232003   0.683   4.052   8.871  0.1273 -0.4353 -0.1808
 2603TIP3    H132004   0.652   4.021   8.786 -2.0985  1.5762 -0.2001
 2603TIP3    H232005   0.686   3.973   8.925 -1.3675 -1.3275 -1.3012
 2604TIP3   OH232006   1.119   2.520   9.253  0.4800 -0.0698  0.3419
 2604TIP3    H132007   1.039   2.564   9.280  1.2517  0.7817  1.3140
 2604TIP3    H232008   1.181   2.591   9.234  0.9764 -0.7058 -0.5295
 2605TIP3   OH232009   6.659   5.198   7.355 -0.2360 -0.1330 -0.4389
 2605TIP3    H132010   6.739   5.211   7.304  0.1320 -1.1740 -0.1566
 2605TIP3    H232011   6.590   5.187   7.290 -0.0490  0.2059 -0.6939
 2606TIP3   OH232012   2.995   1.354   9.259  0.4658 -0.3096 -0.6206
 2606TIP3    H132013   2.987   1.314   9.173 -0.6069  1.4150 -1.3712
 2606TIP3    H232014   3.085   1.387   9.262 -0.4214  2.7001 -2.5919
 2607TIP3   OH232015   3.693   7.427   9.005 -0.6787  0.0240  0.1832
 2607TIP3    H132016   3.602   7.403   8.988 -0.0235 -0.9274 -2.4086
 2607TIP3    H232017   3.702   7.514   8.965 -1.1355  1.5518  3.1082
 2608TIP3   OH232018   7.302   6.375   7.232  0.1612  0.6208 -0.0438
 2608TIP3    H132019   7.287   6.292   7.277 -0.6910  0.6898 -0.1846
 2608TIP3    H232020   7.311   6.351   7.140  2.6006  0.3995  0.1880
 2609TIP3   OH232021   3.314   5.324   9.409 -0.1593  0.1531 -0.0812
 2609TIP3    H132022   3.265   5.363   9.336  1.2501 -0.0262 -1.1848
 2609TIP3    H232023   3.349   5.399   9.458 -0.0025  0.2918 -0.3980
 2610TIP3   OH232024   5.630   5.520   6.690 -0.1079  0.1070  0.2273
 2610TIP3    H132025   5.661   5.585   6.753  1.1241  0.4725 -0.7173
 2610TIP3    H232026   5.540   5.548   6.669  0.2153  1.1990  0.2462
 2611TIP3   OH232027   7.221   3.298   9.205 -0.0720  0.1115 -0.8268
 2611TIP3    H132028   7.295   3.357   9.217  1.1037 -1.3127 -0.8168
 2611TIP3    H232029   7.161   3.320   9.277  0.9747  0.3521 -0.0070
 2612TIP3   OH232030   0.699   1.887   8.749 -0.4001  0.1360 -0.0055
 2612TIP3    H132031   0.608   1.918   8.747  0.3164  2.5140  0.5095
 2612TIP3    H232032   0.701   1.824   8.821 -1.4368  0.8320  0.6700
 2613TIP3   OH232033   3.556   0.589   9.573  0.1549 -0.2255 -0.4942
 2613TIP3    H132034   3.523   0.678   9.564  1.3836  0.2548 -0.3887
 2613TIP3    H232035   3.479   0.533   9.559 -0.8147  0.8603  0.3425
 2614TIP3   OH232036   3.710   2.012   8.093 -0.0106 -0.0783  0.0193
 2614TIP3    H132037   3.743   2.095   8.126  0.0764  0.0132 -0.2984
 2614TIP3    H232038   3.737   2.010   8.001  0.2375 -0.5840  0.1006
 2615TIP3   OH232039   2.150   3.109   8.998  0.1051 -0.0254  0.5308
 2615TIP3    H132040   2.169   3.203   9.003 -0.8014  0.1036  3.6028
 2615TIP3    H232041   2.056   3.105   8.976 -0.2958 -0.1036  2.1463
 2616TIP3   OH232042   6.179   3.315   6.743 -0.1913 -0.0085 -0.3558
 2616TIP3    H132043   6.247   3.278   6.687  0.5711  1.4877 -0.4689
 2616TIP3    H232044   6.109   3.250   6.741  0.4416 -0.7012 -1.8021
 2617TIP3   OH232045   1.036   3.956   8.322 -0.2045  0.5861 -0.6554
 2617TIP3    H132046   1.080   3.988   8.244 -0.1015  0.8626 -0.4867
 2617TIP3    H232047   1.067   4.013   8.393 -0.4660  0.4821 -0.4522
 2618TIP3   OH232048   0.554   5.827   7.397 -0.2356  0.3356 -0.0743
 2618TIP3    H132049   0.514   5.741   7.385  1.2629 -0.4182  0.1026
 2618TIP3    H232050   0.518   5.859   7.480 -1.6813  0.4113 -0.7058
 2619TIP3   OH232051   5.948   6.724   7.680  0.2072 -0.3603 -0.6234
 2619TIP3    H132052   5.963   6.657   7.747  1.8398  0.7597  0.2029
 2619TIP3    H232053   5.946   6.676   7.597  0.0355 -1.5646  0.0705
 2620TIP3   OH232054   5.049   6.416   9.140 -0.1348 -0.0011 -0.1058
 2620TIP3    H132055   5.064   6.322   9.130  0.2873  0.1339 -0.7798
 2620TIP3    H232056   4.965   6.422   9.186  0.4564 -0.7358  1.1592
 2621TIP3   OH232057   3.952   5.805   8.281  0.3663  0.0364 -0.0277
 2621TIP3    H132058   3.863   5.832   8.258  0.2673  1.3192  1.6579
 2621TIP3    H232059   3.997   5.798   8.197 -1.5109 -1.4938 -0.9979
 2622TIP3   OH232060   4.692   0.354   9.412 -0.0122  0.0317 -0.0056
 2622TIP3    H132061   4.628   0.362   9.484  0.1108  1.3728 -0.0244
 2622TIP3    H232062   4.665   0.275   9.366 -1.9930  0.8093 -0.3117
 2623TIP3   OH232063   5.762   5.599   9.120  0.3899 -0.4262  0.0592
 2623TIP3    H132064   5.790   5.618   9.209  1.3224  1.0811 -0.5102
 2623TIP3    H232065   5.668   5.616   9.119  0.5046  0.2656  0.5735
 2624TIP3   OH232066   3.619   7.028   8.123  0.3227  0.7501 -0.2509
 2624TIP3    H132067   3.657   7.113   8.145  2.1809 -0.2834  0.7154
 2624TIP3    H232068   3.689   6.965   8.139 -0.8425 -0.9334 -1.4373
 2625TIP3   OH232069   5.051   0.881   8.850  0.0854 -0.1313 -0.3233
 2625TIP3    H132070   5.117   0.942   8.883  1.7516 -1.5919 -0.7931
 2625TIP3    H232071   5.078   0.796   8.884 -2.5269 -0.5993  0.8476
 2626TIP3   OH232072   7.362   3.707   9.374 -0.1502  0.0515  0.6131
 2626TIP3    H132073   7.312   3.784   9.345  0.0975 -0.7294 -2.0527
 2626TIP3    H232074   7.440   3.744   9.416 -0.7352  1.2470  0.6955
 2627TIP3   OH232075   4.012   5.619   6.902 -0.0789  0.2620  0.1886
 2627TIP3    H132076   4.096   5.644   6.941 -0.0351 -1.4406  1.2795
 2627TIP3    H232077   4.006   5.672   6.822  2.4227 -0.1656 -0.3533
 2628TIP3   OH232078   0.964   2.556   7.053 -0.5865  0.2808  0.5426
 2628TIP3    H132079   1.032   2.496   7.022 -0.2108  1.3346 -0.7901
 2628TIP3    H232080   0.903   2.500   7.101 -0.3633 -1.2162 -0.8158
 2629TIP3   OH232081   0.679   6.862   8.083  0.2392 -0.2311  0.5172
 2629TIP3    H132082   0.736   6.931   8.050  0.0230 -1.2728 -2.2830
 2629TIP3    H232083   0.597   6.907   8.104  1.0363  0.7794  1.6001
 2630TIP3   OH232084   3.423   6.236   9.538  0.6596 -0.1057 -0.5603
 2630TIP3    H132085   3.367   6.301   9.581  1.0695  0.2507 -0.5682
 2630TIP3    H232086   3.421   6.160   9.597  1.8536  0.6526  0.5060
 2631TIP3   OH232087   1.301   3.019   9.142 -0.0485 -0.0251 -0.0160
 2631TIP3    H132088   1.337   2.981   9.062 -0.3412 -0.9308  0.2754
 2631TIP3    H232089   1.207   3.024   9.126 -0.1653 -0.6622  0.4556
 2632TIP3   OH232090   5.994   1.223   8.455  0.0970  1.2808 -0.4801
 2632TIP3    H132091   5.907   1.190   8.434  0.0355  0.1695  1.2944
 2632TIP3    H232092   5.981   1.317   8.465 -0.5072  1.3853 -1.9478
 2633TIP3   OH232093   1.606   1.457   8.951  0.6321  0.6327 -0.1818
 2633TIP3    H132094   1.663   1.471   9.026  0.8074 -0.9898  0.0185
 2633TIP3    H232095   1.537   1.399   8.983 -0.6363  1.8127 -0.6674
 2634TIP3   OH232096   6.218   4.358   8.316  0.3029  0.1966  0.7701
 2634TIP3    H132097   6.229   4.285   8.256  1.9953  2.0267 -1.3381
 2634TIP3    H232098   6.236   4.322   8.403  1.9421 -1.6798 -0.2819
 2635TIP3   OH232099   1.501   5.534   7.666 -0.3763 -0.2283 -0.5334
 2635TIP3    H132100   1.447   5.582   7.729 -0.3355 -1.6552  0.6621
 2635TIP3    H232101   1.572   5.498   7.719  1.4161  1.0837 -1.9779
 2636TIP3   OH232102   3.696   1.044   7.317 -0.0943  0.5217 -0.4151
 2636TIP3    H132103   3.670   1.010   7.232 -2.0034  1.1170 -0.1005
 2636TIP3    H232104   3.748   0.973   7.356 -1.0048 -0.6100 -1.2065
 2637TIP3   OH232105   2.719   1.725   8.195 -0.0358  0.0208 -0.4659
 2637TIP3    H132106   2.651   1.662   8.171 -1.9224  2.0624 -0.7645
 2637TIP3    H232107   2.695   1.755   8.282  0.4262  0.8291 -0.5990
 2638TIP3   OH232108   2.955   3.710   6.851 -0.2203  0.4018  0.2100
 2638TIP3    H132109   2.904   3.689   6.930 -1.4231  2.4456  0.0535
 2638TIP3    H232110   2.986   3.625   6.819 -2.8716 -0.9003  0.7704
 2639TIP3   OH232111   4.073   4.084   9.928  0.3970  0.0632 -0.3026
 2639TIP3    H132112   4.151   4.089   9.985  0.4451 -1.9204 -0.1305
 2639TIP3    H232113   4.093   4.015   9.866 -0.6752  0.5269 -1.1955
 2640TIP3   OH232114   1.497   5.565   7.175 -0.3172 -0.2375  0.1936
 2640TIP3    H132115   1.473   5.616   7.098  3.7234  1.4426 -0.2092
 2640TIP3    H232116   1.469   5.618   7.250  1.0498  1.1051 -0.2172
 2641TIP3   OH232117   0.041   2.212   7.754  0.2292  0.0654 -0.2490
 2641TIP3    H132118  -0.013   2.135   7.773  0.2585 -0.5335 -2.4027
 2641TIP3    H232119  -0.019   2.286   7.764  0.1610 -0.1884  1.6928
 2642TIP3   OH232120   2.324   7.270   9.135 -0.2636  0.9111 -0.0277
 2642TIP3    H132121   2.320   7.294   9.042  0.7068  0.6906 -0.1449
 2642TIP3    H232122   2.316   7.353   9.181  0.5088  1.1774 -0.3562
 2643TIP3   OH232123   6.071   6.911   8.980 -0.0862  0.7287  0.0395
 2643TIP3    H132124   6.032   6.833   9.019 -0.9222  0.7957 -0.6254
 2643TIP3    H232125   6.088   6.969   9.054  1.8085 -0.5808  0.7045
 2644TIP3   OH232126   6.311   3.201   7.637  0.2632 -0.2319  0.7525
 2644TIP3    H132127   6.258   3.148   7.577  2.2436 -0.2056 -1.1458
 2644TIP3    H232128   6.288   3.291   7.616 -0.1340 -0.2444  1.1160
 2645TIP3   OH232129   7.214   4.713   9.299 -0.2520  0.0263  0.6152
 2645TIP3    H132130   7.235   4.736   9.208 -0.7617  0.2540  0.5545
 2645TIP3    H232131   7.188   4.621   9.295 -2.9032  0.7201  0.0746
 2646TIP3   OH232132   0.166   0.665   8.411  0.0853 -0.1871 -0.1903
 2646TIP3    H132133   0.259   0.673   8.391  0.0787 -0.0668 -0.1704
 2646TIP3    H232134   0.163   0.618   8.495  0.1454  0.3894  0.1358
 2647TIP3   OH232135   3.933   7.365   9.169 -0.4447 -0.5259  0.0179
 2647TIP3    H132136   3.838   7.379   9.170 -0.6085 -1.3129  1.9829
 2647TIP3    H232137   3.964   7.409   9.249  0.7732 -0.6746 -0.3552
 2648TIP3   OH232138   4.374   2.242   7.701 -0.3869  0.2895  0.0717
 2648TIP3    H132139   4.321   2.234   7.780  1.0981 -0.6357  1.0217
 2648TIP3    H232140   4.407   2.153   7.686  0.2836  0.6938 -0.9289
 2649TIP3   OH232141   6.665   6.313   8.918  0.6398 -0.1732  0.4522
 2649TIP3    H132142   6.590   6.292   8.862 -0.4124 -0.1125  1.7811
 2649TIP3    H232143   6.639   6.391   8.965  0.4954 -1.5050  2.7205
 2650TIP3   OH232144   7.440   1.155   8.014 -0.1261 -0.1772  0.1626
 2650TIP3    H132145   7.510   1.092   8.030 -1.6723 -2.1918 -0.4959
 2650TIP3    H232146   7.384   1.149   8.092  0.6454  1.8333  0.9491
 2651TIP3   OH232147   6.715   0.336   9.459  0.2050  0.7684 -0.0223
 2651TIP3    H132148   6.712   0.243   9.436 -0.6155  1.2750 -2.2186
 2651TIP3    H232149   6.669   0.341   9.542 -0.0799 -0.7381 -0.0490
 2652TIP3   OH232150   3.219   5.586   7.612  0.0958  0.1383 -0.5808
 2652TIP3    H132151   3.266   5.578   7.695 -1.0818  1.1764  0.2256
 2652TIP3    H232152   3.142   5.639   7.633 -1.2527 -1.1915 -1.9336
 2653TIP3   OH232153   5.341   7.159   8.484 -0.2778 -0.6971  0.2714
 2653TIP3    H132154   5.399   7.231   8.509  0.2402 -0.7330 -0.7429
 2653TIP3    H232155   5.392   7.109   8.420 -1.4548 -0.6821 -0.7188
 2654TIP3   OH232156   4.754   6.289   8.361 -0.1869  0.5069 -0.1858
 2654TIP3    H132157   4.774   6.362   8.419 -0.5576  0.6451 -0.2273
 2654TIP3    H232158   4.839   6.263   8.325  0.4278 -1.2599  2.3382
 2655TIP3   OH232159   5.514   0.723   6.810 -0.3919 -0.0585  0.3646
 2655TIP3    H132160   5.482   0.761   6.892 -2.2140  0.1318 -0.3740
 2655TIP3    H232161   5.565   0.793   6.769  0.5781 -0.1727  1.3288
 2656TIP3   OH232162   7.044   1.330   9.316 -0.6762 -0.3380  0.0602
 2656TIP3    H132163   7.028   1.416   9.276  1.2337  0.4749  0.9151
 2656TIP3    H232164   7.046   1.270   9.242  2.4931  1.0798 -1.1789
 2657TIP3   OH232165   7.565   3.716   7.234  0.2319 -0.1831 -0.2454
 2657TIP3    H132166   7.575   3.692   7.141  1.8942  1.2568 -0.4962
 2657TIP3    H232167   7.620   3.654   7.281 -0.1494 -0.5486 -0.2787
 2658TIP3   OH232168   6.759   2.259   8.868  0.1773  0.4504  0.2851
 2658TIP3    H132169   6.674   2.300   8.853 -0.3500 -0.3535  0.9678
 2658TIP3    H232170   6.795   2.246   8.780  0.1903  1.9605  0.0283
 2659TIP3   OH232171   2.157   4.088   7.808 -0.2164 -0.1033 -0.2416
 2659TIP3    H132172   2.131   4.041   7.888 -2.7080  1.6452  0.0915
 2659TIP3    H232173   2.077   4.092   7.756  0.6846  1.1574 -1.6066
 2660TIP3   OH232174   6.700   3.608   7.676 -0.0535 -0.2504  0.2078
 2660TIP3    H132175   6.712   3.698   7.648 -0.1195 -0.8718 -2.0254
 2660TIP3    H232176   6.631   3.612   7.741  0.0529  1.3260  0.2521
 2661TIP3   OH232177   0.462   7.572   9.019  0.4022 -0.2775 -0.1787
 2661TIP3    H132178   0.553   7.588   9.042  0.1676 -1.1015  1.4068
 2661TIP3    H232179   0.415   7.571   9.102 -1.1680  0.6760 -0.9978
 2662TIP3   OH232180   3.107   1.148   8.206  0.1513 -0.3560  0.2474
 2662TIP3    H132181   3.066   1.232   8.226 -0.2920 -0.4106 -0.3866
 2662TIP3    H232182   3.034   1.092   8.178  0.5214 -0.7785  0.1175
 2663TIP3   OH232183   1.389   2.491   8.005  0.1468 -0.0643 -0.1925
 2663TIP3    H132184   1.317   2.510   7.945 -0.1981  1.3094  0.6300
 2663TIP3    H232185   1.352   2.429   8.068  0.2594 -0.8278 -0.8521
 2664TIP3   OH232186   3.818   6.685   8.741  0.2116  0.4458 -0.0604
 2664TIP3    H132187   3.881   6.711   8.674  1.0144  2.6336  1.4326
 2664TIP3    H232188   3.732   6.702   8.701  0.6460  0.9732 -0.7984
 2665TIP3   OH232189   5.335   4.984   7.443 -0.1743  0.5696 -0.3110
 2665TIP3    H132190   5.426   4.966   7.467 -0.3943 -1.2627 -0.7256
 2665TIP3    H232191   5.334   4.977   7.347 -0.5625  1.6221 -0.3966
 2666TIP3   OH232192   4.677   1.454   8.605  0.6348 -0.7327  0.2267
 2666TIP3    H132193   4.681   1.407   8.522  0.0054  1.1578 -0.9326
 2666TIP3    H232194   4.766   1.487   8.618  0.5057 -0.1903 -0.2264
 2667TIP3   OH232195   4.826   5.575   8.215 -0.8459  0.1467 -0.9751
 2667TIP3    H132196   4.848   5.667   8.230 -0.0977  0.0972 -1.6981
 2667TIP3    H232197   4.776   5.550   8.293  0.4084  0.6869  0.0541
 2668TIP3   OH232198   5.686   1.931   9.580 -0.0758 -0.1538 -0.3025
 2668TIP3    H132199   5.628   1.933   9.656 -0.2340  0.6496 -0.4425
 2668TIP3    H232200   5.642   1.874   9.517  0.0381 -0.7957  0.1893
 2669TIP3   OH232201   1.272   3.371   7.598  0.2361  0.7157  0.6386
 2669TIP3    H132202   1.359   3.380   7.636  0.5141  1.2609 -0.1105
 2669TIP3    H232203   1.222   3.445   7.632 -0.0252  0.2491  1.2884
 2670TIP3   OH232204   0.204   4.196   7.550 -0.3130 -0.2126 -0.3309
 2670TIP3    H132205   0.145   4.124   7.573  0.6238 -0.7647  0.4075
 2670TIP3    H232206   0.252   4.164   7.474 -1.9997  0.8357 -1.9119
 2671TIP3   OH232207   0.652   7.500   9.391 -0.5080 -0.1211 -0.4608
 2671TIP3    H132208   0.741   7.468   9.402 -0.3322  0.3923 -0.3671
 2671TIP3    H232209   0.613   7.441   9.327  0.2579  0.3362 -1.3850
 2672TIP3   OH232210   5.133   3.183   8.780  0.4726  0.4209 -0.5073
 2672TIP3    H132211   5.158   3.242   8.708 -0.5146  2.4802  0.7328
 2672TIP3    H232212   5.038   3.186   8.782  0.4843  1.1293  1.3976
 2673TIP3   OH232213   6.763   0.358   8.756 -0.2868  0.3799 -0.4452
 2673TIP3    H132214   6.772   0.303   8.833  0.6496  0.1715 -0.6960
 2673TIP3    H232215   6.825   0.430   8.769 -0.9196  0.9532 -0.4933
 2674TIP3   OH232216   5.637   4.981   7.743 -0.3994 -0.5596 -0.1491
 2674TIP3    H132217   5.630   4.949   7.654 -2.1479 -0.3457 -0.1169
 2674TIP3    H232218   5.621   5.075   7.736  0.8863 -0.2895  0.2344
 2675TIP3   OH232219   2.122   0.855   9.570  0.2195 -0.7821  0.1213
 2675TIP3    H132220   2.206   0.812   9.549  0.2733 -0.3945 -0.4817
 2675TIP3    H232221   2.133   0.884   9.660  0.2537 -1.8602  0.4818
 2676TIP3   OH232222   1.269   2.860   6.868 -0.0170 -0.1297  0.0058
 2676TIP3    H132223   1.238   2.776   6.835  0.9195 -0.8077  0.8104
 2676TIP3    H232224   1.218   2.925   6.819 -0.9094 -1.1568 -0.4660
 2677TIP3   OH232225   4.716   6.596   9.150  0.1165  0.8756  0.2529
 2677TIP3    H132226   4.810   6.617   9.153  0.7713 -1.3869 -1.5908
 2677TIP3    H232227   4.681   6.650   9.079  0.3339  0.6186 -0.0476
 2678TIP3   OH232228   0.230   7.593   7.460 -0.2394 -0.8460 -0.0057
 2678TIP3    H132229   0.254   7.665   7.518  2.5625  1.1756 -3.2793
 2678TIP3    H232230   0.136   7.605   7.443  0.3161  2.8677 -1.2792
 2679TIP3   OH232231   6.446   0.580   8.124  0.5218 -0.4016 -0.0761
 2679TIP3    H132232   6.405   0.524   8.058  0.4640 -2.9264  1.9451
 2679TIP3    H232233   6.384   0.580   8.197  1.2398  1.1070  0.5851
 2680TIP3   OH232234   4.560   3.207   7.738  0.1259  0.5471  0.0668
 2680TIP3    H132235   4.627   3.171   7.679 -1.7514  1.0701 -2.5223
 2680TIP3    H232236   4.498   3.136   7.750 -0.7874  1.2077 -0.6410
 2681TIP3   OH232237   5.397   4.600   6.566 -0.0508 -0.4996  0.4009
 2681TIP3    H132238   5.491   4.583   6.565 -0.2839 -1.9716  1.1183
 2681TIP3    H232239   5.389   4.686   6.607  1.0594  0.4889 -1.3137
 2682TIP3   OH232240   1.111   3.331   7.983 -0.1249  0.1288  0.4768
 2682TIP3    H132241   1.148   3.418   8.002  0.9327 -0.1848 -0.0891
 2682TIP3    H232242   1.021   3.336   8.017 -0.0190  1.3740  0.6417
 2683TIP3   OH232243   6.033   2.836   7.664  0.3235  0.3439 -0.2241
 2683TIP3    H132244   6.007   2.807   7.577 -0.4452 -1.0574  0.4335
 2683TIP3    H232245   5.950   2.853   7.710  0.6367 -0.6015  0.7465
 2684TIP3   OH232246   5.766   4.717   9.406  0.0651  0.9471 -0.3564
 2684TIP3    H132247   5.814   4.723   9.323 -0.0731 -0.3720 -0.5535
 2684TIP3    H232248   5.759   4.808   9.436  4.3878  1.1338  0.6846
 2685TIP3   OH232249   3.882   6.274   7.434 -0.1863 -0.4196 -0.0734
 2685TIP3    H132250   3.977   6.262   7.435 -0.1176  0.1144  0.4858
 2685TIP3    H232251   3.849   6.202   7.380  0.6989  0.5726 -2.0392
 2686TIP3   OH232252   1.193   4.275   8.746  0.1210  0.7317 -0.0168
 2686TIP3    H132253   1.238   4.205   8.793  1.0629  0.3423 -1.4337
 2686TIP3    H232254   1.105   4.242   8.732  0.1186  0.4602  0.6020
 2687TIP3   OH232255   3.602   4.774   7.410  0.0314 -0.5493 -0.3184
 2687TIP3    H132256   3.661   4.711   7.368  1.5207 -0.5561  1.6256
 2687TIP3    H232257   3.620   4.857   7.366  0.0173 -0.9479 -1.0949
 2688TIP3   OH232258   3.254   0.668   7.738 -0.0094  0.3766 -0.0825
 2688TIP3    H132259   3.328   0.724   7.763 -0.1039  0.5471 -0.1792
 2688TIP3    H232260   3.260   0.662   7.643 -0.6708  1.1738 -0.1860
 2689TIP3   OH232261   1.100   0.031   8.255 -0.0701  0.2589  0.3133
 2689TIP3    H132262   1.010   0.039   8.223 -0.5372 -2.2260  0.7738
 2689TIP3    H232263   1.127   0.121   8.274 -3.0146  0.9873  1.6049
 2690TIP3   OH232264   1.070   5.697   8.574  0.8121 -0.0021 -0.5089
 2690TIP3    H132265   1.032   5.679   8.488 -0.1774 -1.9582  0.2698
 2690TIP3    H232266   1.092   5.611   8.609  3.8776  0.8979  0.0807
 2691TIP3   OH232267   6.777   0.973   9.268  0.8898  0.3274  0.6418
 2691TIP3    H132268   6.850   0.920   9.301  1.0686 -0.3189 -0.7061
 2691TIP3    H232269   6.712   0.909   9.239  0.7375  0.8554 -0.2074
 2692TIP3   OH232270   5.404   5.357   7.142  0.3840 -0.5131 -0.5477
 2692TIP3    H132271   5.408   5.289   7.074 -1.6377 -0.5053 -0.7185
 2692TIP3    H232272   5.340   5.420   7.110 -0.3640 -0.3213  1.2142
 2693TIP3   OH232273   5.961   1.545   8.802 -0.0478  0.3051  0.1282
 2693TIP3    H132274   5.922   1.614   8.749  0.1759 -0.4938 -1.1425
 2693TIP3    H232275   5.891   1.480   8.812 -0.1288  0.5132  0.9384
 2694TIP3   OH232276   0.837   5.198   7.358 -0.0729  0.2325  0.6208
 2694TIP3    H132277   0.859   5.106   7.373  1.0823  0.5246  0.7537
 2694TIP3    H232278   0.921   5.244   7.359 -0.7795  1.5869  2.4543
 2695TIP3   OH232279   4.007   3.822   9.294 -0.4709 -0.3028 -0.0688
 2695TIP3    H132280   3.986   3.759   9.363  0.3245 -0.7442 -0.2219
 2695TIP3    H232281   3.929   3.879   9.289 -0.6767 -0.4762  0.9467
 2696TIP3   OH232282   7.664   1.218   6.743 -0.2167  0.6294 -0.2042
 2696TIP3    H132283   7.634   1.307   6.760  1.4491  0.8818  1.7721
 2696TIP3    H232284   7.755   1.217   6.772 -0.1115 -1.6709 -0.4120
 2697TIP3   OH232285   5.694   3.448   8.975 -0.0749  0.1684 -0.1094
 2697TIP3    H132286   5.732   3.390   8.910  1.2245  0.2763  0.5126
 2697TIP3    H232287   5.659   3.390   9.042 -0.1706  0.0798 -0.2365
 2698TIP3   OH232288   1.101   2.194   8.258 -0.2875  0.0292 -0.5227
 2698TIP3    H132289   1.061   2.111   8.230  0.0617 -0.2117 -0.3206
 2698TIP3    H232290   1.119   2.182   8.351  2.6413 -0.9016 -1.0932
 2699TIP3   OH232291   6.538   7.454   6.691  0.1392  0.3261 -0.7968
 2699TIP3    H132292   6.513   7.367   6.722 -0.7017  1.0138  0.5213
 2699TIP3    H232293   6.454   7.496   6.669  0.5201  0.9001 -1.1695
 2700TIP3   OH232294   6.087   0.253   9.248 -0.0262  0.1633  0.0002
 2700TIP3    H132295   6.020   0.312   9.213 -0.6287  1.8139  3.4861
 2700TIP3    H232296   6.170   0.292   9.220 -0.4711  0.5508 -0.8167
 2701TIP3   OH232297   5.856   2.060   9.386 -0.5043  0.1767  0.0603
 2701TIP3    H132298   5.826   2.011   9.463 -0.2451  1.1827  0.8295
 2701TIP3    H232299   5.919   2.123   9.421  1.1054 -0.6376 -1.2630
 2702TIP3   OH232300   6.812   4.829   7.444  0.0468 -0.7573  0.4501
 2702TIP3    H132301   6.820   4.854   7.537 -0.7964  0.4547  0.2196
 2702TIP3    H232302   6.732   4.873   7.414  0.6388 -0.6226 -1.0128
 2703TIP3   OH232303   5.471   2.744   8.326 -0.0947 -0.0609  0.4743
 2703TIP3    H132304   5.433   2.735   8.414 -0.2819 -1.9672  0.2404
 2703TIP3    H232305   5.455   2.659   8.285 -1.4538  1.2815 -1.9937
 2704TIP3   OH232306   4.993   2.116   7.520  0.2986 -0.5274 -0.7273
 2704TIP3    H132307   5.016   2.209   7.520  2.1391 -0.9143  0.6403
 2704TIP3    H232308   5.065   2.075   7.471 -0.5624 -1.2353 -1.4189
 2705TIP3   OH232309   5.597   3.576   7.059 -0.7232 -0.4464 -0.2285
 2705TIP3    H132310   5.688   3.577   7.030 -0.1327 -0.0179  1.4743
 2705TIP3    H232311   5.556   3.649   7.013 -0.2841 -0.7905 -1.1903
 2706TIP3   OH232312   0.931   1.543   9.021 -0.1296  0.5261 -0.1074
 2706TIP3    H132313   0.945   1.566   8.929  0.7891 -0.1346 -0.1570
 2706TIP3    H232314   0.941   1.448   9.023 -0.4040  0.5074  0.6368
 2707TIP3   OH232315   6.516   0.001   7.928  0.6609 -0.3772  0.2849
 2707TIP3    H132316   6.453   0.065   7.895  2.3552  0.9003 -0.6540
 2707TIP3    H232317   6.531   0.028   8.019  0.0634 -0.5331  0.4361
 2708TIP3   OH232318   5.129   6.446   8.022 -0.2856  0.5469 -0.3781
 2708TIP3    H132319   5.101   6.381   7.958 -1.8011  0.3124  0.4805
 2708TIP3    H232320   5.143   6.525   7.971 -1.1375  0.2723 -1.0612
 2709TIP3   OH232321   2.443   1.886   8.941 -0.1475 -0.0700 -1.0701
 2709TIP3    H132322   2.411   1.867   9.029  2.3236  0.2318 -0.0095
 2709TIP3    H232323   2.365   1.905   8.890 -1.6638 -0.3186  1.0368
 2710TIP3   OH232324   7.163   0.107   8.947  0.4629  0.0352 -0.0873
 2710TIP3    H132325   7.254   0.076   8.940  0.7545  0.8186  0.1578
 2710TIP3    H232326   7.145   0.144   8.860  1.0566  1.6479  0.4352
 2711TIP3   OH232327   7.486   2.878   7.478  0.0027  0.2087 -0.2098
 2711TIP3    H132328   7.518   2.907   7.392 -1.1834 -0.0289 -0.7501
 2711TIP3    H232329   7.414   2.937   7.498 -0.5307 -0.5117  0.0385
 2712TIP3   OH232330   0.111   4.749   8.828 -0.5718  0.7505  0.6397
 2712TIP3    H132331   0.022   4.732   8.796  0.4093 -2.0084 -0.8926
 2712TIP3    H232332   0.108   4.724   8.921 -1.5760  1.5939  0.8643
 2713TIP3   OH232333   5.822   0.764   7.231  0.2454  0.1238 -0.1585
 2713TIP3    H132334   5.887   0.833   7.244 -0.0164  0.6306 -1.4862
 2713TIP3    H232335   5.779   0.786   7.149 -0.7788 -0.8796  0.0901
 2714TIP3   OH232336   3.818   0.448   7.780 -0.4895 -0.1752  0.3446
 2714TIP3    H132337   3.777   0.443   7.694 -0.5656 -2.1853  0.4328
 2714TIP3    H232338   3.775   0.378   7.830  1.1438 -0.5637  1.2850
 2715TIP3   OH232339   5.873   6.055   7.310  0.0693  0.8472 -0.1071
 2715TIP3    H132340   5.889   6.150   7.306  0.2457  0.8280  0.0807
 2715TIP3    H232341   5.955   6.019   7.346 -0.2250  0.6935  0.4176
 2716TIP3   OH232342   4.263   6.051   6.983 -0.8991 -0.4805 -0.1490
 2716TIP3    H132343   4.172   6.040   6.953 -1.0525  0.8123 -0.1963
 2716TIP3    H232344   4.311   5.983   6.937 -1.5760 -0.1517 -1.3771
 2717TIP3   OH232345   2.479   6.940   8.212 -0.4249 -0.9167  0.2301
 2717TIP3    H132346   2.474   6.865   8.272  1.2731 -1.4899 -0.2832
 2717TIP3    H232347   2.484   6.901   8.125  1.3485 -0.2825  0.0043
 2718TIP3   OH232348   5.447   3.052   8.308 -0.1509  0.0200  0.3813
 2718TIP3    H132349   5.462   2.962   8.339 -3.6025 -0.2237  1.9000
 2718TIP3    H232350   5.444   3.105   8.387 -2.5158  0.6016  0.0002
 2719TIP3   OH232351   5.508   2.854   9.029  0.1905  0.0071 -0.7380
 2719TIP3    H132352   5.458   2.863   9.111 -3.3312  0.6169 -2.7592
 2719TIP3    H232353   5.548   2.940   9.016 -2.7058  1.3642 -1.5801
 2720TIP3   OH232354   1.079   2.702   8.218 -0.2485  0.7147  0.2543
 2720TIP3    H132355   1.081   2.615   8.180 -1.3273  0.6299  0.3804
 2720TIP3    H232356   1.154   2.703   8.278  0.6412  0.3913 -0.8207
 2721TIP3   OH232357   0.478   5.921   7.687 -0.2430 -0.0947 -0.0979
 2721TIP3    H132358   0.443   5.969   7.761 -1.9983  0.1828 -1.0552
 2721TIP3    H232359   0.442   5.833   7.696 -1.7781  0.3525 -1.4174
 2722TIP3   OH232360   3.861   3.778   7.138 -0.0114  0.2922 -0.1188
 2722TIP3    H132361   3.932   3.748   7.195 -1.0309 -0.7273  0.6615
 2722TIP3    H232362   3.900   3.850   7.088  1.7122 -0.5428 -0.0736
 2723TIP3   OH232363   6.481   3.695   9.188 -0.6572  0.2040  0.5825
 2723TIP3    H132364   6.520   3.700   9.275 -0.9643  0.1450  0.7248
 2723TIP3    H232365   6.518   3.770   9.141  0.9097 -0.7585  0.1805
 2724TIP3   OH232366   6.047   2.491   8.702 -0.3959 -0.5863 -0.3377
 2724TIP3    H132367   6.076   2.406   8.734  0.0923  0.6554  2.9046
 2724TIP3    H232368   5.953   2.493   8.718 -0.0642  0.2646  1.9360
 2725TIP3   OH232369   6.639   1.026   7.832 -0.2156  0.1757  0.1141
 2725TIP3    H132370   6.608   0.952   7.885  0.7611  0.6598  1.4401
 2725TIP3    H232371   6.662   0.987   7.748 -1.8208 -0.6278  0.0151
 2726TIP3   OH232372   5.643   2.599   9.035 -0.9752  0.0878  1.0160
 2726TIP3    H132373   5.550   2.578   9.038 -0.7554 -0.8107  2.4096
 2726TIP3    H232374   5.646   2.692   9.015 -2.1544  0.0633  0.6240
 2727TIP3   OH232375   4.263   0.359   8.751  0.4875  0.1515  0.8436
 2727TIP3    H132376   4.176   0.354   8.710 -0.2171  1.8585  2.0337
 2727TIP3    H232377   4.261   0.291   8.818  0.4121 -0.3843  0.3162
 2728TIP3   OH232378   5.880   3.317   7.537  0.0046 -0.1297  0.3149
 2728TIP3    H132379   5.923   3.260   7.602  1.6693  0.0180 -0.6234
 2728TIP3    H232380   5.886   3.268   7.455  2.3457  1.7325 -0.7306
 2729TIP3   OH232381   7.307   4.158   7.977 -0.3230  0.0820  0.4482
 2729TIP3    H132382   7.216   4.176   7.953 -0.0043  1.3643  0.0941
 2729TIP3    H232383   7.316   4.063   7.969 -1.0977  0.1172 -1.4013
 2730TIP3   OH232384   3.914   0.875   7.985 -0.3025 -0.2084 -0.2761
 2730TIP3    H132385   3.924   0.797   8.039 -0.8653  0.8164  1.4132
 2730TIP3    H232386   3.985   0.871   7.922 -0.5861 -2.2911 -0.5364
 2731TIP3   OH232387   5.665   2.059   6.956  1.0461  0.1871  0.1022
 2731TIP3    H132388   5.717   2.081   6.879 -0.1315  0.7547 -0.5630
 2731TIP3    H232389   5.678   2.134   7.015 -0.0230  0.9829 -0.6201
 2732TIP3   OH232390   5.321   5.265   7.399  0.4986  0.1322  0.2538
 2732TIP3    H132391   5.372   5.276   7.319 -0.3451 -1.3688 -0.5383
 2732TIP3    H232392   5.330   5.173   7.420  1.8302  0.7541  2.7209
 2733TIP3   OH232393   0.443   3.866   7.896  0.0025  0.1195  0.1973
 2733TIP3    H132394   0.474   3.777   7.909 -0.2909 -0.3476 -1.8900
 2733TIP3    H232395   0.367   3.857   7.838  0.6250  1.7780 -0.9790
 2734TIP3   OH232396   0.471   4.766   6.937 -0.1781  0.3698  0.0399
 2734TIP3    H132397   0.499   4.822   6.864 -0.0098 -1.7367 -1.6129
 2734TIP3    H232398   0.534   4.694   6.937 -0.6227 -0.0645  1.8279
 2735TIP3   OH232399   3.031   6.270   8.655  1.0500 -0.5772  0.0052
 2735TIP3    H132400   3.112   6.241   8.698  0.4704 -0.4402  1.2458
 2735TIP3    H232401   2.961   6.230   8.707  0.2732  1.4448  0.5844
 2736TIP3   OH232402   2.362   0.243   9.035  0.3513  0.2418  0.3760
 2736TIP3    H132403   2.427   0.195   8.984  0.3553 -1.1041  1.5915
 2736TIP3    H232404   2.304   0.282   8.970  0.7381 -0.8642 -0.6691
 2737TIP3   OH232405   3.657   6.143   8.240  0.2767 -0.0701 -0.3822
 2737TIP3    H132406   3.632   6.050   8.246 -0.8253  0.1839 -0.8733
 2737TIP3    H232407   3.576   6.191   8.257  0.6071  0.7900 -1.1787
 2738TIP3   OH232408   3.349   7.603   7.657 -0.3625 -0.3792 -0.4824
 2738TIP3    H132409   3.306   7.560   7.583 -0.4053  0.3991 -0.9181
 2738TIP3    H232410   3.330   7.696   7.645  2.5203  0.1993 -1.4456
 2739TIP3   OH232411   2.821   6.943   8.654  0.8085  0.4208 -0.2770
 2739TIP3    H132412   2.842   7.032   8.681  1.0639 -0.4153  2.6943
 2739TIP3    H232413   2.805   6.949   8.560  1.0503  3.5214 -0.2182
 2740TIP3   OH232414   1.889   5.767   8.316 -0.5604  0.3303  0.2815
 2740TIP3    H132415   1.793   5.765   8.318 -0.6867  0.4567 -2.4053
 2740TIP3    H232416   1.912   5.747   8.226  1.8793  2.5023  0.2936
 2741TIP3   OH232417   1.854   3.398   8.120 -0.1144  0.0271  0.2694
 2741TIP3    H132418   1.834   3.305   8.130 -1.5240  0.4506  1.7870
 2741TIP3    H232419   1.882   3.426   8.207 -1.5825  1.4178  0.3335
 2742TIP3   OH232420   5.195   2.573   8.453 -0.1931 -0.1303  0.0597
 2742TIP3    H132421   5.109   2.614   8.460  0.0657  0.4416 -0.0187
 2742TIP3    H232422   5.256   2.639   8.488  0.3485 -0.0009 -1.0747
 2743TIP3   OH232423   4.491   0.846   8.599  0.5116 -0.1947 -1.0271
 2743TIP3    H132424   4.396   0.841   8.605  0.5632  0.2085  1.3085
 2743TIP3    H232425   4.518   0.759   8.570 -0.4741 -1.4515  1.4598
 2744TIP3   OH232426   0.934   5.318   8.313  0.5858 -0.2146  0.6460
 2744TIP3    H132427   0.859   5.325   8.253  0.5246  0.7124  0.8289
 2744TIP3    H232428   0.906   5.364   8.392  2.0918  1.9793 -0.0122
 2745TIP3   OH232429   7.181   6.978   6.730 -0.1919 -0.3695 -0.1076
 2745TIP3    H132430   7.139   6.938   6.654 -0.9237  3.2978 -1.8256
 2745TIP3    H232431   7.215   6.903   6.780 -1.7391 -3.0779 -2.7603
 2746TIP3   OH232432   6.251   4.989   8.002  0.0010 -0.4811 -0.1281
 2746TIP3    H132433   6.201   5.054   7.952  0.1638  1.1302  1.6870
 2746TIP3    H232434   6.188   4.918   8.018 -0.3739 -0.5076 -1.5771
 2747TIP3   OH232435   2.150   6.271   8.666  0.4479 -0.1552  0.6065
 2747TIP3    H132436   2.210   6.235   8.731  0.9885 -1.2825 -0.4608
 2747TIP3    H232437   2.192   6.351   8.636 -0.2292  0.8348  2.2341
 2748TIP3   OH232438   2.269   4.534   7.886  0.2286 -0.1181 -0.3329
 2748TIP3    H132439   2.271   4.533   7.982  0.5652 -0.4438 -0.3432
 2748TIP3    H232440   2.300   4.621   7.862  0.7290 -0.2429 -0.1569
 2749TIP3   OH232441   3.077   4.451   8.958  0.1832  0.6699 -0.0591
 2749TIP3    H132442   3.027   4.494   8.888  0.1629  0.2410 -0.3081
 2749TIP3    H232443   3.152   4.412   8.915  0.0697  0.2361  0.1248
 2750TIP3   OH232444   5.337   1.766   7.061 -0.0829 -0.6550  0.3438
 2750TIP3    H132445   5.430   1.785   7.073  0.2522 -1.4858 -0.7635
 2750TIP3    H232446   5.328   1.674   7.084 -0.2565 -1.0769 -1.2903
 2751TIP3   OH232447   0.750   6.740   6.811  0.0141  0.1484  0.1351
 2751TIP3    H132448   0.765   6.808   6.877 -1.2261  0.4109  0.1636
 2751TIP3    H232449   0.803   6.768   6.736 -0.8821  1.4562 -0.0501
 2752TIP3   OH232450   3.498   6.431   8.048  1.1107 -0.0489 -0.6361
 2752TIP3    H132451   3.435   6.503   8.057  1.1767  0.0034 -0.5900
 2752TIP3    H232452   3.481   6.375   8.124  0.3655 -0.6274 -1.2082
 2753TIP3   OH232453   1.861   2.959   7.392 -0.0044 -0.1926  0.1250
 2753TIP3    H132454   1.886   2.869   7.413  0.0507 -0.2227 -0.0658
 2753TIP3    H232455   1.906   2.977   7.309 -1.5039 -0.6296 -0.8217
 2754TIP3   OH232456   4.496   3.280   6.584 -0.3630 -0.2122  0.0401
 2754TIP3    H132457   4.426   3.342   6.565  0.3809  0.4763 -0.5677
 2754TIP3    H232458   4.474   3.201   6.534 -3.0397 -1.7553  3.3399
 2755TIP3   OH232459   5.702   0.962   7.451 -0.1228 -0.6737 -0.0248
 2755TIP3    H132460   5.745   0.909   7.383 -1.0531 -0.2792 -0.9441
 2755TIP3    H232461   5.674   0.898   7.517  2.0432 -0.9166  0.7303
 2756TIP3   OH232462   5.358   5.263   9.052  0.5236  0.4977  0.0581
 2756TIP3    H132463   5.302   5.336   9.079 -0.5583 -0.0775 -0.5374
 2756TIP3    H232464   5.297   5.192   9.034  1.3969  0.0560 -1.2954
 2757TIP3   OH232465   4.566   7.167   9.193 -0.2574 -0.4253 -0.4188
 2757TIP3    H132466   4.597   7.175   9.283 -0.1658 -2.4157 -0.2348
 2757TIP3    H232467   4.645   7.175   9.139  0.3396 -3.1050 -0.0718
 2758TIP3   OH232468   6.288   3.771   8.816  0.1155 -0.6732  0.7493
 2758TIP3    H132469   6.227   3.828   8.863 -0.1882  0.4980 -0.9707
 2758TIP3    H232470   6.292   3.691   8.868 -0.0144  0.6348  2.8600
 2759TIP3   OH232471   0.586   6.216   8.781 -0.0350 -0.0726  0.3070
 2759TIP3    H132472   0.505   6.175   8.813  0.2827 -0.9718 -0.0029
 2759TIP3    H232473   0.641   6.142   8.755  0.4297  0.5776 -0.5893
 2760TIP3   OH232474   0.587   1.416   8.890  0.5752  0.1810 -0.0395
 2760TIP3    H132475   0.636   1.416   8.972  2.1888 -1.3708 -0.9169
 2760TIP3    H232476   0.560   1.507   8.878  1.4158  0.6807  1.5718
 2761TIP3   OH232477   4.691   0.451   7.455 -0.0385  0.1022  0.0433
 2761TIP3    H132478   4.730   0.499   7.382  1.8475 -1.1867  0.1385
 2761TIP3    H232479   4.679   0.362   7.422  0.6082 -0.4334  1.1983
 2762TIP3   OH232480   7.598   3.237   7.406 -0.3604 -0.8696 -0.6469
 2762TIP3    H132481   7.645   3.320   7.419  2.0993 -2.2539 -0.0393
 2762TIP3    H232482   7.551   3.223   7.487 -0.4571 -0.2610 -0.5929
 2763TIP3   OH232483   0.933   2.729   7.893 -0.2914 -0.2475 -0.7704
 2763TIP3    H132484   1.000   2.744   7.827  0.4546  0.0687  0.0340
 2763TIP3    H232485   0.924   2.812   7.939  0.1928 -0.8109  0.3994
 2764TIP3   OH232486   6.974   4.905   9.087 -0.1936  0.4943  0.2114
 2764TIP3    H132487   7.039   4.893   9.156 -0.1588 -2.5140 -0.1994
 2764TIP3    H232488   7.011   4.973   9.031  3.1482 -1.6289 -0.4605
 2765TIP3   OH232489   0.467   0.394   8.100 -0.2942 -0.1385  0.9400
 2765TIP3    H132490   0.475   0.489   8.108 -1.0928 -0.0869  1.2148
 2765TIP3    H232491   0.556   0.364   8.082  0.1116  0.5779  1.6828
 2766TIP3   OH232492   7.151   1.432   7.993  0.1949  0.0483 -0.1895
 2766TIP3    H132493   7.165   1.485   7.915 -1.1504  1.2282  0.3293
 2766TIP3    H232494   7.208   1.472   8.059  0.7222 -0.4431 -0.3427
 2767TIP3   OH232495   6.822   2.856   7.974 -0.7323  0.1981  0.0061
 2767TIP3    H132496   6.892   2.876   8.037 -0.4641 -1.2219  0.1836
 2767TIP3    H232497   6.748   2.910   8.003 -0.7457 -0.7123  1.8165
 2768TIP3   OH232498   5.908   0.906   7.727 -0.5498  0.4086 -0.2874
 2768TIP3    H132499   5.875   0.919   7.816 -2.5013 -0.4563 -0.8474
 2768TIP3    H232500   5.924   0.995   7.695  0.1030  0.7322  0.8703
 2769TIP3   OH232501   2.715   4.667   6.974  0.4352 -0.1029 -0.1590
 2769TIP3    H132502   2.803   4.649   6.943  0.6740 -2.8590  1.7344
 2769TIP3    H232503   2.725   4.740   7.035  1.7672 -1.4678  1.3314
 2770TIP3   OH232504   6.881   4.867   8.789  0.4421  0.3215  0.4281
 2770TIP3    H132505   6.843   4.857   8.701  2.1060  1.0391 -0.4124
 2770TIP3    H232506   6.964   4.912   8.774  1.6175 -1.1571  2.1995
 2771TIP3   OH232507   6.939   4.010   9.429  1.0517  0.2940 -0.1007
 2771TIP3    H132508   6.926   4.102   9.405  0.4910  0.5045  0.9374
 2771TIP3    H232509   7.022   3.986   9.387  2.2691  1.8876  1.2411
 2772TIP3   OH232510   4.123   3.427   8.039 -0.0770  0.3953  0.2313
 2772TIP3    H132511   4.093   3.420   7.948 -0.5672 -0.7444  0.4574
 2772TIP3    H232512   4.055   3.477   8.083 -0.0229  0.6312  0.0467
 2773TIP3   OH232513   7.600   1.367   8.252 -0.4844  0.1251 -0.0160
 2773TIP3    H132514   7.675   1.407   8.206 -0.5056 -1.1383 -1.1942
 2773TIP3    H232515   7.624   1.275   8.260 -1.7398 -0.2117 -0.0430
 2774TIP3   OH232516   4.571   0.990   7.506 -0.3182 -0.0398  0.0652
 2774TIP3    H132517   4.592   1.011   7.415 -1.8177 -0.5658 -0.4312
 2774TIP3    H232518   4.656   0.991   7.552  0.2753  1.6925 -1.0175
 2775TIP3   OH232519   5.458   3.833   7.542 -1.0037 -0.4701  0.2249
 2775TIP3    H132520   5.475   3.745   7.575 -1.9240  0.6110  4.1320
 2775TIP3    H232521   5.508   3.891   7.600 -1.1874  1.6438 -1.6042
 2776TIP3   OH232522   0.811   4.523   7.885  0.2067  0.2603  0.6307
 2776TIP3    H132523   0.904   4.538   7.904 -0.1257  1.5529  1.4256
 2776TIP3    H232524   0.788   4.592   7.823 -0.6678  1.2708  2.0031
 2777TIP3   OH232525   6.142   0.270   6.745  0.2866  0.3783  0.1355
 2777TIP3    H132526   6.119   0.362   6.759  0.6409  0.3492  0.9563
 2777TIP3    H232527   6.155   0.235   6.833  0.9283 -0.2585 -0.2018
 2778TIP3   OH232528   0.624   5.722   8.625 -0.5193 -0.2465 -0.4877
 2778TIP3    H132529   0.613   5.774   8.546  0.5763 -0.0880 -0.5543
 2778TIP3    H232530   0.542   5.672   8.633 -1.9946  2.1244  0.0879
 2779TIP3   OH232531   4.510   2.631   7.028 -0.3326 -0.0611 -0.2799
 2779TIP3    H132532   4.436   2.674   6.986  0.6442  3.8690  1.6129
 2779TIP3    H232533   4.474   2.594   7.108 -0.2962  2.4585  0.9983
 2780TIP3   OH232534   5.291   0.206   9.192 -0.1778  0.2391  0.1015
 2780TIP3    H132535   5.382   0.232   9.199  0.6042 -2.1555 -0.0448
 2780TIP3    H232536   5.274   0.203   9.098 -0.7344  1.6009  0.1399
 2781TIP3   OH232537   0.549   1.563   7.163 -0.1245  0.1886 -0.1793
 2781TIP3    H132538   0.454   1.549   7.163  0.0032 -0.9506  1.1326
 2781TIP3    H232539   0.585   1.477   7.183  1.1275  0.8403  0.4953
 2782TIP3   OH232540   4.360   7.362   7.984  0.0464 -0.2733 -0.1115
 2782TIP3    H132541   4.411   7.434   7.949  3.6633 -2.7285 -0.3926
 2782TIP3    H232542   4.290   7.348   7.920 -0.6440  2.6802 -0.1416
 2783TIP3   OH232543   4.304   5.593   8.092 -0.1781  0.2967  0.5487
 2783TIP3    H132544   4.380   5.649   8.105 -0.9195  1.5711 -0.3382
 2783TIP3    H232545   4.322   5.515   8.144  1.1828  1.0769  1.3008
 2784TIP3   OH232546   1.462   5.749   8.908  0.7182 -0.0650 -0.1503
 2784TIP3    H132547   1.387   5.692   8.925  0.2806  0.6986  0.5456
 2784TIP3    H232548   1.429   5.813   8.844  1.0209 -0.2220 -0.4638
 2785TIP3   OH232549   2.009   5.222   9.020 -0.0606 -0.0092  0.0268
 2785TIP3    H132550   1.966   5.280   9.083 -1.1073  0.5399 -1.1541
 2785TIP3    H232551   2.101   5.223   9.046 -0.3017  1.0195  0.9186
 2786TIP3   OH232552   1.579   2.576   8.802  0.1397 -0.0652  0.1743
 2786TIP3    H132553   1.562   2.634   8.876 -0.4530  1.2794 -0.9640
 2786TIP3    H232554   1.652   2.616   8.756 -0.7015  0.1922 -1.0029
 2787TIP3   OH232555   1.636   7.573   8.444 -0.4520  0.1642  0.0014
 2787TIP3    H132556   1.635   7.484   8.407  1.5975  0.5226 -1.0006
 2787TIP3    H232557   1.554   7.611   8.414 -0.4985 -0.7705 -1.1494
 2788TIP3   OH232558   5.229   4.450   8.622 -0.2037  0.0929  0.1628
 2788TIP3    H132559   5.202   4.456   8.714 -2.8748  1.5568 -0.6286
 2788TIP3    H232560   5.250   4.539   8.597  4.4867 -0.7290  0.2798
 2789TIP3   OH232561   3.487   3.553   7.804  0.3484  0.2304  0.2091
 2789TIP3    H132562   3.495   3.641   7.768  0.5522 -0.0618 -0.4759
 2789TIP3    H232563   3.492   3.565   7.899  2.8529  0.7497  0.0796
 2790TIP3   OH232564   3.818   1.547   9.477 -0.5144 -0.0368 -0.4462
 2790TIP3    H132565   3.853   1.588   9.398  0.3822  0.0685 -0.0137
 2790TIP3    H232566   3.881   1.477   9.497 -1.3205 -0.7713 -0.4353
 2791TIP3   OH232567   3.855   1.559   6.936 -0.0252 -0.5085  0.2756
 2791TIP3    H132568   3.847   1.654   6.949  2.3725 -0.3933  1.6376
 2791TIP3    H232569   3.882   1.549   6.845 -2.0645 -0.0691 -0.4184
 2792TIP3   OH232570   2.526   5.604   8.554 -0.3178 -0.2769 -0.4696
 2792TIP3    H132571   2.596   5.560   8.601 -0.8737  0.9999  1.7340
 2792TIP3    H232572   2.531   5.695   8.584 -2.9297 -0.1586 -0.1262
 2793TIP3   OH232573   7.651   7.593   7.228  0.2855  0.2333 -0.4985
 2793TIP3    H132574   7.727   7.554   7.184  0.9799  1.2429 -0.2176
 2793TIP3    H232575   7.588   7.608   7.157  0.3005 -0.6881 -0.7231
 2794TIP3   OH232576   7.459   4.276   6.542 -0.3455  0.5470  0.4076
 2794TIP3    H132577   7.519   4.343   6.509  0.7413  0.0416  1.3158
 2794TIP3    H232578   7.381   4.326   6.567 -0.4876  1.1688 -1.1033
 2795TIP3   OH232579   5.657   4.442   8.318  0.3333 -0.4920  0.0616
 2795TIP3    H132580   5.736   4.442   8.371  0.5932  0.4283 -0.3152
 2795TIP3    H232581   5.595   4.497   8.365 -0.4138 -1.8875  0.7935
 2796TIP3   OH232582   6.572   6.328   7.540 -0.4132 -0.1824  0.0423
 2796TIP3    H132583   6.630   6.371   7.602 -0.9759  1.5331 -0.5636
 2796TIP3    H232584   6.564   6.238   7.572 -0.2761  0.5077  2.1457
 2797TIP3   OH232585   6.280   0.537   8.876 -0.0322 -0.4000 -0.0413
 2797TIP3    H132586   6.190   0.513   8.856  0.3009 -1.2351 -0.6328
 2797TIP3    H232587   6.333   0.477   8.823  0.8685  0.1670  0.1889
 2798TIP3   OH232588   2.946   0.899   8.472 -0.2820  0.9368 -0.6327
 2798TIP3    H132589   2.898   0.913   8.554 -2.7633 -1.7154 -1.4429
 2798TIP3    H232590   2.916   0.813   8.442  4.5090 -0.6351 -1.7262
 2799TIP3   OH232591   5.939   4.303   7.946 -0.0971 -0.2268  0.3480
 2799TIP3    H132592   5.864   4.341   7.901  0.4488  0.2181 -0.2044
 2799TIP3    H232593   5.948   4.356   8.026 -0.7785 -0.7195  0.7656
 2800TIP3   OH232594   3.994   0.627   8.493  0.1109 -0.2322  0.4578
 2800TIP3    H132595   3.939   0.701   8.467 -0.7308 -0.8933  0.3331
 2800TIP3    H232596   3.932   0.557   8.515  0.8919 -0.8545  0.7224
 2801TIP3   OH232597   4.089   4.557   8.595 -0.0615 -0.0143 -0.3294
 2801TIP3    H132598   4.182   4.554   8.616  0.0641  0.5989 -0.7903
 2801TIP3    H232599   4.083   4.530   8.504 -0.4488 -1.0463 -0.0213
 2802TIP3   OH232600   3.493   7.087   9.348  0.3736 -0.2393  0.7269
 2802TIP3    H132601   3.454   7.175   9.342  0.7364 -0.1294 -0.1861
 2802TIP3    H232602   3.568   7.099   9.407  1.8984  0.6433 -1.2885
 2803TIP3   OH232603   0.238   3.591   8.332 -0.0095 -0.2694  0.4410
 2803TIP3    H132604   0.187   3.555   8.405  0.2113  0.9590  1.2380
 2803TIP3    H232605   0.326   3.602   8.367 -0.0748  1.0348  0.2428
 2804TIP3   OH232606   0.919   3.847   8.923  0.0609  0.1741  0.1533
 2804TIP3    H132607   0.834   3.826   8.962 -0.8477  1.3318 -1.0879
 2804TIP3    H232608   0.975   3.774   8.947 -1.1777 -0.4420  1.3244
 2805TIP3   OH232609   0.586   7.618   8.704  0.2377  0.1077  0.0840
 2805TIP3    H132610   0.635   7.659   8.632  0.1957  1.4158  0.7651
 2805TIP3    H232611   0.648   7.617   8.777 -0.0488 -0.2878  0.3252
 2806TIP3   OH232612   1.254   2.003   8.785 -0.1915 -0.3181 -0.1069
 2806TIP3    H132613   1.192   2.008   8.858  0.2829  1.2645  0.2108
 2806TIP3    H232614   1.203   2.029   8.709  0.1490  1.3948  0.2194
 2807TIP3   OH232615   2.617   1.199   9.392  0.3800 -0.2941 -0.3908
 2807TIP3    H132616   2.703   1.171   9.360  0.7827  0.6640 -0.2113
 2807TIP3    H232617   2.567   1.119   9.402  0.5582 -0.7135 -2.4921
 2808TIP3   OH232618   0.054   3.591   9.403  0.3615 -0.2519 -0.4103
 2808TIP3    H132619   0.061   3.504   9.442  5.0956  0.2661  0.5062
 2808TIP3    H232620   0.084   3.580   9.313 -2.4560 -0.0131 -1.4769
 2809TIP3   OH232621   3.483   4.695   8.637  0.1900 -0.2356  0.0822
 2809TIP3    H132622   3.408   4.690   8.696  0.5606  2.3188  0.8955
 2809TIP3    H232623   3.447   4.727   8.554  0.2071 -0.1843  0.0950
 2810TIP3   OH232624   0.876   5.131   8.935 -0.0077  0.0576 -0.2017
 2810TIP3    H132625   0.948   5.191   8.951  1.1862 -0.4023 -3.1826
 2810TIP3    H232626   0.918   5.048   8.914 -1.4021 -0.3913 -1.3750
 2811TIP3   OH232627   2.385   5.317   8.884 -0.0315 -0.3214  0.8463
 2811TIP3    H132628   2.294   5.337   8.909  0.4566  2.0010  1.0280
 2811TIP3    H232629   2.377   5.268   8.802 -1.4438  0.1697  0.6587
 2812TIP3   OH232630   4.693   3.596   7.160 -0.1297 -0.2887 -0.4341
 2812TIP3    H132631   4.622   3.642   7.116 -0.0690  0.4275  0.2063
 2812TIP3    H232632   4.772   3.625   7.115 -0.0724  0.4021  0.1078
 2813TIP3   OH232633   1.708   3.400   6.609 -0.0271 -0.4567  0.2528
 2813TIP3    H132634   1.704   3.409   6.514  0.9807 -0.0649  0.2285
 2813TIP3    H232635   1.783   3.342   6.625 -1.1468 -1.8039  0.7607
 2814TIP3   OH232636   3.131   7.387   7.959 -0.5250 -0.2862 -0.4438
 2814TIP3    H132637   3.195   7.419   8.023 -0.0105  0.5988 -1.3588
 2814TIP3    H232638   3.047   7.421   7.990 -0.2228  0.5021 -0.4543
 2815TIP3   OH232639   4.097   3.514   8.946  0.1983 -0.4867  0.0858
 2815TIP3    H132640   4.021   3.462   8.920 -1.3170  1.7221 -0.1662
 2815TIP3    H232641   4.117   3.567   8.870 -0.1276  1.3316  1.2176
 2816TIP3   OH232642   6.226   6.129   7.008 -0.1257  0.5389 -0.9371
 2816TIP3    H132643   6.268   6.082   6.935  0.3630 -1.4514  0.5254
 2816TIP3    H232644   6.292   6.191   7.037  1.5117 -1.7382  0.5658
 2817TIP3   OH232645   4.032   2.220   7.704  0.1858  0.2977  0.3741
 2817TIP3    H132646   4.067   2.309   7.692 -0.1426  0.5457  1.2020
 2817TIP3    H232647   4.015   2.189   7.615  0.5094  0.9788  0.0647
 2818TIP3   OH232648   0.234   6.018   9.263 -0.0602  0.0514  0.0899
 2818TIP3    H132649   0.287   5.949   9.223 -1.2043 -0.5854 -0.3804
 2818TIP3    H232650   0.281   6.042   9.343  1.3621  0.1097 -0.7383
 2819TIP3   OH232651   6.587   0.445   7.466  0.3487  0.0624 -0.1425
 2819TIP3    H132652   6.554   0.456   7.555 -1.3678  1.2429 -0.8684
 2819TIP3    H232653   6.523   0.387   7.423 -0.8097  2.2120 -1.5109
 2820TIP3   OH232654   1.694   6.659   8.141  0.4097 -0.2498 -0.0183
 2820TIP3    H132655   1.720   6.748   8.164 -0.6421  0.0533  0.0576
 2820TIP3    H232656   1.656   6.667   8.053  0.0946 -0.5671  0.0837
 2821TIP3   OH232657   0.354   4.042   8.407 -0.0367  0.5765  0.1489
 2821TIP3    H132658   0.433   4.000   8.375 -0.3312  0.5102 -0.4975
 2821TIP3    H232659   0.386   4.115   8.461  0.4591  0.7383 -0.3557
 2822TIP3   OH232660   2.190   3.235   7.948 -0.0779  0.4688  0.1319
 2822TIP3    H132661   2.283   3.221   7.934 -0.0500  0.6661  0.1226
 2822TIP3    H232662   2.179   3.235   8.043 -0.1619 -0.1684  0.1298
 2823TIP3   OH232663   4.002   5.433   8.864  0.0735  0.0417 -0.0823
 2823TIP3    H132664   3.969   5.491   8.795 -0.7917  0.7276  0.8783
 2823TIP3    H232665   4.096   5.430   8.849  0.1146  1.4953 -0.3351
 2824TIP3   OH232666   7.514   4.944   8.889 -0.6471  0.0636  0.1605
 2824TIP3    H132667   7.509   5.013   8.823 -1.6734  1.8026  1.9327
 2824TIP3    H232668   7.602   4.953   8.926 -0.8424  0.5796  0.5135
 2825TIP3   OH232669   4.018   4.750   8.371 -0.0855 -0.6283 -0.5950
 2825TIP3    H132670   3.954   4.776   8.438 -1.3240 -2.6338 -0.8896
 2825TIP3    H232671   3.980   4.780   8.289  0.3659 -0.0651 -0.6041
 2826TIP3   OH232672   7.408   2.994   9.489  0.9360 -0.0487  0.0729
 2826TIP3    H132673   7.471   2.938   9.444  0.0076  0.5355 -2.0797
 2826TIP3    H232674   7.323   2.951   9.475  0.5027  0.6586  0.4402
 2827TIP3   OH232675   3.479   3.431   7.414  0.3679 -0.4574  0.4503
 2827TIP3    H132676   3.491   3.336   7.418 -1.8589 -0.7537  1.8924
 2827TIP3    H232677   3.412   3.443   7.347  1.1232  0.2017 -0.2127
 2828TIP3   OH232678   0.899   2.842   7.302 -0.2993 -0.0018 -0.9035
 2828TIP3    H132679   0.979   2.816   7.256  0.3311  0.3730 -0.0504
 2828TIP3    H232680   0.842   2.766   7.295  0.3739 -0.5090 -1.0061
 2829TIP3   OH232681   0.499   5.782   6.748  0.4697 -0.0860 -0.0751
 2829TIP3    H132682   0.569   5.828   6.702  0.4475 -2.1156 -2.3267
 2829TIP3    H232683   0.545   5.721   6.807  0.5692  0.1247  0.0635
 2830TIP3   OH232684   4.514   5.514   8.695 -0.5445  0.6985 -0.1736
 2830TIP3    H132685   4.454   5.536   8.625 -0.6984  2.8240  0.5577
 2830TIP3    H232686   4.586   5.576   8.686 -0.3801  0.7732  1.3021
 2831TIP3   OH232687   6.470   2.876   8.801  0.2675 -0.6592  0.4625
 2831TIP3    H132688   6.408   2.886   8.873  0.7029  0.4303  0.7043
 2831TIP3    H232689   6.554   2.901   8.838  1.0802 -3.0611  0.4193
 2832TIP3   OH232690   0.677   2.663   7.264  0.1923  0.4344  0.3372
 2832TIP3    H132691   0.600   2.672   7.208  1.2832 -0.0166 -1.2807
 2832TIP3    H232692   0.694   2.569   7.266 -0.7994  0.2258  2.8579
 2833TIP3   OH232693   0.146   4.595   7.393  0.7927 -0.1788  0.2983
 2833TIP3    H132694   0.104   4.679   7.373  0.2747 -0.1635  1.3627
 2833TIP3    H232695   0.212   4.584   7.325 -0.3399  0.2345 -0.8948
 2834TIP3   OH232696   4.476   4.655   7.164 -0.0463  0.0224 -0.3334
 2834TIP3    H132697   4.512   4.687   7.247  2.7048 -0.5504 -1.1778
 2834TIP3    H232698   4.538   4.687   7.098  0.0629 -2.7959 -1.7212
 2835TIP3   OH232699   5.366   4.572   8.872  0.0019 -0.1115 -0.0964
 2835TIP3    H132700   5.368   4.643   8.808  0.0662 -1.5523 -1.7421
 2835TIP3    H232701   5.350   4.617   8.956 -1.4812  1.7099 -1.2624
 2836TIP3   OH232702   5.902   1.424   9.308  0.3432 -0.4136 -0.1666
 2836TIP3    H132703   5.866   1.503   9.347  1.2993  0.0825 -0.2493
 2836TIP3    H232704   5.961   1.389   9.374 -0.2133 -1.1697 -0.0565
 2837TIP3   OH232705   4.567   6.936   8.093 -0.1191 -0.2417 -0.3935
 2837TIP3    H132706   4.625   6.878   8.043 -0.1422 -0.0678 -0.6231
 2837TIP3    H232707   4.613   6.949   8.176 -0.5896 -1.4081  0.0708
 2838TIP3   OH232708   7.533   5.295   9.255  0.2293  0.2392  0.1553
 2838TIP3    H132709   7.628   5.283   9.246  0.2844  0.4135  0.4859
 2838TIP3    H232710   7.495   5.217   9.216  0.4918  0.4366 -0.5184
 2839TIP3   OH232711   0.291   1.530   7.066 -0.5381  0.4169  0.2925
 2839TIP3    H132712   0.202   1.528   7.101 -1.3666  3.6356 -1.2416
 2839TIP3    H232713   0.307   1.622   7.047  3.3134  0.0070  0.8109
 2840TIP3   OH232714   2.987   1.047   7.715 -0.2459  0.2232 -0.6558
 2840TIP3    H132715   3.030   1.095   7.786 -0.5658 -1.3837  0.6580
 2840TIP3    H232716   3.031   1.079   7.636 -0.3649  2.5700  0.1394
 2841TIP3   OH232717   1.080   3.258   6.992  0.6442 -0.8683  0.3177
 2841TIP3    H132718   1.123   3.245   6.908  0.2153 -0.7661  0.0803
 2841TIP3    H232719   0.989   3.235   6.977 -0.1798  2.1847 -0.1260
 2842TIP3   OH232720   1.954   2.974   7.121 -0.2140  0.4561 -0.4683
 2842TIP3    H132721   1.962   3.042   7.054  0.6430 -0.8491 -1.7630
 2842TIP3    H232722   1.903   2.905   7.078  0.0718 -0.2727  0.3489
 2843TIP3   OH232723   6.491   1.151   8.949 -0.4926 -0.5817  0.9903
 2843TIP3    H132724   6.489   1.161   9.044 -3.5351  1.3543  0.8511
 2843TIP3    H232725   6.504   1.240   8.916  1.8697 -1.3610 -0.5132
 2844TIP3   OH232726   5.615   5.294   8.013 -0.0986 -0.2650  0.1109
 2844TIP3    H132727   5.677   5.236   8.058 -0.5084 -1.2853 -0.6124
 2844TIP3    H232728   5.660   5.378   8.009  0.6976 -0.6412  0.7798
 2845TIP3   OH232729   7.204   1.332   7.574  0.4976 -0.2764  0.1812
 2845TIP3    H132730   7.223   1.270   7.644 -0.8921 -0.3286  0.5335
 2845TIP3    H232731   7.185   1.414   7.618  0.9026  0.0402 -0.2169
 2846TIP3   OH232732   7.481   7.428   8.020 -0.0235 -0.1063  0.3613
 2846TIP3    H132733   7.440   7.350   7.983  0.0324 -0.3120  0.7252
 2846TIP3    H232734   7.413   7.495   8.017 -0.4965 -0.5350  1.2722
 2847TIP3   OH232735   2.686   6.421   9.027  0.3830 -0.4521 -0.3013
 2847TIP3    H132736   2.667   6.443   9.118  0.1980  0.0910 -0.4695
 2847TIP3    H232737   2.625   6.475   8.976 -0.6093 -1.8682 -0.6989
 2848TIP3   OH232738   1.835   6.535   8.600 -0.7557 -0.9442 -0.4168
 2848TIP3    H132739   1.869   6.566   8.516 -1.7501  0.7791 -0.2304
 2848TIP3    H232740   1.835   6.612   8.656 -1.7440 -1.6610  0.6269
 2849TIP3   OH232741   6.988   3.020   8.490  0.4390  0.4880  0.1585
 2849TIP3    H132742   7.060   3.021   8.428  0.4340  0.7859  0.1557
 2849TIP3    H232743   6.999   2.939   8.539 -0.5568 -0.6363 -1.3918
 2850TIP3   OH232744   6.904   7.178   8.456  0.8814 -0.6226  0.2663
 2850TIP3    H132745   6.887   7.226   8.374  2.9126  1.8901  1.1952
 2850TIP3    H232746   6.971   7.114   8.432  0.8938 -0.4489 -0.1845
 2851TIP3   OH232747   7.456   2.493   7.304  0.2934  0.0518  0.1542
 2851TIP3    H132748   7.422   2.420   7.252  2.1346 -1.1673  0.5647
 2851TIP3    H232749   7.472   2.455   7.390  1.5129  0.8758  0.3088
 2852TIP3   OH232750   6.878   7.075   7.517 -0.3223 -0.1555  0.3075
 2852TIP3    H132751   6.943   7.100   7.452  1.5849 -1.3470  1.6479
 2852TIP3    H232752   6.864   7.155   7.568  1.4927 -0.2892  1.1040
 2853TIP3   OH232753   1.341   2.608   7.196 -0.1292 -0.1099  0.3193
 2853TIP3    H132754   1.359   2.570   7.283 -0.1230 -0.9423 -0.0338
 2853TIP3    H232755   1.298   2.537   7.148 -0.3936  0.4414 -0.2666
 2854TIP3   OH232756   5.838   4.193   6.994 -0.3728  0.3021  0.5060
 2854TIP3    H132757   5.917   4.146   7.022 -1.4050 -0.3048  2.6662
 2854TIP3    H232758   5.868   4.254   6.927  1.7781 -0.4521  0.7140
 2855TIP3   OH232759   6.264   5.367   8.562  0.2953  0.1361 -0.0998
 2855TIP3    H132760   6.282   5.349   8.654  1.5062 -0.6222 -0.4632
 2855TIP3    H232761   6.335   5.324   8.515  0.1371  1.1754 -1.3495
 2856TIP3   OH232762   7.249   4.701   8.696  0.2108 -1.2350 -0.3492
 2856TIP3    H132763   7.259   4.733   8.606  1.0079 -2.1705 -0.6042
 2856TIP3    H232764   7.207   4.615   8.687  0.7508 -1.5553  0.1356
 2857TIP3   OH232765   0.369   1.853   7.642  0.1611  0.3731  0.3121
 2857TIP3    H132766   0.405   1.854   7.731  0.1897 -1.2717  0.3431
 2857TIP3    H232767   0.392   1.767   7.607 -3.5692 -0.8236  0.3020
 2858TIP3   OH232768   0.399   2.731   8.481 -0.1931 -0.2266  0.3432
 2858TIP3    H132769   0.375   2.679   8.405 -4.5911 -2.3713  2.8418
 2858TIP3    H232770   0.481   2.692   8.512  1.1590  0.0624 -2.5483
 2859TIP3   OH232771   4.525   3.521   7.361  0.1229 -0.4666 -0.4340
 2859TIP3    H132772   4.614   3.542   7.334  0.7701 -0.2518  1.7050
 2859TIP3    H232773   4.469   3.570   7.299  1.4750  0.1519 -1.2170
 2860TIP3   OH232774   0.231   3.942   8.178  0.2835 -0.7217  0.1008
 2860TIP3    H132775   0.303   3.881   8.164  0.0711 -0.7659 -0.8364
 2860TIP3    H232776   0.255   3.989   8.258  1.6242 -0.3304 -0.5111
 2861TIP3   OH232777   6.453   4.097   9.165 -0.1013  0.2497 -0.0519
 2861TIP3    H132778   6.470   4.071   9.256  0.5970  0.6290 -0.0638
 2861TIP3    H232779   6.358   4.095   9.157 -0.1845  0.4708  0.7734
 2862TIP3   OH232780   5.452   2.472   6.739 -0.1028  0.3873 -0.0889
 2862TIP3    H132781   5.378   2.414   6.723 -0.6820  1.0662  0.0830
 2862TIP3    H232782   5.522   2.414   6.769 -0.8777 -0.1425  0.7345
 2863TIP3   OH232783   0.021   2.419   7.165 -0.3603  0.4363 -0.1240
 2863TIP3    H132784   0.006   2.505   7.203 -0.1461  0.9438 -1.1584
 2863TIP3    H232785  -0.002   2.358   7.235 -1.1378  1.3126  0.4156
 2864TIP3   OH232786   0.480   0.528   8.722 -0.2682  0.2253  0.3172
 2864TIP3    H132787   0.533   0.465   8.672 -0.4949 -1.2899  1.8876
 2864TIP3    H232788   0.481   0.494   8.811 -0.2502  2.6113  1.2870
 2865TIP3   OH232789   0.866   5.393   7.042  0.1471 -0.0673 -0.2703
 2865TIP3    H132790   0.855   5.482   7.076 -2.3505 -0.1083 -0.8321
 2865TIP3    H232791   0.867   5.404   6.947  1.6000 -0.5045 -0.3297
 2866TIP3   OH232792   0.578   6.399   8.581 -0.2427 -0.6044 -0.3447
 2866TIP3    H132793   0.495   6.373   8.540 -0.6406  0.6194 -0.3415
 2866TIP3    H232794   0.578   6.352   8.664 -2.0376  1.0809  0.7001
 2867TIP3   OH232795   4.056   2.604   7.832  0.1558  0.1947  0.0331
 2867TIP3    H132796   3.970   2.641   7.851  0.4886  0.1705  1.7354
 2867TIP3    H232797   4.057   2.593   7.737 -0.9965  1.9837 -0.2407
 2868TIP3   OH232798   4.459   0.474   7.737  0.0406 -0.3459 -0.4422
 2868TIP3    H132799   4.546   0.515   7.734 -0.0575 -0.1367 -0.4677
 2868TIP3    H232800   4.463   0.415   7.811 -0.1475  0.4760  0.2412
 2869TIP3   OH232801   2.545   1.320   7.672  0.3039  0.5099 -0.2061
 2869TIP3    H132802   2.612   1.271   7.625  0.0109 -0.3867  0.2911
 2869TIP3    H232803   2.590   1.355   7.750  0.1665 -0.2297  0.2132
 2870TIP3   OH232804   0.144   2.369   6.935  0.4021  0.2960 -0.3808
 2870TIP3    H132805   0.093   2.385   7.014  0.2645 -0.9344 -0.2016
 2870TIP3    H232806   0.164   2.456   6.901  0.1640  0.8312  0.8130
 2871TIP3   OH232807   3.852   6.333   7.698 -0.4645 -0.0721  0.4708
 2871TIP3    H132808   3.778   6.298   7.748 -2.0826  1.5013 -0.6876
 2871TIP3    H232809   3.857   6.276   7.621  0.4798 -1.0377  1.2230
 2872TIP3   OH232810   2.309   0.821   7.950  0.4208 -0.4246 -0.3416
 2872TIP3    H132811   2.336   0.762   8.021 -2.4722 -1.6321 -0.1127
 2872TIP3    H232812   2.241   0.773   7.903 -0.6424  1.9648 -1.4278
 2873TIP3   OH232813   0.390   2.283   8.237  0.8384 -0.1780 -0.0257
 2873TIP3    H132814   0.418   2.200   8.274  0.7720 -0.0419  0.3305
 2873TIP3    H232815   0.368   2.262   8.146 -0.1236 -0.7636  0.3190
 2874TIP3   OH232816   0.120   1.686   7.846  0.2381 -0.0589  0.3133
 2874TIP3    H132817   0.181   1.669   7.917  0.9646 -0.7584 -0.4525
 2874TIP3    H232818   0.035   1.657   7.879  0.6529 -0.8462  0.7137
 2875TIP3   OH232819   2.322   7.074   6.839  0.1249  0.1087  1.0195
 2875TIP3    H132820   2.245   7.131   6.838 -0.1360 -0.1852  2.1585
 2875TIP3    H232821   2.384   7.116   6.780 -2.0519 -1.3512 -2.6072
 2876TIP3   OH232822   2.531   4.634   8.100  0.4941  0.4080 -0.0080
 2876TIP3    H132823   2.477   4.679   8.165 -1.4058  0.0170 -1.2061
 2876TIP3    H232824   2.549   4.548   8.138 -0.6894  0.1407 -0.0100
 2877TIP3   OH232825   4.979   4.369   9.644 -0.0165 -0.0371  0.2282
 2877TIP3    H132826   5.000   4.306   9.575 -1.6647 -0.7272  0.3080
 2877TIP3    H232827   5.055   4.428   9.647  1.7051 -2.1136  0.2901
 2878TIP3   OH232828   3.373   0.916   8.052 -0.1326  0.3048 -0.5458
 2878TIP3    H132829   3.406   0.840   8.004 -0.4029 -1.0698  1.3295
 2878TIP3    H232830   3.435   0.928   8.124 -1.6769 -0.0716  0.9276
 2879TIP3   OH232831   1.004   6.823   9.055 -0.1719  0.0119  0.1380
 2879TIP3    H132832   0.981   6.795   9.144 -0.6924  0.9187  0.3053
 2879TIP3    H232833   1.097   6.803   9.046 -0.4121 -1.3350  0.3969
 2880TIP3   OH232834   5.201   6.965   8.619 -0.0245 -0.7347  0.4848
 2880TIP3    H132835   5.246   6.886   8.590  2.1345 -0.1277  1.9591
 2880TIP3    H232836   5.259   7.037   8.592 -1.6291  0.3417 -0.2588
 2881TIP3   OH232837   3.054   6.746   8.667  0.2442  0.2010 -0.3976
 2881TIP3    H132838   2.973   6.796   8.660 -0.1461 -0.3750 -0.0977
 2881TIP3    H232839   3.056   6.715   8.758  1.0966  0.6980 -0.2357
 2882TIP3   OH232840   4.854   7.549   7.050 -0.2618  0.4237  0.1750
 2882TIP3    H132841   4.798   7.607   7.102  1.0380  1.0110  0.9710
 2882TIP3    H232842   4.864   7.471   7.104 -0.6011  0.1582 -0.1368
 2883TIP3   OH232843   6.067   5.031   7.497 -0.0287 -0.6694  0.2345
 2883TIP3    H132844   6.055   4.993   7.410 -2.6237  1.8717 -0.7095
 2883TIP3    H232845   6.017   4.974   7.555 -0.4825 -0.9686 -0.4366
 2884TIP3   OH232846   6.104   0.692   9.275  0.1385  0.2021 -0.6752
 2884TIP3    H132847   6.055   0.748   9.216 -0.4996 -0.2211 -0.5529
 2884TIP3    H232848   6.177   0.746   9.304 -1.5876  1.7045  1.0760
 2885TIP3   OH232849   3.747   6.524   8.172 -0.1282  0.4461 -0.1557
 2885TIP3    H132850   3.789   6.455   8.121  1.6686 -0.0749  1.8404
 2885TIP3    H232851   3.654   6.513   8.157 -0.0928 -3.6052  1.3344
 2886TIP3   OH232852   5.305   4.802   8.749 -0.1485 -0.1991 -0.2740
 2886TIP3    H132853   5.369   4.860   8.707  1.1522 -0.4032  1.3019
 2886TIP3    H232854   5.280   4.848   8.829 -1.5433 -0.4156 -0.5515
 2887TIP3   OH232855   5.935   7.493   8.681  0.1612 -0.3103 -0.2430
 2887TIP3    H132856   5.996   7.478   8.753 -0.2102 -1.1132 -0.0870
 2887TIP3    H232857   5.856   7.445   8.706  0.1439 -0.8784 -1.3390
 2888TIP3   OH232858   4.537   3.035   8.753 -0.6638 -0.1987 -0.0908
 2888TIP3    H132859   4.580   3.056   8.670 -0.3596 -0.0239  0.1094
 2888TIP3    H232860   4.594   2.971   8.794  0.5373  1.5465  1.1256
 2889TIP3   OH232861   0.152   3.017   6.385  0.8237 -0.0714 -0.1639
 2889TIP3    H132862   0.100   2.968   6.321  0.1521  1.7403 -1.0768
 2889TIP3    H232863   0.090   3.076   6.426  1.8368  0.9236 -0.0245
 2890TIP3   OH232864   3.559   0.110   8.728 -0.1132 -0.1939  0.2349
 2890TIP3    H132865   3.640   0.117   8.779  0.2880 -0.3063 -0.3655
 2890TIP3    H232866   3.580   0.155   8.645 -0.3699 -0.9954 -0.2711
 2891TIP3   OH232867   6.351   2.416   8.381  0.5251 -0.8522 -0.1866
 2891TIP3    H132868   6.265   2.389   8.415  0.6004  0.6064  1.2733
 2891TIP3    H232869   6.338   2.507   8.352  1.1043 -1.2568 -1.8353
 2892TIP3   OH232870   4.516   7.389   9.422  0.0086  0.2763  0.3544
 2892TIP3    H132871   4.531   7.443   9.500 -1.7337  0.5422  0.5592
 2892TIP3    H232872   4.589   7.328   9.421 -0.7230 -0.8283  3.1588
 2893TIP3   OH232873   4.414   3.769   8.892 -0.0335 -0.3045  0.5381
 2893TIP3    H132874   4.323   3.795   8.903  0.2057  0.6926  0.3195
 2893TIP3    H232875   4.462   3.825   8.955  0.4010 -0.9847  0.8220
 2894TIP3   OH232876   0.623   3.648   8.839 -0.9169 -0.5336  0.6517
 2894TIP3    H132877   0.675   3.693   8.772  0.1178  0.0616  1.8160
 2894TIP3    H232878   0.686   3.599   8.890 -1.7348 -1.2206  1.0344
 2895TIP3   OH232879   1.355   6.238   7.696  0.0441 -0.0276 -0.1678
 2895TIP3    H132880   1.438   6.222   7.741  0.1976  2.4816  0.5628
 2895TIP3    H232881   1.288   6.211   7.759  0.2984  0.9955  0.5641
 2896TIP3   OH232882   3.360   2.627   8.926  0.3289 -0.0760 -0.1742
 2896TIP3    H132883   3.419   2.673   8.985  1.1750 -0.1509 -0.9293
 2896TIP3    H232884   3.277   2.676   8.931  0.4129 -0.0306  0.9703
 2897TIP3   OH232885   0.748   0.539   9.491 -0.1263  0.1647 -0.2991
 2897TIP3    H132886   0.675   0.488   9.526  1.3637  0.0533  3.0469
 2897TIP3    H232887   0.718   0.630   9.498 -0.4829  0.0491 -0.2875
 2898TIP3   OH232888   0.035   1.609   8.466 -0.6864  0.5359  0.0017
 2898TIP3    H132889   0.050   1.689   8.517 -0.0327  1.2042 -1.1724
 2898TIP3    H232890   0.064   1.538   8.523 -1.4851  1.0997  1.1546
 2899TIP3   OH232891   0.085   0.770   8.764  0.8963 -0.5809  0.3602
 2899TIP3    H132892   0.175   0.799   8.780  0.7897  0.1872 -0.3730
 2899TIP3    H232893   0.094   0.697   8.703  1.0163 -0.4228  0.1885
 2900TIP3   OH232894   4.054   3.431   9.553  0.2691  0.2268 -0.5566
 2900TIP3    H132895   4.008   3.369   9.608 -0.8539  0.3139 -1.3650
 2900TIP3    H232896   4.131   3.457   9.604  0.8399 -1.8974 -0.2538
 2901TIP3   OH232897   2.001   4.435   7.991  0.0432  0.2636 -0.5234
 2901TIP3    H132898   1.979   4.464   7.903  1.1066  0.6736 -0.6663
 2901TIP3    H232899   2.095   4.452   8.000  0.4378 -1.7947 -0.0997
 2902TIP3   OH232900   1.179   0.607   8.737 -0.3110  0.6504  0.1063
 2902TIP3    H132901   1.154   0.613   8.829  0.8577  1.5139  0.3925
 2902TIP3    H232902   1.107   0.560   8.695 -0.5090 -0.4188  1.5943
 2903TIP3   OH232903   4.000   5.408   9.592 -0.0837  0.6195 -0.0360
 2903TIP3    H132904   3.922   5.382   9.544  0.9789  0.5435 -1.8371
 2903TIP3    H232905   4.051   5.327   9.602 -0.0187  0.7448  0.7144
 2904TIP3   OH232906   3.155   6.764   7.805 -0.1053  0.6419 -0.2086
 2904TIP3    H132907   3.139   6.834   7.868 -3.3318 -0.0278 -0.1179
 2904TIP3    H232908   3.111   6.794   7.725  1.1457  0.0338 -1.1643
 2905TIP3   OH232909   3.261   5.553   6.778  0.1938  0.3584  0.0876
 2905TIP3    H132910   3.329   5.592   6.832 -1.2883  1.0343  1.5298
 2905TIP3    H232911   3.202   5.509   6.839 -0.1611 -1.0755 -1.1998
 2906TIP3   OH232912   4.643   6.126   7.764  0.3369 -0.0758  0.4651
 2906TIP3    H132913   4.559   6.128   7.810  0.5285  3.2013  0.9316
 2906TIP3    H232914   4.708   6.147   7.830  0.9173  2.0817 -0.6857
 2907TIP3   OH232915   4.765   7.385   7.669  0.0103  0.1822 -0.1830
 2907TIP3    H132916   4.853   7.416   7.689 -0.5427  1.1494  0.8841
 2907TIP3    H232917   4.740   7.333   7.746  0.7612 -2.6922 -1.7612
 2908TIP3   OH232918   6.008   6.918   7.315 -0.3955  0.3037 -0.8232
 2908TIP3    H132919   5.974   6.830   7.298  1.3178 -1.0883  2.1721
 2908TIP3    H232920   5.935   6.964   7.357 -0.8346 -0.2031 -1.0213
 2909TIP3   OH232921   0.494   5.623   7.663 -0.2467 -0.4107 -0.4391
 2909TIP3    H132922   0.573   5.656   7.705 -0.4586 -0.0938 -0.2810
 2909TIP3    H232923   0.472   5.543   7.711  0.3728 -0.8895 -0.9414
 2910TIP3   OH232924   3.803   4.814   7.227 -0.1266  0.2251  0.2481
 2910TIP3    H132925   3.845   4.733   7.196 -2.8290 -0.6920 -1.3978
 2910TIP3    H232926   3.821   4.878   7.158  0.9178  0.6783  0.9246
 2911TIP3   OH232927   0.728   3.415   7.484 -0.3915  0.0205  0.3868
 2911TIP3    H132928   0.752   3.506   7.468 -0.8650 -0.1775 -1.9527
 2911TIP3    H232929   0.798   3.380   7.539  0.3927  1.4950  0.3753
 2912TIP3   OH232930   0.789   2.817   9.290  0.0067  0.4350  0.4710
 2912TIP3    H132931   0.825   2.839   9.204 -0.2179 -0.6109  0.1006
 2912TIP3    H232932   0.809   2.894   9.344  0.7542  0.8225 -0.3273
 2913TIP3   OH232933   4.788   6.981   9.234 -0.3409  0.0347 -0.0624
 2913TIP3    H132934   4.810   7.038   9.160 -0.7574 -0.6158 -0.7091
 2913TIP3    H232935   4.847   6.906   9.226 -0.9743 -0.4592 -0.2656
 2914TIP3   OH232936   1.886   7.344   8.013  0.7797  0.2130  0.0165
 2914TIP3    H132937   1.900   7.279   7.944  0.1478  0.8659 -0.7473
 2914TIP3    H232938   1.860   7.423   7.966  3.8829  1.8054  0.7278
 2915TIP3   OH232939   4.931   3.423   7.718  0.2400 -0.4848 -0.7275
 2915TIP3    H132940   4.852   3.458   7.676  0.4767  1.3587  0.2496
 2915TIP3    H232941   5.002   3.475   7.680  0.8313 -1.1561 -0.5531
 2916TIP3   OH232942   0.491   7.537   7.356  0.0076 -0.0924 -0.0042
 2916TIP3    H132943   0.497   7.472   7.287 -0.7450 -1.8588  1.5100
 2916TIP3    H232944   0.398   7.559   7.361  0.0476 -0.0130  0.4777
 2917TIP3   OH232945   7.463   1.785   7.692  0.2908  0.1699  0.0694
 2917TIP3    H132946   7.508   1.745   7.766  0.2011 -1.8165 -0.8983
 2917TIP3    H232947   7.370   1.766   7.707  0.0709  1.4321  0.4045
 2918TIP3   OH232948   4.471   2.253   7.416  0.2938  0.3191 -0.1582
 2918TIP3    H132949   4.430   2.244   7.502  1.2143 -1.5710  0.1576
 2918TIP3    H232950   4.491   2.163   7.390 -0.0346  0.8351 -2.4101
 2919TIP3   OH232951   3.882   2.199   8.205 -0.0943 -0.5454 -0.6613
 2919TIP3    H132952   3.818   2.270   8.204 -0.0400 -0.4994 -1.6738
 2919TIP3    H232953   3.911   2.194   8.296  1.2065  1.8970 -0.8889
 2920TIP3   OH232954   0.046   6.926   7.154 -0.0378  0.5926  0.4702
 2920TIP3    H132955   0.054   6.866   7.081 -2.1138  1.1732 -0.3113
 2920TIP3    H232956   0.061   6.873   7.232 -0.2033 -0.5663 -0.2756
 2921TIP3   OH232957   5.869   5.021   7.269  0.4499 -0.3178 -0.2285
 2921TIP3    H132958   5.797   4.997   7.210  1.6827 -0.0980 -1.8675
 2921TIP3    H232959   5.851   5.112   7.291 -0.4637 -0.6410  0.4274
 2922TIP3   OH232960   6.529   4.563   7.812  0.0603  0.3665 -0.2161
 2922TIP3    H132961   6.531   4.501   7.740 -1.3273  0.4535 -0.3553
 2922TIP3    H232962   6.621   4.589   7.824  0.6280 -1.4458 -0.3603
 2923TIP3   OH232963   4.214   5.060   7.706  0.0638  0.3910  0.0056
 2923TIP3    H132964   4.308   5.060   7.688  0.2717 -0.6439  0.9950
 2923TIP3    H232965   4.183   5.144   7.673  1.2037  0.4417 -0.9879
 2924TIP3   OH232966   5.177   1.032   7.711  0.2120  0.9032 -0.3189
 2924TIP3    H132967   5.104   1.073   7.758  0.2033  0.7752 -0.2189
 2924TIP3    H232968   5.191   1.088   7.635  0.7599  1.5832  0.2570
 2925TIP3   OH232969   0.538   6.695   7.831  0.0035 -0.4470 -0.1200
 2925TIP3    H132970   0.499   6.725   7.913  1.4235  1.8708 -0.1901
 2925TIP3    H232971   0.512   6.604   7.824 -0.8431 -0.4980  2.4953
 2926TIP3   OH232972   5.310   0.418   7.653  0.3918  0.2172  0.4257
 2926TIP3    H132973   5.222   0.381   7.655 -0.3773  1.9783  1.5649
 2926TIP3    H232974   5.311   0.472   7.574  0.5358  0.0372  0.3026
 2927TIP3   OH232975   5.266   6.829   7.393 -0.2084  0.0895 -0.1885
 2927TIP3    H132976   5.257   6.850   7.486 -0.4688 -0.0552 -0.1795
 2927TIP3    H232977   5.211   6.893   7.349  0.3129  0.4781 -0.2822
 2928TIP3   OH232978   1.969   0.496   7.350  0.4383  0.1093  0.0452
 2928TIP3    H132979   1.916   0.538   7.282  1.1378 -0.9864 -1.2266
 2928TIP3    H232980   1.933   0.408   7.358 -0.5770  0.6661  2.1944
 2929TIP3   OH232981   1.912   6.498   6.916 -0.3022  0.0331 -0.0189
 2929TIP3    H132982   1.994   6.469   6.876 -0.2458 -1.6910  1.2585
 2929TIP3    H232983   1.844   6.463   6.858 -0.1687 -0.3451  0.0483
 2930TIP3   OH232984   1.730   4.571   9.269 -0.1270 -0.0995 -0.0885
 2930TIP3    H132985   1.662   4.637   9.282 -1.3838 -1.4168  0.3597
 2930TIP3    H232986   1.806   4.620   9.240 -1.4884  1.3496 -1.3861
 2931TIP3   OH232987   1.877   5.206   7.718  0.1308  0.4742  0.1657
 2931TIP3    H132988   1.941   5.187   7.786 -0.6528  1.0931  1.0986
 2931TIP3    H232989   1.929   5.220   7.639  1.1302  0.9288  0.8948
 2932TIP3   OH232990   5.729   3.077   6.704  0.1294 -0.5793  0.2311
 2932TIP3    H132991   5.691   3.137   6.769 -1.1963 -0.1515 -0.8856
 2932TIP3    H232992   5.654   3.033   6.665  0.9635 -1.5226 -0.3581
 2933TIP3   OH232993   2.247   6.998   9.130  0.7880 -0.2820 -0.6974
 2933TIP3    H132994   2.258   7.084   9.170 -2.5025  0.0866 -0.3308
 2933TIP3    H232995   2.324   6.987   9.074  2.0984  2.1607  0.4966
 2934TIP3   OH232996   6.135   2.451   7.627  0.1999  0.0622 -0.6460
 2934TIP3    H132997   6.184   2.461   7.708 -0.2491  1.0854 -0.4705
 2934TIP3    H232998   6.186   2.499   7.562 -0.4923  1.0999 -0.4704
 2935TIP3   OH232999   6.259   3.544   9.375 -0.1611  0.6825  0.0417
 2935TIP3    H133000   6.337   3.596   9.360  0.8366 -0.6823  0.2772
 2935TIP3    H233001   6.199   3.570   9.305  0.2872  2.1070  0.1539
 2936TIP3   OH233002   5.566   6.867   7.551 -0.2146  0.2366 -0.4005
 2936TIP3    H133003   5.577   6.776   7.577 -0.5141  0.2740 -0.1365
 2936TIP3    H233004   5.640   6.914   7.590 -0.8565  0.3588  0.7080
 2937TIP3   OH233005   2.970   7.065   9.505 -0.0889 -0.4709  0.4807
 2937TIP3    H133006   2.927   7.133   9.453 -1.0013 -0.0612  1.7410
 2937TIP3    H233007   2.903   6.997   9.516  0.4491 -1.0602  0.2175
 2938TIP3   OH233008   2.933   1.977   9.353  0.2613 -0.2566 -0.3770
 2938TIP3    H133009   2.852   1.980   9.301 -1.2408 -1.4586  1.7415
 2938TIP3    H233010   2.998   1.939   9.294 -0.8300  0.2666 -1.9842
 2939TIP3   OH233011   0.301   6.430   8.718 -0.1397 -0.0961 -0.6400
 2939TIP3    H133012   0.284   6.474   8.635  0.9426 -1.5119 -1.6689
 2939TIP3    H233013   0.250   6.348   8.712 -0.2699 -0.0849  0.2167
 2940TIP3   OH233014   2.030   4.954   8.614 -0.3520  0.8155 -0.0917
 2940TIP3    H133015   1.939   4.970   8.639 -1.2983 -3.6666  0.1355
 2940TIP3    H233016   2.026   4.932   8.521  0.6454  1.0792 -0.2116
 2941TIP3   OH233017   2.856   2.520   7.073 -0.2901  0.6542  0.5204
 2941TIP3    H133018   2.850   2.564   7.158  1.1478 -1.3783  1.7694
 2941TIP3    H233019   2.949   2.520   7.053 -0.5570  0.5879 -0.8181
 2942TIP3   OH233020   4.258   3.041   8.516 -0.1907 -0.3928  0.8646
 2942TIP3    H133021   4.284   3.128   8.545  3.1968 -1.2349  0.8012
 2942TIP3    H233022   4.170   3.028   8.554 -0.7846  2.9343  0.9212
 2943TIP3   OH233023   2.891   6.483   8.252  0.4942  1.0464 -0.0120
 2943TIP3    H133024   2.805   6.469   8.213  1.1400 -1.4719 -0.6950
 2943TIP3    H233025   2.929   6.395   8.260  2.4702  1.9566  1.5204
 2944TIP3   OH233026   4.503   2.316   8.961  0.8082  0.1957 -0.0395
 2944TIP3    H133027   4.422   2.335   9.008  0.0679 -0.0837 -1.1545
 2944TIP3    H233028   4.509   2.385   8.895  0.6169 -0.6838 -1.0088
 2945TIP3   OH233029   6.036   6.861   6.892  0.1339  0.3072 -0.0230
 2945TIP3    H133030   5.983   6.929   6.935 -0.1582 -0.7867  1.4241
 2945TIP3    H233031   5.997   6.778   6.920 -0.2558 -0.4996 -2.6974
 2946TIP3   OH233032   4.563   5.728   9.202  0.1040 -0.9063  0.7881
 2946TIP3    H133033   4.482   5.779   9.212  0.9344  0.9890 -1.3327
 2946TIP3    H233034   4.560   5.696   9.112  1.4747 -1.2236  0.8340
 2947TIP3   OH233035   2.535   0.323   7.208 -0.3297  0.0875 -0.2483
 2947TIP3    H133036   2.463   0.302   7.269 -0.4548 -0.9118 -0.7278
 2947TIP3    H233037   2.566   0.409   7.237 -1.0172  0.0545  0.6341
 2948TIP3   OH233038   5.044   5.282   7.141  0.4224 -0.4483  0.4247
 2948TIP3    H133039   4.973   5.268   7.079  1.2026  0.0953 -0.6353
 2948TIP3    H233040   5.094   5.355   7.104  2.1052 -1.4609  0.5597
 2949TIP3   OH233041   6.185   3.188   8.236  0.3560 -0.3462 -0.2853
 2949TIP3    H133042   6.263   3.223   8.280  0.5017 -0.8964 -0.0888
 2949TIP3    H233043   6.111   3.227   8.282  0.5124  0.2933 -0.5649
 2950TIP3   OH233044   3.179   1.685   9.019  0.6816  0.5961  0.2298
 2950TIP3    H133045   3.090   1.697   9.053  0.0380 -1.3942 -0.5886
 2950TIP3    H233046   3.203   1.596   9.046  2.2182  0.9099 -0.0235
 2951TIP3   OH233047   5.918   6.499   7.814 -0.9689  0.3461  0.0463
 2951TIP3    H133048   5.970   6.427   7.848  0.0833  0.8772 -0.3984
 2951TIP3    H233049   5.845   6.457   7.769 -0.6862 -0.4161  0.2874
 2952TIP3   OH233050   1.288   5.101   7.749  0.5678  0.3187  0.6743
 2952TIP3    H133051   1.309   5.008   7.739 -0.0880  0.1709  0.6373
 2952TIP3    H233052   1.228   5.104   7.823  0.9752  0.7754  0.9945
 2953TIP3   OH233053   5.537   6.488   8.155  0.1432  0.3205 -0.2337
 2953TIP3    H133054   5.499   6.500   8.242 -1.5728  1.1430 -1.0427
 2953TIP3    H233055   5.629   6.469   8.172 -0.1046  0.6150  1.7523
 2954TIP3   OH233056   3.585   6.251   8.710  0.2780 -0.8716 -0.1176
 2954TIP3    H133057   3.667   6.290   8.681 -0.5868  1.5979  0.4267
 2954TIP3    H233058   3.600   6.232   8.803  0.4050 -0.8903 -0.1417
 2955TIP3   OH233059   7.374   5.443   9.102  0.0434  0.2272  0.1407
 2955TIP3    H133060   7.287   5.437   9.141  0.0695  1.4302  0.4140
 2955TIP3    H233061   7.430   5.390   9.159 -0.5352 -0.7399 -0.1629
 2956TIP3   OH233062   6.435   7.418   9.437 -0.1068 -0.0036  0.3868
 2956TIP3    H133063   6.530   7.421   9.446 -0.1546  1.8689  0.5575
 2956TIP3    H233064   6.407   7.509   9.440 -1.6563 -0.2441 -2.5647
 2957TIP3   OH233065   2.473   2.936   6.831  0.0903  0.1543 -0.5092
 2957TIP3    H133066   2.494   2.887   6.911 -0.4841 -0.2439 -0.5972
 2957TIP3    H233067   2.542   2.911   6.769  1.2054  1.3387  0.1958
 2958TIP3   OH233068   3.103   5.769   7.838  0.2322  0.6741 -0.7171
 2958TIP3    H133069   3.075   5.806   7.922  1.2251  0.0717 -0.0893
 2958TIP3    H233070   3.024   5.730   7.802  0.1278 -0.7255  0.8691
 2959TIP3   OH233071   7.274   2.037   6.693  0.0121  0.1671  0.3015
 2959TIP3    H133072   7.232   2.002   6.614  0.3384 -0.3940  0.3730
 2959TIP3    H233073   7.257   1.971   6.760  1.0356 -0.0847  0.3226
 2960TIP3   OH233074   4.870   4.500   8.634  0.2304 -0.1192  0.2600
 2960TIP3    H133075   4.892   4.517   8.542  0.4899  0.2157  0.3765
 2960TIP3    H233076   4.796   4.440   8.631  0.3529 -0.2537 -0.1671
 2961TIP3   OH233077   4.844   0.220   7.662 -0.5673  0.4599  0.3044
 2961TIP3    H133078   4.885   0.181   7.584 -1.8256 -0.6556  0.1545
 2961TIP3    H233079   4.795   0.147   7.701 -0.2789  1.1042  1.9267
 2962TIP3   OH233080   2.212   5.960   8.119  0.7185  0.0295 -0.3574
 2962TIP3    H133081   2.220   5.883   8.175  1.6427  0.4997  0.1913
 2962TIP3    H233082   2.263   5.939   8.041 -0.0741 -0.3924 -0.7758
 2963TIP3   OH233083   3.264   2.635   7.201 -0.1121 -0.1938 -0.1354
 2963TIP3    H133084   3.280   2.600   7.288 -0.4660 -2.0726 -0.7649
 2963TIP3    H233085   3.319   2.713   7.195  2.7586 -1.9896  0.5440
 2964TIP3   OH233086   7.183   0.436   7.909 -0.7059  0.6202 -0.7371
 2964TIP3    H133087   7.171   0.342   7.918  0.1738  0.5820  0.2812
 2964TIP3    H233088   7.268   0.446   7.867 -0.5984  0.9626 -0.4441
 2965TIP3   OH233089   0.933   4.883   7.818  0.2611 -0.4545  0.3063
 2965TIP3    H133090   1.022   4.857   7.842  0.2752  0.1366  0.9212
 2965TIP3    H233091   0.923   4.971   7.854 -0.4329 -0.3497 -0.1205
 2966TIP3   OH233092   0.778   7.639   8.894 -0.1069 -0.0773 -0.6687
 2966TIP3    H133093   0.775   7.658   8.987  1.2304 -1.2735 -0.3359
 2966TIP3    H233094   0.848   7.695   8.860  0.8469 -1.1403 -0.5192
 2967TIP3   OH233095   0.031   2.128   6.951 -0.1780 -0.0565 -0.0759
 2967TIP3    H133096   0.038   2.079   6.870 -0.6182 -0.1358 -0.0670
 2967TIP3    H233097   0.078   2.210   6.934  0.5636 -0.4851 -0.0821
 2968TIP3   OH233098   5.037   5.689   9.426  0.0981  0.0529  0.1900
 2968TIP3    H133099   5.007   5.776   9.401  0.4439  0.0261 -0.3401
 2968TIP3    H233100   4.962   5.649   9.470  0.4731  1.2278  1.9953
 2969TIP3   OH233101   5.071   0.004   7.027  0.2975 -0.0768  0.3040
 2969TIP3    H133102   4.992  -0.049   7.018  0.4034 -0.0507 -0.8975
 2969TIP3    H233103   5.044   0.092   7.000  0.7732 -0.1047 -0.2718
 2970TIP3   OH233104   5.580   5.029   8.352  0.0539 -0.1879 -0.9255
 2970TIP3    H133105   5.643   5.049   8.282 -0.4676 -0.2956 -1.4285
 2970TIP3    H233106   5.634   4.994   8.423  0.7025  0.8243 -0.9070
 2971TIP3   OH233107   5.143   6.576   9.525  0.3687  0.0747 -0.3716
 2971TIP3    H133108   5.230   6.546   9.497  0.2524 -0.5151 -0.1049
 2971TIP3    H233109   5.114   6.632   9.453  1.3354  0.9863 -0.0748
 2972TIP3   OH233110   5.671   1.903   7.849 -0.0083  0.4122 -0.0216
 2972TIP3    H133111   5.618   1.824   7.855 -0.1990  0.6250  1.2367
 2972TIP3    H233112   5.650   1.940   7.763 -2.0128  0.5858  0.5145
 2973TIP3   OH233113   3.573   3.605   6.659 -0.2896  0.3819  0.0123
 2973TIP3    H133114   3.513   3.577   6.590 -1.4998  2.2418  0.2524
 2973TIP3    H233115   3.658   3.573   6.631 -0.9704 -0.0676 -1.6553
 2974TIP3   OH233116   2.002   4.590   7.468  0.1497  0.1403 -0.0316
 2974TIP3    H133117   2.025   4.497   7.462 -0.3180 -0.0338  0.7302
 2974TIP3    H233118   2.079   4.631   7.507 -0.3677 -0.2638  1.4843
 2975TIP3   OH233119   6.818   5.383   9.413  0.3863 -0.3523  0.5372
 2975TIP3    H133120   6.758   5.342   9.475 -0.2637  0.2049  0.2929
 2975TIP3    H233121   6.857   5.310   9.365  0.5896 -0.7639  1.3237
 2976TIP3   OH233122   4.522   3.748   9.545 -0.3231  0.1572  0.2909
 2976TIP3    H133123   4.581   3.672   9.543  1.7800  1.6903  0.5332
 2976TIP3    H233124   4.483   3.751   9.458  0.4494 -0.5324 -0.0870
 2977TIP3   OH233125   1.814   6.719   7.693  0.4278  0.0987 -0.1650
 2977TIP3    H133126   1.827   6.648   7.629  2.0639 -1.2842  1.5755
 2977TIP3    H233127   1.725   6.705   7.726 -0.5653  1.0232 -2.2800
 2978TIP3   OH233128   6.178   5.782   9.228  0.3727 -0.5354  0.4014
 2978TIP3    H133129   6.207   5.873   9.237  0.6445 -0.6473  0.6769
 2978TIP3    H233130   6.083   5.785   9.243  0.1369 -0.0877 -1.0308
 2979TIP3   OH233131   2.711   6.005   7.751  0.5114  0.3369  0.0455
 2979TIP3    H133132   2.746   5.980   7.837  3.9438 -1.1400 -1.6103
 2979TIP3    H233133   2.727   6.099   7.745  0.2065  0.4608  1.0160
 2980TIP3   OH233134   3.784   2.682   7.838 -0.1731  0.1227 -0.3911
 2980TIP3    H133135   3.741   2.652   7.758 -0.9436  0.7847 -0.2393
 2980TIP3    H233136   3.714   2.686   7.903  0.2120  0.7394 -0.0005
 2981TIP3   OH233137   3.278   5.547   8.888 -0.6603  1.3262 -0.2716
 2981TIP3    H133138   3.221   5.471   8.896  1.5104 -0.3082  0.6492
 2981TIP3    H233139   3.238   5.613   8.944  0.1191 -0.9573  3.2533
 2982TIP3   OH233140   6.257   2.514   7.884  0.0289  0.1359  0.3843
 2982TIP3    H133141   6.325   2.579   7.865  0.6294 -0.2416  1.1416
 2982TIP3    H233142   6.183   2.566   7.914  0.4184  0.4935  0.7537
 2983TIP3   OH233143   4.301   7.320   6.880 -0.1007 -0.7324  0.3175
 2983TIP3    H133144   4.237   7.309   6.809  0.2401 -0.1551 -0.0860
 2983TIP3    H233145   4.380   7.277   6.848  0.3400  0.3377 -0.0496
 2984TIP3   OH233146   0.186   5.132   7.573  0.0210 -0.1504  0.1917
 2984TIP3    H133147   0.146   5.045   7.571 -1.4917  0.4939  1.0852
 2984TIP3    H233148   0.113   5.193   7.567  1.0331  1.0835 -0.1315
 2985TIP3   OH233149   1.651   0.310   7.530 -0.5504  0.2698 -0.3809
 2985TIP3    H133150   1.598   0.324   7.451 -1.1366  1.7729  0.2432
 2985TIP3    H233151   1.738   0.289   7.496 -0.9985 -0.0155 -1.4224
 2986TIP3   OH233152   4.637   5.508   8.970  0.2316  0.2328  0.5955
 2986TIP3    H133153   4.585   5.429   8.984  0.6389 -0.2114 -0.3375
 2986TIP3    H233154   4.600   5.547   8.890 -1.1246  1.9502  1.9643
 2987TIP3   OH233155   1.802   6.696   7.321 -0.4244  0.2602 -0.0181
 2987TIP3    H133156   1.723   6.736   7.358 -0.8260  0.4783 -1.0766
 2987TIP3    H233157   1.771   6.614   7.282 -0.3039  0.7631 -1.2076
 2988TIP3   OH233158   1.809   2.697   8.661 -0.3849 -0.4293  0.5450
 2988TIP3    H133159   1.777   2.768   8.605 -1.8327 -1.1436  0.4271
 2988TIP3    H233160   1.903   2.712   8.668 -0.9574  3.4820  3.2513
 2989TIP3   OH233161   4.498   0.553   8.327 -0.4543 -0.1796  0.0648
 2989TIP3    H133162   4.529   0.557   8.417 -1.4238 -1.4647  0.4866
 2989TIP3    H233163   4.434   0.624   8.320 -1.1127 -0.6957  0.7015
 2990TIP3   OH233164   3.025   0.776   8.955 -0.0730  0.0580 -0.6143
 2990TIP3    H133165   3.060   0.733   8.877 -0.2751 -0.5872 -0.3531
 2990TIP3    H233166   2.973   0.709   8.998 -0.6320  0.6538 -0.3503
 2991TIP3   OH233167   7.270   5.358   6.369  1.1531 -0.0551 -0.0444
 2991TIP3    H133168   7.222   5.340   6.449  1.3143  1.5870  0.4531
 2991TIP3    H233169   7.254   5.451   6.351 -1.8352 -1.0450 -3.8957
 2992TIP3   OH233170   1.655   3.679   7.697 -0.7671  0.4499  0.4603
 2992TIP3    H133171   1.654   3.774   7.688 -2.8836  0.4336 -0.0903
 2992TIP3    H233172   1.697   3.663   7.781  1.5219  1.7192 -0.3335
 2993TIP3   OH233173   5.717   2.230   8.701  0.3377  0.2460  0.2892
 2993TIP3    H133174   5.725   2.150   8.649 -0.4224 -0.0791  0.6586
 2993TIP3    H233175   5.749   2.205   8.788  0.4150  0.4430  0.3177
 2994TIP3   OH233176   0.727   2.830   7.600  0.7149 -0.4051 -0.0882
 2994TIP3    H133177   0.798   2.859   7.543  0.5359 -0.1574 -0.1875
 2994TIP3    H233178   0.708   2.741   7.571 -0.7683  0.4181 -1.8187
 2995TIP3   OH233179   5.726   2.259   9.234  0.0860 -0.1037  0.0831
 2995TIP3    H133180   5.782   2.213   9.296  2.4717 -0.3305 -2.0590
 2995TIP3    H233181   5.697   2.337   9.280  2.2596  0.0355  1.2990
 2996TIP3   OH233182   0.588   5.583   6.927 -0.3011  0.4900 -0.6141
 2996TIP3    H133183   0.642   5.598   7.004 -0.3505 -1.4225 -0.1641
 2996TIP3    H233184   0.498   5.596   6.957 -0.3173 -0.2099 -0.3581
 2997TIP3   OH233185   0.349   2.849   7.978 -0.1167 -0.4423  0.0796
 2997TIP3    H133186   0.321   2.790   7.908 -0.3876 -1.3140  0.9030
 2997TIP3    H233187   0.445   2.847   7.975 -0.1202 -1.1775  0.2967
 2998TIP3   OH233188   0.013   6.894   7.537  0.2603  0.3510  0.4819
 2998TIP3    H133189   0.080   6.932   7.594  1.2638 -1.0537  0.2983
 2998TIP3    H233190  -0.069   6.907   7.584  1.0314 -0.6276  2.2017
 2999TIP3   OH233191   3.374   1.240   7.986 -0.4471 -0.0675  0.2380
 2999TIP3    H133192   3.383   1.251   8.081 -2.2098  0.8954  0.3420
 2999TIP3    H233193   3.365   1.146   7.973  0.9116 -0.3129  0.8876
 3000TIP3   OH233194   3.648   3.681   9.350 -0.1943  0.0924 -0.0714
 3000TIP3    H133195   3.637   3.655   9.442  0.8644 -0.9653 -0.2116
 3000TIP3    H233196   3.569   3.730   9.329 -1.6043 -1.6875  0.7294
 3001TIP3   OH233197   7.525   4.862   7.126  0.3729 -0.2076 -0.1120
 3001TIP3    H133198   7.566   4.781   7.155 -0.7402 -1.5153 -2.0419
 3001TIP3    H233199   7.472   4.890   7.201  1.5987 -0.6354  0.9532
 3002TIP3   OH233200   7.178   0.716   9.415 -0.1878 -0.0395 -0.2827
 3002TIP3    H133201   7.089   0.751   9.420 -0.1240 -0.0317  1.0133
 3002TIP3    H233202   7.167   0.625   9.387 -0.5425  0.1608 -0.8165
 3003TIP3   OH233203   5.084   0.845   9.201 -0.3260 -0.0253  0.2083
 3003TIP3    H133204   5.179   0.850   9.201 -0.3503  3.0809  2.1931
 3003TIP3    H233205   5.062   0.802   9.284 -0.6669 -0.6593 -0.2031
 3004TIP3   OH233206   6.565   5.093   9.238 -0.2239 -0.5758  0.4829
 3004TIP3    H133207   6.573   5.014   9.291 -2.8757 -0.7694  0.7569
 3004TIP3    H233208   6.570   5.165   9.301 -0.8925 -0.6945  0.6827
 3005TIP3   OH233209   0.750   4.898   7.091 -0.1645 -0.1564 -0.1084
 3005TIP3    H133210   0.741   4.806   7.066  1.2856 -0.7017  1.2187
 3005TIP3    H233211   0.842   4.908   7.113 -0.4330  1.4613  0.4060
 3006TIP3   OH233212   1.681   2.233   7.056  0.2555  0.0560 -0.3284
 3006TIP3    H133213   1.751   2.168   7.063  0.6788  0.5649  0.3047
 3006TIP3    H233214   1.614   2.201   7.116  1.0529  0.8989  1.0853
 3007TIP3   OH233215   7.222   6.010   9.482 -0.1328 -0.3552  0.1732
 3007TIP3    H133216   7.315   6.021   9.500  0.4943 -1.8853 -1.7366
 3007TIP3    H233217   7.207   6.063   9.403 -0.5163 -1.2410 -0.3672
 3008TIP3   OH233218   3.588   0.082   7.520  0.5798 -0.2809  0.9144
 3008TIP3    H133219   3.531   0.137   7.467 -0.2095 -0.4915  1.5217
 3008TIP3    H233220   3.582  -0.004   7.480 -2.1772 -1.1384  2.8019
 3009TIP3   OH233221   1.775   5.633   6.847 -0.0953 -0.0715 -0.0998
 3009TIP3    H133222   1.715   5.558   6.855 -0.8797  0.5412 -0.1981
 3009TIP3    H233223   1.760   5.667   6.759  0.5264 -0.0200 -0.1866
 3010TIP3   OH233224   6.720   4.478   7.188  0.3316  0.0731  0.0378
 3010TIP3    H133225   6.798   4.486   7.132 -0.0304  1.6522 -0.2864
 3010TIP3    H233226   6.647   4.479   7.126  0.0248 -2.0897  0.2836
 3011TIP3   OH233227   3.356   0.523   8.636  0.2608 -0.1502  0.3754
 3011TIP3    H133228   3.427   0.587   8.635  0.3170 -0.2144  0.1690
 3011TIP3    H233229   3.279   0.573   8.663 -0.5017  0.8738 -3.1733
 3012TIP3   OH233230   5.074   0.128   7.921  0.2634 -0.7089 -0.4410
 3012TIP3    H133231   5.039   0.189   7.857 -1.2395 -1.6223 -0.5198
 3012TIP3    H233232   5.030   0.045   7.903  0.9156 -1.3685  0.8256
 3013TIP3   OH233233   2.032   2.280   7.709  0.3464  0.0001  0.2130
 3013TIP3    H133234   1.959   2.318   7.757  0.7710 -1.2861  1.9652
 3013TIP3    H233235   2.110   2.322   7.747  0.6245  0.1318 -0.4822
 3014TIP3   OH233236   2.922   6.568   6.806 -0.6287  0.0269 -0.1266
 3014TIP3    H133237   2.918   6.646   6.751 -1.5202  0.3674  0.4079
 3014TIP3    H233238   2.987   6.590   6.873  0.3043 -0.3112 -0.8952
 3015TIP3   OH233239   6.186   7.538   7.359  0.0683  0.2517  0.3963
 3015TIP3    H133240   6.162   7.616   7.309 -2.0120 -1.5333 -1.6392
 3015TIP3    H233241   6.107   7.518   7.409 -0.3054 -1.8183 -0.9389
 3016TIP3   OH233242   1.001   4.342   6.952 -0.3427 -0.2558 -0.1689
 3016TIP3    H133243   1.031   4.382   6.870 -3.0516 -0.0187 -1.1691
 3016TIP3    H233244   1.081   4.319   6.999  1.3795  3.0342 -1.1601
 3017TIP3   OH233245   4.878   3.340   8.467  0.1208 -0.1292 -0.1828
 3017TIP3    H133246   4.935   3.308   8.397 -0.0737 -0.0950 -0.3581
 3017TIP3    H233247   4.854   3.429   8.439  0.7822  0.2363  0.3748
 3018TIP3   OH233248   2.893   4.850   7.838  0.4271  0.4860 -0.0488
 3018TIP3    H133249   2.857   4.853   7.750  0.9696  0.9373 -0.2529
 3018TIP3    H233250   2.856   4.770   7.876  1.6962 -0.7591 -1.3289
 3019TIP3   OH233251   4.179   6.260   8.035 -0.5501  0.6926  0.4248
 3019TIP3    H133252   4.124   6.182   8.034  0.0772  0.2383  0.2526
 3019TIP3    H233253   4.181   6.287   8.127  1.3718 -1.0887  1.0145
 3020TIP3   OH233254   6.135   6.330   8.457  0.2523  0.2390 -0.1452
 3020TIP3    H133255   6.082   6.408   8.444 -0.0937 -0.1415 -1.1789
 3020TIP3    H233256   6.086   6.260   8.413  0.4507 -0.6071  0.9339
 3021TIP3   OH233257   5.021   2.171   7.795 -0.3128 -0.0447  0.2530
 3021TIP3    H133258   5.001   2.136   7.709  0.5740  1.1606 -0.4655
 3021TIP3    H233259   4.940   2.213   7.824 -0.5069 -0.1429 -0.1547
 3022TIP3   OH233260   3.340   1.122   9.618  0.0995  0.5462 -0.8021
 3022TIP3    H133261   3.267   1.169   9.578 -0.3299  1.6334  1.1321
 3022TIP3    H233262   3.400   1.190   9.648  0.0940 -0.1570  0.9263
 3023TIP3   OH233263   2.672   6.523   6.863 -0.1928 -0.3953 -0.5979
 3023TIP3    H133264   2.764   6.523   6.834 -0.3112  0.0505 -0.9817
 3023TIP3    H233265   2.630   6.456   6.808 -0.4562  0.5722 -1.6114
 3024TIP3   OH233266   3.217   3.703   8.071  0.4178  0.6577  0.3832
 3024TIP3    H133267   3.302   3.661   8.065  0.4831  0.8117  0.2283
 3024TIP3    H233268   3.191   3.719   7.980 -0.1047 -0.0480  0.4077
 3025TIP3   OH233269   1.788   3.144   8.224 -0.5209 -0.1524  0.6301
 3025TIP3    H133270   1.711   3.108   8.269  0.5216 -1.5937  1.3224
 3025TIP3    H233271   1.859   3.134   8.287  0.6242 -0.5348 -0.6889
 3026TIP3   OH233272   2.236   5.977   8.569 -0.1327 -0.2091 -0.5802
 3026TIP3    H133273   2.165   5.915   8.579 -0.7891  0.2455 -2.2246
 3026TIP3    H233274   2.200   6.061   8.598  0.7036 -0.4968  1.4906
 3027TIP3   OH233275   7.148   5.836   9.702  0.5606 -0.6788  0.1357
 3027TIP3    H133276   7.058   5.844   9.733  1.0403 -0.0486  1.4746
 3027TIP3    H233277   7.157   5.906   9.637  0.2159 -0.4400  0.3405
 3028TIP3   OH233278   5.613   1.808   7.093  0.1347  0.0876  0.5064
 3028TIP3    H133279   5.621   1.893   7.049 -0.7648  1.0961  2.1962
 3028TIP3    H233280   5.699   1.768   7.082 -0.3174 -0.2788 -3.1070
 3029TIP3   OH233281   5.113   3.615   7.598 -0.3194 -0.0550  0.3955
 3029TIP3    H133282   5.163   3.696   7.611 -0.0283  0.1973 -1.8079
 3029TIP3    H233283   5.116   3.601   7.503 -2.8362 -1.0859  0.4048
 3030TIP3   OH233284   1.281   0.400   8.159 -0.1600  0.0302 -0.1056
 3030TIP3    H133285   1.280   0.495   8.151  0.7455  0.0111 -0.4640
 3030TIP3    H233286   1.262   0.383   8.252 -1.0543  0.5238 -0.1846
 3031TIP3   OH233287   0.008   4.681   8.540  0.0745  0.0698 -0.7567
 3031TIP3    H133288   0.018   4.588   8.559 -0.7174  0.4267  1.6966
 3031TIP3    H233289  -0.087   4.694   8.533  0.1675  0.7219 -0.9525
 3032TIP3   OH233290   0.139   3.347   7.816  0.4271  0.2680 -0.5802
 3032TIP3    H133291   0.137   3.312   7.727  0.7299  1.7952 -1.2172
 3032TIP3    H233292   0.049   3.340   7.847  0.5357 -1.3757 -0.5167
 3033TIP3   OH233293   0.607   3.591   9.141  0.1455  0.8662 -0.6951
 3033TIP3    H133294   0.618   3.626   9.229 -0.0809 -1.5143  0.3624
 3033TIP3    H233295   0.531   3.533   9.147  1.5975 -1.3377 -1.7294
 3034TIP3   OH233296   6.944   0.487   9.393 -0.1536 -0.3852 -1.0521
 3034TIP3    H133297   6.875   0.426   9.421  1.4579 -1.9075 -0.1520
 3034TIP3    H233298   7.024   0.434   9.395  1.3992  1.8625  0.1658
 3035TIP3   OH233299   2.294   3.909   9.459 -0.2338  0.1303  0.4968
 3035TIP3    H133300   2.269   4.001   9.456  0.6066  0.4121  1.5891
 3035TIP3    H233301   2.211   3.861   9.463 -0.6464  0.9273  1.7352
 3036TIP3   OH233302   3.498   5.064   8.493  0.0940  0.0955  0.2076
 3036TIP3    H133303   3.578   5.014   8.509  0.9803  1.1774 -0.6797
 3036TIP3    H233304   3.526   5.137   8.437 -1.6297  0.1506 -0.6492
 3037TIP3   OH233305   2.979   2.257   6.889 -0.0085 -0.1806 -0.1269
 3037TIP3    H133306   3.030   2.331   6.922  1.1253 -0.7076 -0.6293
 3037TIP3    H233307   3.038   2.214   6.826 -1.7582  0.2766 -2.1908
 3038TIP3   OH233308   2.714   1.930   9.194  0.1306  0.1360 -0.1546
 3038TIP3    H133309   2.686   1.860   9.253  3.1449 -0.6875  0.4811
 3038TIP3    H233310   2.719   1.889   9.108  0.0257  0.1306 -0.1588
 3039TIP3   OH233311   5.146   5.118   9.316  0.3584  0.0841 -0.0076
 3039TIP3    H133312   5.060   5.113   9.358 -0.4254 -1.1340 -1.6614
 3039TIP3    H233313   5.149   5.206   9.279 -0.7968 -0.3259 -1.1396
 3040TIP3   OH233314   0.077   5.047   8.979  1.0610 -0.5677 -0.1264
 3040TIP3    H133315   0.171   5.029   8.981  0.9692 -1.0949  1.8341
 3040TIP3    H233316   0.062   5.105   9.054 -0.3663 -1.5922  0.4229
 3041TIP3   OH233317   7.042   2.815   8.915 -0.5616  0.3572 -0.6100
 3041TIP3    H133318   7.124   2.862   8.928 -0.1281 -0.7179  0.8406
 3041TIP3    H233319   6.974   2.874   8.949 -0.0300 -0.0089  1.1995
 3042TIP3   OH233320   7.049   4.000   8.908  0.5844 -0.2948 -0.6850
 3042TIP3    H133321   7.047   3.917   8.956  3.2975 -1.0436 -1.7040
 3042TIP3    H233322   7.061   3.975   8.817 -0.7733  1.2215 -1.3329
 3043TIP3   OH233323   4.175   2.845   7.443 -0.2758  0.0005  0.2299
 3043TIP3    H133324   4.230   2.821   7.518  2.9982  0.6318 -1.7757
 3043TIP3    H233325   4.162   2.763   7.396 -0.4775 -0.0517  0.3799
 3044TIP3   OH233326   4.244   0.065   7.633  0.0354  0.4831 -0.2915
 3044TIP3    H133327   4.189   0.119   7.576 -0.4081  0.2002 -0.1306
 3044TIP3    H233328   4.332   0.099   7.619 -0.3385  1.8378  0.4525
 3045TIP3   OH233329   2.952   2.656   7.948  0.3254  0.5911 -0.1113
 3045TIP3    H133330   2.928   2.607   8.027  1.0356 -0.0216 -0.2617
 3045TIP3    H233331   2.892   2.731   7.947 -0.2629  0.1445  0.5447
 3046TIP3   OH233332   0.026   6.588   9.433  0.2292 -0.1356 -0.5445
 3046TIP3    H133333   0.005   6.499   9.402 -0.1789  0.1964 -1.2535
 3046TIP3    H233334   0.043   6.577   9.526 -0.2844 -0.8865 -0.5266
 3047TIP3   OH233335   0.365   0.786   8.791  0.7446  0.3262 -0.1479
 3047TIP3    H133336   0.403   0.739   8.717  1.7595  0.4969  0.2526
 3047TIP3    H233337   0.426   0.858   8.808  0.9859 -0.2201  1.4107
 3048TIP3   OH233338   3.047   2.569   8.838  0.0194  0.0490 -0.3114
 3048TIP3    H133339   3.105   2.498   8.811  0.7873  0.5456 -0.0435
 3048TIP3    H233340   2.990   2.530   8.905  1.4505  0.0269  0.9683
 3049TIP3   OH233341   5.401   4.690   9.122 -0.2382  0.1506  0.3787
 3049TIP3    H133342   5.456   4.768   9.123 -0.8140  0.5613  1.1014
 3049TIP3    H233343   5.438   4.633   9.189 -0.2906  0.1429  0.4013
 3050TIP3   OH233344   7.633   4.824   7.982 -0.5093  0.5494 -0.0595
 3050TIP3    H133345   7.629   4.847   8.075 -0.4714 -0.0575  0.0955
 3050TIP3    H233346   7.716   4.778   7.972  0.6020  2.6124 -0.8702
 3051TIP3   OH233347   3.929   3.515   8.189  0.0084 -0.1151  0.3757
 3051TIP3    H133348   3.908   3.608   8.183 -0.3732 -0.0977  1.7520
 3051TIP3    H233349   3.846   3.472   8.208 -0.0854 -0.9347 -1.6603
 3052TIP3   OH233350   5.613   3.281   8.699 -0.3514 -0.4218 -0.4934
 3052TIP3    H133351   5.704   3.289   8.729 -0.7094 -0.6200  0.7115
 3052TIP3    H233352   5.586   3.370   8.679  0.4859 -0.4965 -2.0644
 3053TIP3   OH233353   5.691   7.171   7.830  1.1002 -0.4124  0.3666
 3053TIP3    H133354   5.745   7.097   7.857  1.0910 -0.6426 -0.2380
 3053TIP3    H233355   5.687   7.165   7.735  0.7242  0.1049  0.3441
 3054TIP3   OH233356   5.372   4.299   8.090  0.6946 -0.6499 -0.1039
 3054TIP3    H133357   5.324   4.343   8.021  0.6626  1.0646  0.9554
 3054TIP3    H233358   5.400   4.369   8.149  1.2140 -1.9820  1.3214
 3055TIP3   OH233359   1.111   5.271   8.903 -0.5799  0.1095  0.3900
 3055TIP3    H133360   1.167   5.309   8.971 -0.2432  1.9981 -0.8595
 3055TIP3    H233361   1.155   5.190   8.878 -0.3725 -0.2867  1.9492
 3056TIP3   OH233362   1.231   5.697   9.260  0.1919 -0.4004 -0.2400
 3056TIP3    H133363   1.173   5.739   9.324 -1.6299 -0.2814 -1.8689
 3056TIP3    H233364   1.309   5.753   9.257 -0.6319  0.8177  0.2804
 3057TIP3   OH233365   3.485   5.247   9.859 -0.4771 -0.1700  0.1184
 3057TIP3    H133366   3.405   5.244   9.806 -2.0258  4.0338  1.7606
 3057TIP3    H233367   3.474   5.177   9.923 -1.9648 -0.8443 -0.8335
 3058TIP3   OH233368   6.967   3.719   8.908 -0.3856  0.4779 -0.5281
 3058TIP3    H133369   6.889   3.703   8.961 -1.4944  1.9844 -1.6118
 3058TIP3    H233370   6.935   3.770   8.834  1.4326  0.0209 -1.6853
 3059TIP3   OH233371   5.333   4.288   9.016 -0.3952  0.0120 -0.4149
 3059TIP3    H133372   5.328   4.368   8.963 -0.5312  0.9222  0.9130
 3059TIP3    H233373   5.390   4.312   9.090 -1.3791 -0.7318  0.6229
 3060TIP3   OH233374   6.600   0.568   8.990  0.1479  0.0744 -0.1275
 3060TIP3    H133375   6.565   0.480   8.977  0.6738 -0.0492 -0.7840
 3060TIP3    H233376   6.545   0.607   9.058 -0.7881 -0.3687 -0.6190
 3061TIP3   OH233377   6.724   7.298   7.621 -0.1297 -0.1911  0.3674
 3061TIP3    H133378   6.639   7.276   7.582 -0.5546  0.6956  0.7519
 3061TIP3    H233379   6.709   7.383   7.663  1.3233  0.6851 -0.7787
 3062TIP3   OH233380   4.042   7.592   7.786  0.1888 -0.2796 -0.6406
 3062TIP3    H133381   4.043   7.687   7.773  0.6025 -0.1630  0.1943
 3062TIP3    H233382   4.126   7.562   7.754 -0.2483 -0.4835 -1.6469
 3063TIP3   OH233383   1.642   7.479   8.709  0.2310  0.1929 -0.6449
 3063TIP3    H133384   1.666   7.387   8.723  0.2659  0.1548 -0.9468
 3063TIP3    H233385   1.660   7.494   8.616  1.8917  0.9881 -0.2415
 3064TIP3   OH233386   0.484   5.210   7.506 -0.4237  0.8820 -0.0238
 3064TIP3    H133387   0.429   5.215   7.428 -0.7034  0.1034  0.1208
 3064TIP3    H233388   0.428   5.242   7.577 -1.5789 -2.1275  0.5665
 3065TIP3   OH233389   1.612   1.940   8.626  0.2265 -0.0777 -0.4021
 3065TIP3    H133390   1.602   1.904   8.538  0.1213  1.4087 -1.0111
 3065TIP3    H233391   1.550   1.890   8.679 -0.4822 -0.2571 -1.3755
 3066TIP3   OH233392   3.557   3.425   6.402 -0.1600 -0.0600 -0.4505
 3066TIP3    H133393   3.521   3.401   6.487 -0.0657 -2.5664 -1.0605
 3066TIP3    H233394   3.512   3.507   6.380 -1.2595 -0.1186  1.3347
 3067TIP3   OH233395   1.343   4.845   6.963  0.0570 -0.5123 -0.3315
 3067TIP3    H133396   1.304   4.788   6.897  1.1977 -1.7721  0.0308
 3067TIP3    H233397   1.417   4.886   6.919 -1.7755  2.1999 -1.1470
 3068TIP3   OH233398   4.818   5.647   9.121  0.3018  0.2947 -0.0312
 3068TIP3    H133399   4.785   5.576   9.067 -0.5866 -0.3300  1.2937
 3068TIP3    H233400   4.740   5.692   9.154  0.7259 -0.3465  2.0135
 3069TIP3   OH233401   1.979   5.074   7.350  0.2181 -0.0424 -0.4896
 3069TIP3    H133402   1.932   5.128   7.286 -1.8319 -1.0262  0.0998
 3069TIP3    H233403   1.910   5.038   7.406  1.6496 -1.9676  0.1328
 3070TIP3   OH233404   7.241   7.314   7.423 -0.2033  0.0918  0.0966
 3070TIP3    H133405   7.186   7.282   7.352 -0.8584 -1.3498  1.1986
 3070TIP3    H233406   7.249   7.408   7.407  0.7095 -0.3415 -2.5571
 3071TIP3   OH233407   0.298   0.211   8.201  0.2271 -0.0992 -0.4554
 3071TIP3    H133408   0.312   0.129   8.154  0.8760  0.2075 -0.8066
 3071TIP3    H233409   0.370   0.267   8.174 -1.0189  1.1275 -1.4002
 3072TIP3   OH233410   2.746   0.802   7.782  0.4972 -0.3931  0.4024
 3072TIP3    H133411   2.835   0.837   7.772 -0.7954  3.1923 -0.2801
 3072TIP3    H233412   2.717   0.833   7.868 -0.1845 -1.2853  0.5061
 3073TIP3   OH233413   2.040   1.099   7.923 -0.3286 -0.5179 -0.4283
 3073TIP3    H133414   2.091   1.096   7.842  1.6068 -1.1124  0.7619
 3073TIP3    H233415   2.096   1.145   7.985 -1.1625 -1.3306  0.9839
 3074TIP3   OH233416   1.077   4.203   9.393 -0.4243  1.2735 -0.2677
 3074TIP3    H133417   1.107   4.221   9.304  1.4446  1.7247  0.4026
 3074TIP3    H233418   1.012   4.271   9.411 -1.3783  0.7326 -1.5168
 3075TIP3   OH233419   6.910   0.635   7.627  0.6231  0.0536 -0.2197
 3075TIP3    H133420   6.981   0.696   7.647  0.4088  0.0985  0.4373
 3075TIP3    H233421   6.952   0.549   7.628  0.9253  0.1736 -1.1458
 3076TIP3   OH233422   6.518   5.302   8.413  0.0479  0.3340  0.5263
 3076TIP3    H133423   6.591   5.338   8.464  1.0353 -1.7031  0.6847
 3076TIP3    H233424   6.555   5.224   8.371 -1.4724  0.4728 -1.1865
 3077TIP3   OH233425   6.311   5.475   9.528  0.5920 -0.2171 -0.4891
 3077TIP3    H133426   6.371   5.477   9.602 -1.2739  1.5755  1.0845
 3077TIP3    H233427   6.302   5.566   9.501 -1.4999 -0.3958 -0.5554
 3078TIP3   OH233428   7.291   1.849   9.328 -0.6043 -0.5880 -0.6886
 3078TIP3    H133429   7.351   1.780   9.299  0.6854  0.8207 -1.5820
 3078TIP3    H233430   7.349   1.916   9.365 -1.8978 -0.4089  1.1263
 3079TIP3   OH233431   6.103   3.937   8.637  0.4980 -0.0931 -0.2309
 3079TIP3    H133432   6.013   3.908   8.649  0.4432 -1.0538 -2.3533
 3079TIP3    H233433   6.153   3.892   8.705 -0.6360  0.6162  1.0932
 3080TIP3   OH233434   4.716   2.487   8.617 -0.1924 -0.0101  0.3545
 3080TIP3    H133435   4.664   2.496   8.538  1.3140 -2.7343 -1.0895
 3080TIP3    H233436   4.652   2.477   8.688 -1.5781  0.4994 -0.7911
 3081TIP3   OH233437   5.620   3.165   9.358  0.0484  0.4791 -0.1458
 3081TIP3    H133438   5.557   3.100   9.328  0.2091  1.1201 -2.0172
 3081TIP3    H233439   5.566   3.240   9.383 -0.1407 -0.3312  2.0711
 3082TIP3   OH233440   1.325   6.709   9.360 -0.2929 -0.3994  0.2598
 3082TIP3    H133441   1.280   6.792   9.347  0.0300 -0.4552 -1.4248
 3082TIP3    H233442   1.403   6.715   9.304 -0.2413 -1.8023  0.1405
 3083TIP3   OH233443   0.267   4.804   9.094 -0.1243 -0.0453  0.4576
 3083TIP3    H133444   0.263   4.897   9.119  1.0251  0.0819  0.2398
 3083TIP3    H233445   0.361   4.786   9.085 -0.3765 -0.9836 -0.4427
 3084TIP3   OH233446   1.593   6.166   7.847 -0.8605  0.4375 -0.6643
 3084TIP3    H133447   1.656   6.209   7.790 -0.0238 -0.1940 -0.2416
 3084TIP3    H233448   1.647   6.114   7.908 -1.8116 -1.0711 -1.0503
 3085TIP3   OH233449   7.176   3.431   9.470 -0.1912  0.3174 -0.0173
 3085TIP3    H133450   7.161   3.354   9.526  1.6148  0.5947  0.9315
 3085TIP3    H233451   7.258   3.468   9.502 -0.4581  2.0330 -1.1751
 3086TIP3   OH233452   4.238   3.947   9.453  0.1958 -0.0051  0.1698
 3086TIP3    H133453   4.159   3.943   9.399  0.3600  1.0040 -0.1602
 3086TIP3    H233454   4.274   4.034   9.437  1.7578 -0.6729 -0.2344
 3087TIP3   OH233455   5.308   4.632   8.041  0.4715  0.2792  0.2577
 3087TIP3    H133456   5.402   4.630   8.055  0.4373  0.5000  0.5198
 3087TIP3    H233457   5.296   4.590   7.955  0.8680  0.8131 -0.0696
 3088TIP3   OH233458   1.389   2.316   7.676 -0.2634  0.2830 -0.5937
 3088TIP3    H133459   1.386   2.220   7.674  0.2397  0.2658 -0.7363
 3088TIP3    H233460   1.458   2.338   7.612  0.5391  0.6866  0.3871
 3089TIP3   OH233461   1.674   2.631   6.786 -0.0116  0.2299 -0.4964
 3089TIP3    H133462   1.686   2.587   6.870 -0.3697  2.3435  0.7283
 3089TIP3    H233463   1.717   2.573   6.722 -0.9860 -2.1436  0.8889
 3090TIP3   OH233464   3.655   2.675   7.558 -0.3418 -0.1271 -0.5398
 3090TIP3    H133465   3.627   2.709   7.473  0.8276 -0.9844 -1.3048
 3090TIP3    H233466   3.575   2.664   7.608 -1.2505 -1.2961 -2.1678
 3091TIP3   OH233467   3.781   3.048   8.659  0.4028 -0.3042  0.6638
 3091TIP3    H133468   3.714   3.001   8.610 -0.3879  1.5548 -0.1650
 3091TIP3    H233469   3.745   3.057   8.747  0.1155 -0.4160  0.5601
 3092TIP3   OH233470   0.450   3.461   8.736 -0.5602  0.0795 -0.3543
 3092TIP3    H133471   0.526   3.505   8.775  0.8886 -1.9679 -0.6955
 3092TIP3    H233472   0.425   3.517   8.663  0.6431  0.7988 -0.2503
 3093TIP3   OH233473   0.665   3.938   8.078 -0.3155 -0.1864  1.0194
 3093TIP3    H133474   0.591   3.881   8.055  0.6796 -0.4739 -1.8642
 3093TIP3    H233475   0.631   4.027   8.069 -0.4619 -0.3217  0.1489
 3094TIP3   OH233476   6.147   1.255   7.645  0.0398  0.6702  0.4417
 3094TIP3    H133477   6.052   1.247   7.641 -0.1707  2.7996  0.4043
 3094TIP3    H233478   6.164   1.296   7.730  0.9896 -0.0987  0.6511
 3095TIP3   OH233479   4.195   7.098   8.934 -0.7986  0.2078  0.4270
 3095TIP3    H133480   4.109   7.141   8.936 -1.0462 -0.1472 -1.2101
 3095TIP3    H233481   4.209   7.075   8.842 -0.1257 -2.1203  1.0318
 3096TIP3   OH233482   0.117   5.887   8.079  0.2213  0.5934 -0.4897
 3096TIP3    H133483   0.193   5.939   8.105 -0.2916  1.8249 -1.3561
 3096TIP3    H233484   0.119   5.810   8.136  1.1482  1.4426  0.6546
 3097TIP3   OH233485   3.453   1.951   7.920  0.0129 -0.5033  0.6214
 3097TIP3    H133486   3.522   1.885   7.926  1.2427  0.6118 -0.5379
 3097TIP3    H233487   3.442   1.965   7.826 -3.0026 -1.8291  0.6570
 3098TIP3   OH233488   3.478   3.308   6.644  0.0599  0.1170  0.0769
 3098TIP3    H133489   3.397   3.293   6.692  0.9682  1.2258  2.0828
 3098TIP3    H233490   3.546   3.267   6.698  1.1803  1.6893 -0.0745
 3099TIP3   OH233491   0.066   7.173   8.084  0.3694  0.5005 -0.1701
 3099TIP3    H133492  -0.012   7.228   8.093 -0.3402 -0.3875 -0.7517
 3099TIP3    H233493   0.110   7.207   8.006  0.1858  0.5499 -0.2526
 3100TIP3   OH233494   1.087   7.169   7.580  0.1115 -0.5870  0.1923
 3100TIP3    H133495   1.088   7.192   7.487 -1.5018  0.7890  0.4731
 3100TIP3    H233496   1.179   7.169   7.606  0.4971  0.3452 -1.0914
 3101TIP3   OH233497   6.357   0.060   9.154  0.4574 -0.0727  0.2938
 3101TIP3    H133498   6.364  -0.035   9.150 -1.6627 -0.3302  1.0322
 3101TIP3    H233499   6.280   0.080   9.102  0.4739  1.1656  0.7150
 3102TIP3   OH233500   5.331   5.629   7.935 -0.3106 -0.2950 -0.5459
 3102TIP3    H133501   5.422   5.660   7.938 -0.0318 -1.1521  0.3840
 3102TIP3    H233502   5.288   5.671   8.009 -0.2526 -1.0857 -0.0421
 3103TIP3   OH233503   5.212   4.779   9.385  0.5639 -0.1349  0.0804
 3103TIP3    H133504   5.133   4.789   9.438  0.0812 -0.4441 -0.5770
 3103TIP3    H233505   5.242   4.690   9.404  0.3303 -0.2839 -0.2463
 3104TIP3   OH233506   3.515   5.366   8.779  0.0208 -0.3481 -0.0070
 3104TIP3    H133507   3.534   5.458   8.761 -1.3784  0.1434  0.8373
 3104TIP3    H233508   3.600   5.327   8.798  0.5230  1.0690  0.8220
 3105TIP3   OH233509   2.556   3.953   9.393  0.2372  0.7441  0.2569
 3105TIP3    H133510   2.466   3.934   9.419 -0.9081  2.2381 -2.1816
 3105TIP3    H233511   2.550   4.038   9.349  2.1933 -0.5529 -2.8368
 3106TIP3   OH233512   5.886   6.570   7.449  0.0656 -0.2929  0.0256
 3106TIP3    H133513   5.980   6.574   7.430  0.4475 -0.9604  1.6298
 3106TIP3    H233514   5.846   6.624   7.380  1.8024  1.8815  0.5840
 3107TIP3   OH233515   7.163   0.298   9.441  0.4534 -0.2490 -0.1841
 3107TIP3    H133516   7.219   0.237   9.394 -1.9429 -1.0341 -2.2130
 3107TIP3    H233517   7.118   0.244   9.506 -0.9768 -0.5055 -1.3536
 3108TIP3   OH233518   1.364   3.704   7.760  0.0541  0.3197  0.2716
 3108TIP3    H133519   1.417   3.692   7.681 -1.8860  0.0502 -1.0571
 3108TIP3    H233520   1.387   3.629   7.815 -0.3441 -0.8728 -1.1183
 3109TIP3   OH233521   1.714   7.387   7.372 -0.1260 -0.0277  1.0477
 3109TIP3    H133522   1.791   7.331   7.370  0.0892  0.2702 -0.3710
 3109TIP3    H233523   1.729   7.451   7.302 -2.1256 -0.6227 -0.0187
 3110TIP3   OH233524   2.973   7.497   6.714 -0.1378  0.2195 -0.1009
 3110TIP3    H133525   2.998   7.407   6.692 -0.5830  0.2275 -0.6659
 3110TIP3    H233526   2.973   7.543   6.630 -0.5202  0.5928  0.0999
 3111TIP3   OH233527   2.319   4.225   8.667 -0.0488 -0.0706 -0.0702
 3111TIP3    H133528   2.261   4.253   8.596  0.6414 -1.0492 -1.0457
 3111TIP3    H233529   2.359   4.144   8.635  0.2609 -0.5499  1.4530
 3112TIP3   OH233530   2.721   5.714   8.844  0.2461  0.0127  0.0318
 3112TIP3    H133531   2.684   5.627   8.860 -1.6065  1.0575  1.8564
 3112TIP3    H233532   2.653   5.760   8.795  1.2870  0.4093 -1.0842
 3113TIP3   OH233533   1.581   4.031   8.374  0.2692  0.0901  0.1380
 3113TIP3    H133534   1.557   4.038   8.282 -0.1947  0.2265  0.2663
 3113TIP3    H233535   1.633   4.110   8.392 -0.5964  0.6356  0.2763
 3114TIP3   OH233536   0.775   6.441   9.555 -0.0166  0.3244 -0.0999
 3114TIP3    H133537   0.848   6.497   9.582  0.0508  0.0225  0.3556
 3114TIP3    H233538   0.791   6.357   9.599 -0.4354  0.1368 -0.2958
 3115TIP3   OH233539   0.403   6.837   8.799  0.0812  0.0027  0.9686
 3115TIP3    H133540   0.323   6.846   8.747  0.0502  0.7947  1.1476
 3115TIP3    H233541   0.460   6.782   8.745  0.0973  0.9255  0.0159
 3116TIP3   OH233542   6.086   3.798   6.995  0.7756 -0.3322  0.1299
 3116TIP3    H133543   6.030   3.736   6.949  0.5544 -0.1265  0.1225
 3116TIP3    H233544   6.068   3.782   7.088 -0.5079  0.8426  0.1071
 3117TIP3   OH233545   4.112   6.699   9.443 -0.9070  0.1645  0.1038
 3117TIP3    H133546   4.091   6.771   9.383 -0.3928  0.2316 -0.0000
 3117TIP3    H233547   4.132   6.742   9.526 -0.8534  0.1276  0.1100
 3118TIP3   OH233548   1.677   3.949   7.673  0.2901  0.3905  0.4404
 3118TIP3    H133549   1.677   3.993   7.588 -0.4062  2.6047  1.5275
 3118TIP3    H233550   1.735   4.002   7.727 -0.3833 -0.1669  1.7405
 3119TIP3   OH233551   0.784   6.647   7.486  0.2551  0.3781 -0.0621
 3119TIP3    H133552   0.772   6.552   7.479  1.9538 -0.0995  2.2839
 3119TIP3    H233553   0.707   6.677   7.535  0.3966 -0.0173  0.4097
 3120TIP3   OH233554   3.881   3.237   7.933  0.0409 -0.2041 -0.1056
 3120TIP3    H133555   3.916   3.188   7.859  2.2193  0.1086  0.6353
 3120TIP3    H233556   3.903   3.185   8.009  0.7274  1.0101  0.5526
 3121TIP3   OH233557   0.238   0.445   9.170 -0.2782  0.0949  0.4223
 3121TIP3    H133558   0.311   0.504   9.190  0.0247 -0.3304  0.5698
 3121TIP3    H233559   0.254   0.367   9.223 -1.0001  0.1143  0.6888
 3122TIP3   OH233560   4.564   3.463   8.549 -0.3282  0.4219 -0.2210
 3122TIP3    H133561   4.501   3.533   8.565  2.4054  2.7458  1.3335
 3122TIP3    H233562   4.640   3.487   8.601  1.7292 -2.4173 -1.6484
 3123TIP3   OH233563   7.003   4.740   7.834  0.2703 -0.0463  0.2626
 3123TIP3    H133564   7.055   4.790   7.897 -1.1317  0.5043  1.0257
 3123TIP3    H233565   7.058   4.665   7.810  0.9792 -0.0549  1.8604
 3124TIP3   OH233566   1.025   0.314   7.512 -0.1948  0.0027  0.0525
 3124TIP3    H133567   1.120   0.319   7.502 -0.1543 -0.1965  0.3386
 3124TIP3    H233568   1.012   0.276   7.599 -0.5312  3.0818  1.5084
 3125TIP3   OH233569   5.967   1.362   6.804  0.0426 -0.5182  0.3168
 3125TIP3    H133570   6.045   1.398   6.847  0.1702 -2.1440  1.5828
 3125TIP3    H233571   6.001   1.292   6.748 -0.1892  1.2282 -2.1232
 3126TIP3   OH233572   6.954   1.826   7.874 -0.2940  0.2949 -0.5078
 3126TIP3    H133573   6.989   1.832   7.963  1.3902 -0.9130 -1.0463
 3126TIP3    H233574   7.029   1.801   7.821 -1.6956 -0.9430 -1.9787
 3127TIP3   OH233575   2.157   2.688   9.257 -0.7039  0.3807  0.5903
 3127TIP3    H133576   2.252   2.701   9.262 -0.1076  1.0172 -5.1626
 3127TIP3    H233577   2.120   2.766   9.298  1.3962  1.4639  0.5753
 3128TIP3   OH233578   3.288   2.519   7.472  0.1397 -0.5407  0.2605
 3128TIP3    H133579   3.347   2.444   7.480  1.1096  0.1105 -0.5414
 3128TIP3    H233580   3.273   2.547   7.562 -1.8781 -2.8930  0.7583
 3129TIP3   OH233581   1.921   5.373   8.055 -0.4461 -0.8051 -0.1495
 3129TIP3    H133582   1.952   5.287   8.025 -1.3279 -0.7321 -1.3099
 3129TIP3    H233583   1.862   5.352   8.128 -2.7255 -1.4438 -2.0514
 3130TIP3   OH233584   1.513   7.367   8.264  0.1809 -0.5242  0.2231
 3130TIP3    H133585   1.571   7.437   8.234 -0.8748  0.1148 -0.4137
 3130TIP3    H233586   1.502   7.311   8.187 -0.5344 -0.2875  0.1447
 3131TIP3   OH233587   1.128   3.606   8.008 -0.1511  0.8813 -0.1613
 3131TIP3    H133588   1.110   3.682   7.953  0.8293  1.1285 -0.1583
 3131TIP3    H233589   1.165   3.643   8.088 -1.8798  0.5553  0.8377
 3132TIP3   OH233590   5.640   5.164   8.695  0.2293  1.0125 -0.4162
 3132TIP3    H133591   5.625   5.208   8.779 -0.8130 -0.5325  0.2379
 3132TIP3    H233592   5.727   5.125   8.703 -0.6274 -0.7906  0.7633
 3133TIP3   OH233593   2.202   5.258   9.484  0.2126 -0.3820  0.1528
 3133TIP3    H133594   2.206   5.349   9.457  2.4666 -0.9645 -1.7851
 3133TIP3    H233595   2.111   5.244   9.510 -0.2317  2.3195  0.2811
 3134TIP3   OH233596   4.117   0.317   6.921  0.4101 -0.0034  0.6684
 3134TIP3    H133597   4.125   0.396   6.975  0.1982  0.6079 -0.1735
 3134TIP3    H233598   4.031   0.281   6.944 -0.7964  1.6217 -1.0011
 3135TIP3   OH233599   3.093   3.728   9.276  0.1032  0.1425  0.1581
 3135TIP3    H133600   3.073   3.638   9.254  1.4423 -0.2376  0.3727
 3135TIP3    H233601   3.011   3.764   9.309 -0.2849 -1.2022  0.7165
 3136TIP3   OH233602   3.384   4.820   8.406 -0.1427  0.4109 -0.2832
 3136TIP3    H133603   3.341   4.814   8.320 -0.8736 -1.5319  0.1737
 3136TIP3    H233604   3.411   4.912   8.412 -1.6919  1.0319 -1.8129
 3137TIP3   OH233605   4.829   7.583   9.003 -0.0990  0.0498  0.1931
 3137TIP3    H133606   4.742   7.546   9.007  0.1460 -0.4921  0.5896
 3137TIP3    H233607   4.868   7.564   9.089  0.3137  0.5184  0.1191
 3138TIP3   OH233608   3.209   1.539   8.309  0.0351 -0.5447 -0.5898
 3138TIP3    H133609   3.117   1.513   8.308  0.1884 -1.3272  1.2776
 3138TIP3    H233610   3.249   1.486   8.378  2.1583 -1.0086 -2.0525
 3139TIP3   OH233611   5.223   6.965   7.621 -0.8766 -0.8664 -0.6989
 3139TIP3    H133612   5.258   6.979   7.710 -2.2956 -1.6293  0.0100
 3139TIP3    H233613   5.210   7.053   7.587 -0.1348 -0.5621 -0.2317
 3140TIP3   OH233614   7.599   5.086   7.394  0.2882 -1.0331 -0.0267
 3140TIP3    H133615   7.633   5.142   7.463 -0.3535 -2.7903  1.8296
 3140TIP3    H233616   7.505   5.079   7.413 -0.4629  0.5335 -2.6872
 3141TIP3   OH233617   5.173   6.616   8.723  0.4036  0.0212 -0.1815
 3141TIP3    H133618   5.143   6.531   8.757  0.5881 -0.1923 -0.5464
 3141TIP3    H233619   5.107   6.642   8.660  0.3433  0.1540 -0.0642
 3142TIP3   OH233620   3.961   0.254   8.095 -0.2364 -0.0447 -0.3300
 3142TIP3    H133621   3.974   0.293   8.181 -0.3355 -2.7456  1.0254
 3142TIP3    H233622   4.023   0.298   8.038 -0.0999  1.7457  1.1198
 3143TIP3   OH233623   5.812   4.707   7.523 -0.5248 -0.0381 -0.5391
 3143TIP3    H133624   5.866   4.642   7.567  2.0036  2.3497  0.1234
 3143TIP3    H233625   5.812   4.680   7.431  1.4821 -0.3922 -0.4797
 3144TIP3   OH233626   3.789   5.207   9.560  0.6393 -0.2120 -0.3035
 3144TIP3    H133627   3.739   5.222   9.480 -0.3708 -1.1139  0.1265
 3144TIP3    H233628   3.838   5.126   9.544  1.2437  0.1622 -0.3782
 3145TIP3   OH233629   6.539   4.405   8.547  0.0309  0.3437 -0.2814
 3145TIP3    H133630   6.533   4.410   8.452  1.3677 -0.5529 -0.4388
 3145TIP3    H233631   6.489   4.481   8.579  1.6128  2.1032 -1.7660
 3146TIP3   OH233632   7.066   7.396   8.530  0.5038  0.1199  0.0194
 3146TIP3    H133633   7.001   7.326   8.543  0.4462 -0.1257 -1.4011
 3146TIP3    H233634   7.150   7.353   8.541  0.4529  0.3143  1.2938
 3147TIP3   OH233635   1.137   6.490   8.423 -0.2238  0.0840 -0.4327
 3147TIP3    H133636   1.081   6.510   8.498 -0.9743 -0.5781 -0.8014
 3147TIP3    H233637   1.095   6.536   8.350  0.5360  0.7761 -0.4526
 3148TIP3   OH233638   5.771   3.540   7.311  0.4996  0.3457 -0.3401
 3148TIP3    H133639   5.685   3.559   7.274 -0.0681 -0.7632  0.3785
 3148TIP3    H233640   5.775   3.445   7.315  1.7389  0.3852 -0.2957
 3149TIP3   OH233641   4.023   6.829   9.680 -0.5119 -0.1463  0.2990
 3149TIP3    H133642   4.062   6.910   9.646 -0.9145  0.1492  0.5271
 3149TIP3    H233643   3.929   6.842   9.669 -0.6976  0.1904  1.9994
 3150TIP3   OH233644   1.097   3.500   8.317  0.7820  0.1839  0.2112
 3150TIP3    H133645   1.172   3.514   8.259  0.4083  0.0613 -0.3064
 3150TIP3    H233646   1.090   3.581   8.367  0.7499  0.5271 -0.3309
 3151TIP3   OH233647   4.193   5.236   9.515  0.0550  0.3576 -0.2047
 3151TIP3    H133648   4.273   5.229   9.463 -0.7585 -2.2062 -1.2785
 3151TIP3    H233649   4.187   5.152   9.561 -2.9751 -0.4086 -1.7218
 3152TIP3   OH233650   5.726   4.422   7.817  0.1538 -0.0865 -0.3167
 3152TIP3    H133651   5.646   4.445   7.770  0.3549  1.7626  0.1486
 3152TIP3    H233652   5.795   4.428   7.751  0.0414 -0.7882 -0.5102
 3153TIP3   OH233653   0.174   7.274   9.145  0.4482 -0.1714 -0.3398
 3153TIP3    H133654   0.223   7.194   9.164 -1.0866 -1.1096 -0.2105
 3153TIP3    H233655   0.112   7.249   9.076 -1.4563  0.3436  1.1157
 3154TIP3   OH233656   5.139   7.229   9.485  0.1752  0.2542 -0.5937
 3154TIP3    H133657   5.175   7.147   9.517  0.5155  0.2972 -0.8644
 3154TIP3    H233658   5.214   7.288   9.479 -0.2986  1.1584  1.2874
 3155TIP3   OH233659   7.663   1.392   7.472 -0.2938 -0.0941 -0.2958
 3155TIP3    H133660   7.684   1.331   7.542 -0.9740 -0.0607 -0.0609
 3155TIP3    H233661   7.603   1.455   7.511  0.4695  0.7997 -0.5048
 3156TIP3   OH233662   0.935   3.546   9.226  0.6099 -0.4690 -0.1550
 3156TIP3    H133663   0.860   3.596   9.258 -1.3390 -1.4114 -2.9570
 3156TIP3    H233664   0.989   3.611   9.181  0.9752  0.0025  0.9061
 3157TIP3   OH233665   7.425   0.449   9.126  0.9108 -0.1744  0.3386
 3157TIP3    H133666   7.416   0.358   9.153  0.2857  0.0646  0.9484
 3157TIP3    H233667   7.432   0.498   9.208 -0.5731  0.5151  0.0846
 3158TIP3   OH233668   4.611   6.336   8.116  0.2375 -0.1879 -0.3580
 3158TIP3    H133669   4.667   6.382   8.054 -1.4686  1.9631 -0.3890
 3158TIP3    H233670   4.670   6.311   8.188  1.1535  2.8507  0.0748
 3159TIP3   OH233671   4.106   3.709   7.755  0.1154 -0.5894  0.3455
 3159TIP3    H133672   4.068   3.789   7.792 -1.4528 -0.7208 -0.8799
 3159TIP3    H233673   4.057   3.638   7.797 -2.1048 -0.7362 -2.1736
 3160TIP3   OH233674   4.654   1.421   8.882 -0.2417  0.0636 -0.0029
 3160TIP3    H133675   4.647   1.325   8.883 -0.2115  0.0611  0.2338
 3160TIP3    H233676   4.670   1.443   8.791 -0.4924 -0.1395 -0.0965
 3161TIP3   OH233677   6.386   6.787   9.052  0.0334  0.5878 -0.9066
 3161TIP3    H133678   6.421   6.847   8.986  0.8191  1.0959 -0.0434
 3161TIP3    H233679   6.446   6.794   9.126 -0.5999 -0.2892 -0.2853
 3162TIP3   OH233680   5.768   7.347   9.412  0.8834  0.2592  0.0351
 3162TIP3    H133681   5.839   7.314   9.357  1.0256  0.1170  0.2995
 3162TIP3    H233682   5.777   7.442   9.408 -0.5274  0.3725 -2.0507
 3163TIP3   OH233683   3.743   5.367   7.385  0.2223  0.1248 -0.8699
 3163TIP3    H133684   3.760   5.297   7.322 -2.2619 -0.8821 -0.5443
 3163TIP3    H233685   3.735   5.446   7.331  0.0554 -0.3763 -1.6028
 3164TIP3   OH233686   5.715   0.400   8.683 -0.6486 -0.1234 -0.1091
 3164TIP3    H133687   5.619   0.400   8.685 -0.7317 -2.7700 -0.1824
 3164TIP3    H233688   5.738   0.326   8.627  1.3968 -0.8606  1.5415
 3165TIP3   OH233689   3.420   6.727   9.417 -0.0425 -0.5774 -0.5526
 3165TIP3    H133690   3.445   6.773   9.497  1.5989 -0.6504 -0.9752
 3165TIP3    H233691   3.330   6.755   9.401 -0.6706 -1.1125  1.6713
 3166TIP3   OH233692   2.604   4.962   9.374 -0.4791  0.0788  0.3944
 3166TIP3    H133693   2.545   4.950   9.299 -0.8459  0.7923  0.5630
 3166TIP3    H233694   2.546   4.964   9.450 -0.6052  3.6314  0.3546
 3167TIP3   OH233695   1.799   3.922   9.035 -0.4861  0.3993 -0.7694
 3167TIP3    H133696   1.873   3.913   8.973  1.2022  2.0794  0.8754
 3167TIP3    H233697   1.833   3.887   9.117 -2.7909 -2.0612 -0.7345
 3168TIP3   OH233698   5.668   5.949   8.579 -0.1909 -0.3811 -0.0815
 3168TIP3    H133699   5.734   5.995   8.630 -1.2648  0.0791  0.9529
 3168TIP3    H233700   5.644   5.873   8.633 -0.8856 -0.2488 -0.1961
 3169TIP3   OH233701   2.068   7.135   6.879  0.9978 -0.0557 -0.2048
 3169TIP3    H133702   1.988   7.174   6.845  0.9770 -1.0646 -1.3769
 3169TIP3    H233703   2.050   7.119   6.972  0.1127  0.4082 -0.2972
 3170TIP3   OH233704   4.892   1.147   8.166  0.4804  0.7103 -0.3341
 3170TIP3    H133705   4.813   1.195   8.193 -0.2836 -0.3239 -0.6369
 3170TIP3    H233706   4.861   1.089   8.097  1.5609  0.4042 -0.5706
 3171TIP3   OH233707   5.612   3.389   7.777  0.4487 -0.1410  0.4059
 3171TIP3    H133708   5.560   3.411   7.855 -2.0381 -0.2174 -1.1436
 3171TIP3    H233709   5.662   3.468   7.760 -0.2118  0.4655  1.1598
 3172TIP3   OH233710   0.710   1.835   9.419  0.3660  0.0034  0.1144
 3172TIP3    H133711   0.796   1.826   9.461  1.7937 -1.6339 -2.8334
 3172TIP3    H233712   0.720   1.909   9.359 -0.1092 -0.4812 -0.5807
 3173TIP3   OH233713   1.686   5.828   7.770 -0.2494  0.4713 -0.3115
 3173TIP3    H133714   1.722   5.802   7.685 -0.6874 -2.3298  0.2537
 3173TIP3    H233715   1.593   5.842   7.752 -0.2728  0.2418 -0.3830
 3174TIP3   OH233716   0.866   3.708   8.659  0.9322  0.0977 -0.6118
 3174TIP3    H133717   0.876   3.800   8.685 -3.6677  1.1231 -1.6347
 3174TIP3    H233718   0.911   3.659   8.727  1.6103  3.0276  1.2401
 3175TIP3   OH233719   0.882   4.594   6.630  0.4217  0.3380  0.1572
 3175TIP3    H133720   0.912   4.649   6.558 -0.4534  3.1397  1.7636
 3175TIP3    H233721   0.886   4.651   6.707  0.4693 -2.2332  2.1983
 3176TIP3   OH233722   7.217   3.049   6.876 -0.2525  0.0431  0.5339
 3176TIP3    H133723   7.288   3.113   6.880 -1.3083  1.3090 -0.0144
 3176TIP3    H233724   7.252   2.977   6.824  0.9624  0.1614  1.1510
 3177TIP3   OH233725   0.366   0.188   9.262 -0.1912 -0.3070  0.4182
 3177TIP3    H133726   0.371   0.122   9.330  0.0351 -1.6643 -0.8688
 3177TIP3    H233727   0.450   0.232   9.265 -0.5253  0.3040  1.6149
 3178TIP3   OH233728   1.063   6.935   8.317 -0.2494 -0.5894 -0.0506
 3178TIP3    H133729   1.143   6.964   8.360 -0.9775  0.0919  0.9070
 3178TIP3    H233730   1.080   6.947   8.223  0.9746 -1.0488  0.0973
 3179TIP3   OH233731   3.571   2.391   9.262 -0.1076 -0.2904  0.4118
 3179TIP3    H133732   3.499   2.428   9.313 -1.0424  0.2379 -1.2174
 3179TIP3    H233733   3.529   2.353   9.185  1.1357 -2.2867  0.6693
 3180TIP3   OH233734   6.341   1.233   7.450 -0.2253  0.6990  0.2167
 3180TIP3    H133735   6.327   1.149   7.407  0.2390  1.1534 -0.8692
 3180TIP3    H233736   6.263   1.248   7.503  0.7797 -1.6518  2.5967
 3181TIP3   OH233737   6.135   3.615   7.879  0.5283 -0.0167 -0.7452
 3181TIP3    H133738   6.190   3.539   7.899  0.5287  0.3743  0.8328
 3181TIP3    H233739   6.074   3.621   7.952  0.1766  1.1764 -1.1128
 3182TIP3   OH233740   4.901   0.696   8.502 -0.2082 -0.0191 -0.2700
 3182TIP3    H133741   4.917   0.788   8.522 -1.1455 -0.2510  1.8396
 3182TIP3    H233742   4.910   0.651   8.586 -2.7297 -1.4107 -0.6271
 3183TIP3   OH233743   7.296   3.883   7.955  0.0964 -0.0565 -0.2025
 3183TIP3    H133744   7.330   3.883   7.866 -0.1270 -1.1441 -0.3038
 3183TIP3    H233745   7.350   3.818   8.001  0.4285  0.7238  0.5498
 3184TIP3   OH233746   2.318   7.653   7.384  0.6634  0.8643  0.5912
 3184TIP3    H133747   2.343   7.669   7.293  1.6168  1.2078  0.9021
 3184TIP3    H233748   2.255   7.581   7.379  1.7502 -0.0662 -0.2262
 3185TIP3   OH233749   2.252   5.609   7.989  0.2300  0.0942 -0.0859
 3185TIP3    H133750   2.244   5.531   7.934 -0.8645 -0.4338  0.7761
 3185TIP3    H233751   2.197   5.674   7.946 -1.7664 -0.7463  1.0436
 3186TIP3   OH233752   3.884   3.317   8.586  0.4555  0.8032 -0.7305
 3186TIP3    H133753   3.839   3.398   8.609 -5.7062 -2.0872 -0.6502
 3186TIP3    H233754   3.896   3.272   8.670 -1.1557 -0.4310 -1.1097
 3187TIP3   OH233755   6.460   3.275   8.268 -0.0820  0.1910 -0.3501
 3187TIP3    H133756   6.486   3.345   8.327 -0.6064  0.6204 -0.6166
 3187TIP3    H233757   6.532   3.268   8.206  0.5164 -0.3305  0.3863
 3188TIP3   OH233758   4.101   3.710   7.289  0.1834  0.3160 -0.1283
 3188TIP3    H133759   4.136   3.747   7.208 -0.7503 -1.1428 -1.2575
 3188TIP3    H233760   4.178   3.688   7.340  1.0174 -1.9441 -2.1460
 3189TIP3   OH233761   1.420   6.031   8.775 -0.5407  0.0318 -0.3001
 3189TIP3    H133762   1.395   6.033   8.683  0.6689  0.0981 -0.6505
 3189TIP3    H233763   1.404   6.120   8.807 -2.0791 -0.2860 -0.1035
 3190TIP3   OH233764   1.636   5.786   9.207  0.2088  0.1146 -0.3917
 3190TIP3    H133765   1.596   5.700   9.221 -1.5507  1.0737  0.9277
 3190TIP3    H233766   1.572   5.848   9.242  2.1974  1.8740  0.3132
 3191TIP3   OH233767   2.843   0.657   8.323 -0.4878  0.1693  0.3528
 3191TIP3    H133768   2.935   0.630   8.315 -0.7703 -0.4491 -1.2481
 3191TIP3    H233769   2.812   0.660   8.233 -1.9646  0.6776  0.8605
 3192TIP3   OH233770   7.180   6.133   7.731  0.2239 -0.2596  0.3422
 3192TIP3    H133771   7.117   6.066   7.761  0.3037  0.0477  1.2421
 3192TIP3    H233772   7.125   6.207   7.707  0.2517  0.5527  2.5220
 3193TIP3   OH233773   5.322   7.528   8.862 -0.1238 -0.2791  0.4771
 3193TIP3    H133774   5.289   7.521   8.952  0.2146  3.1709  1.0089
 3193TIP3    H233775   5.262   7.474   8.810  0.3245 -3.2644  2.8227
 3194TIP3   OH233776   4.276   4.969   8.670  0.0410 -0.8280  0.0093
 3194TIP3    H133777   4.246   4.898   8.726 -2.0730  0.3846  0.5020
 3194TIP3    H233778   4.196   5.013   8.641  1.1361 -0.3007 -2.5491
 3195TIP3   OH233779   2.479   1.901   7.862  0.2981  0.4232  0.5115
 3195TIP3    H133780   2.401   1.955   7.854  0.1073  0.2086  0.8811
 3195TIP3    H233781   2.545   1.959   7.900  0.0504  0.3604  1.0470
 3196TIP3   OH233782   7.678   5.412   8.650  0.1446  0.1043  0.3495
 3196TIP3    H133783   7.672   5.331   8.700 -0.6284  0.0708  0.2128
 3196TIP3    H233784   7.747   5.396   8.586 -0.3194 -0.6252  0.0121
 3197TIP3   OH233785   1.962   6.779   9.333  0.2074  0.3441 -0.2994
 3197TIP3    H133786   2.054   6.755   9.321  0.5465 -0.0254  2.3851
 3197TIP3    H233787   1.922   6.702   9.373 -1.2294  0.6151 -1.1279
 3198TIP3   OH233788   2.746   2.853   8.328 -0.9062  0.0990 -0.7411
 3198TIP3    H133789   2.709   2.767   8.349 -1.7030  0.5438 -0.2666
 3198TIP3    H233790   2.839   2.845   8.350 -0.6594 -1.0813 -2.0587
 3199TIP3   OH233791   4.977   3.659   8.067  0.2932 -0.2167 -0.1538
 3199TIP3    H133792   5.072   3.666   8.075  0.2501  0.1805  0.0319
 3199TIP3    H233793   4.960   3.564   8.065  0.7221 -0.2857 -0.6030
 3200TIP3   OH233794   4.810   0.942   7.944  0.5523  0.1371 -0.4282
 3200TIP3    H133795   4.903   0.923   7.955  0.2418 -1.7251 -0.6515
 3200TIP3    H233796   4.804   0.988   7.861  1.1608 -0.9079 -1.0711
 3201TIP3   OH233797   1.015   7.209   7.313  0.2511 -0.1184  0.9745
 3201TIP3    H133798   1.010   7.122   7.273  0.4137 -0.4959  1.7520
 3201TIP3    H233799   1.083   7.255   7.264 -1.1624  0.2759 -0.7316
 3202TIP3   OH233800   5.832   0.731   8.856  0.0820  0.1425  0.4805
 3202TIP3    H133801   5.767   0.734   8.927 -2.0793 -0.2949 -1.3777
 3202TIP3    H233802   5.878   0.815   8.863 -0.5391  0.4021  1.9366
 3203TIP3   OH233803   5.578   0.242   9.157  0.7885  0.0386  0.4031
 3203TIP3    H133804   5.549   0.159   9.120  0.6191  0.2389  0.0745
 3203TIP3    H233805   5.667   0.253   9.123  0.4508  0.4646 -0.3729
 3204TIP3   OH233806   4.640   1.763   7.497  0.1397 -0.1731 -0.0895
 3204TIP3    H133807   4.692   1.727   7.568  2.7658 -1.3492 -2.4212
 3204TIP3    H233808   4.556   1.716   7.502  0.0473  0.1590  2.4433
 3205TIP3   OH233809   7.582   2.740   7.788  0.2430  0.4372  0.0292
 3205TIP3    H133810   7.617   2.819   7.830  0.5379  1.4647 -1.9981
 3205TIP3    H233811   7.563   2.768   7.698  0.8463 -1.9487 -0.9052
 3206TIP3   OH233812   3.911   6.743   9.072 -0.1509 -0.2536  0.4950
 3206TIP3    H133813   3.998   6.706   9.060  0.2434  0.9471 -0.5733
 3206TIP3    H233814   3.861   6.712   8.997 -0.2373  0.1847  0.3695
 3207TIP3   OH233815   1.889   0.464   6.945  0.3885  0.2502 -0.4448
 3207TIP3    H133816   1.952   0.497   6.881  1.2085 -1.0207 -0.3241
 3207TIP3    H233817   1.884   0.533   7.011  1.9389  0.2358 -0.2746
 3208TIP3   OH233818   6.269   4.713   7.805  0.4234  0.2833  0.0667
 3208TIP3    H133819   6.357   4.675   7.805 -0.0106 -0.7533 -0.0674
 3208TIP3    H233820   6.216   4.650   7.853 -0.1545  1.1541  0.6057
 3209TIP3   OH233821   0.368   1.080   8.073  0.1885  0.4977 -0.5587
 3209TIP3    H133822   0.343   1.168   8.047  0.6598  0.4119 -1.3085
 3209TIP3    H233823   0.361   1.028   7.993  0.3461 -0.0543 -0.2193
 3210TIP3   OH233824   3.054   7.262   7.408 -0.0072 -0.5037 -0.2288
 3210TIP3    H133825   3.000   7.340   7.419  0.1960 -0.1404 -1.6019
 3210TIP3    H233826   3.117   7.266   7.480  0.5911  1.1177 -0.7924
 3211TIP3   OH233827   0.543   7.596   7.838 -0.1214 -0.1169  0.5114
 3211TIP3    H133828   0.452   7.577   7.863 -0.5881  2.5951  1.2344
 3211TIP3    H233829   0.556   7.549   7.756 -2.2569 -0.4707  0.3132
 3212TIP3   OH233830   0.975   2.161   7.803  0.0031 -0.3531  0.0705
 3212TIP3    H133831   0.937   2.107   7.873 -0.8038  0.6196  0.4033
 3212TIP3    H233832   1.019   2.232   7.849 -0.2738  0.1302 -0.4038
 3213TIP3   OH233833   3.047   0.814   7.838  0.6149  0.0412  0.8027
 3213TIP3    H133834   3.030   0.881   7.773 -0.2502  0.7388  1.7117
 3213TIP3    H233835   3.122   0.765   7.804 -0.8606 -0.7531 -1.5690
 3214TIP3   OH233836   1.962   6.092   8.129  0.1923 -0.1688 -0.4624
 3214TIP3    H133837   1.966   6.016   8.071  0.0499 -1.2195  0.8409
 3214TIP3    H233838   2.052   6.101   8.162  0.0568 -0.2376 -0.0626
 3215TIP3   OH233839   2.106   2.273   8.126  0.2401  0.3350 -0.0879
 3215TIP3    H133840   2.147   2.348   8.082  0.4992  0.4235  0.3043
 3215TIP3    H233841   2.046   2.237   8.060  0.0264  0.9576 -0.2422
 3216TIP3   OH233842   4.713   1.015   8.533  0.2082  0.4899 -0.5204
 3216TIP3    H133843   4.805   0.994   8.518 -0.0040 -0.2969 -0.8322
 3216TIP3    H233844   4.678   0.937   8.577  0.1319  1.5889  1.4419
 3217TIP3   OH233845   4.632   3.142   8.499 -0.8390  0.4865  0.4493
 3217TIP3    H133846   4.545   3.131   8.459 -0.3141 -1.1279 -0.3375
 3217TIP3    H233847   4.665   3.224   8.462 -0.9226 -0.2843 -1.4791
 3218TIP3   OH233848   0.668   5.491   8.454 -0.3126 -0.4554  0.1110
 3218TIP3    H133849   0.602   5.534   8.508 -0.3828 -0.2451 -0.1390
 3218TIP3    H233850   0.741   5.475   8.514  0.6456  2.0333 -0.2642
 3219TIP3   OH233851   5.368   2.691   7.644 -0.2510 -0.5946  0.1767
 3219TIP3    H133852   5.369   2.627   7.573 -1.5543 -0.2176 -0.2159
 3219TIP3    H233853   5.431   2.758   7.617  0.0665 -0.9985 -0.0924
 3220TIP3   OH233854   2.008   4.820   8.036 -0.1377 -0.5698 -0.2242
 3220TIP3    H133855   1.958   4.838   8.116  0.4636  3.1323 -0.4757
 3220TIP3    H233856   2.086   4.773   8.067 -0.5473 -0.3767  1.1936
 3221TIP3   OH233857   4.284   4.809   9.294 -0.2639  0.4940  0.4316
 3221TIP3    H133858   4.294   4.854   9.210  0.0291  0.8213  0.6378
 3221TIP3    H233859   4.246   4.725   9.272  0.6419  0.2155 -0.1332
 3222TIP3   OH233860   5.079   2.773   8.706  0.0342  0.2347  0.5494
 3222TIP3    H133861   5.062   2.753   8.798  1.1875  2.2220  1.2645
 3222TIP3    H233862   5.171   2.801   8.704 -0.4860  2.0421 -0.8636
 3223TIP3   OH233863   6.192   1.989   7.662 -0.1020  0.6199 -0.7504
 3223TIP3    H133864   6.280   1.969   7.631  0.3602  0.2481  0.7277
 3223TIP3    H233865   6.147   1.905   7.663  0.7073  0.1260  1.9801
 3224TIP3   OH233866   0.151   2.472   7.911  0.1893  0.2177  0.2256
 3224TIP3    H133867   0.175   2.379   7.904 -1.3728 -0.2772  1.1294
 3224TIP3    H233868   0.137   2.499   7.821  1.8808 -0.0500 -0.1672
 3225TIP3   OH233869   6.502   6.854   9.474  0.3073  0.0362  0.4100
 3225TIP3    H133870   6.546   6.827   9.393  1.1664 -0.7341  1.1221
 3225TIP3    H233871   6.506   6.950   9.472  0.5181  0.0219 -0.3510
 3226TIP3   OH233872   6.326   4.448   9.396  0.2835 -0.1858 -0.9594
 3226TIP3    H133873   6.285   4.466   9.311  1.7560  1.3397 -1.4054
 3226TIP3    H233874   6.322   4.531   9.443  1.7853 -0.2978 -0.5863
 3227TIP3   OH233875   2.785   1.756   8.517 -0.0927 -0.1016 -0.3563
 3227TIP3    H133876   2.749   1.668   8.533  1.4356 -0.8612 -0.9274
 3227TIP3    H233877   2.880   1.744   8.520  0.1486  1.4885 -0.7626
 3228TIP3   OH233878   0.300   6.993   9.019  0.3252 -0.2205 -0.1082
 3228TIP3    H133879   0.237   7.052   8.978  0.9440 -0.8242 -1.9980
 3228TIP3    H233880   0.323   6.930   8.951  0.5956 -1.9467  1.4852
 3229TIP3   OH233881   0.561   3.379   7.813 -0.1347 -0.0611  0.0075
 3229TIP3    H133882   0.507   3.316   7.861  0.0397 -1.7300 -1.8599
 3229TIP3    H233883   0.534   3.369   7.722  0.2788  2.2515 -0.4289
 3230TIP3   OH233884   2.508   5.139   8.076  0.0696  0.2827 -0.9112
 3230TIP3    H133885   2.494   5.159   7.984  0.5614  0.0680 -1.0332
 3230TIP3    H233886   2.600   5.156   8.092 -0.0971  0.7119 -0.3516
 3231TIP3   OH233887   5.432   1.325   9.100 -0.1350  0.2785  0.8359
 3231TIP3    H133888   5.475   1.300   9.182  0.6536  1.4530  0.7960
 3231TIP3    H233889   5.343   1.289   9.108  0.9669 -2.8345  0.6258
 3232TIP3   OH233890   7.558   7.442   6.760 -0.0340 -0.3596  0.3461
 3232TIP3    H133891   7.489   7.468   6.699  0.3597 -0.6909 -0.2607
 3232TIP3    H233892   7.512   7.412   6.838 -0.5907 -0.8516 -0.1651
 3233TIP3   OH233893   6.557   0.122   8.162  0.5475  0.3185  0.0637
 3233TIP3    H133894   6.481   0.152   8.212  1.1505 -2.2198  2.7803
 3233TIP3    H233895   6.629   0.174   8.195  0.6552 -0.1847  0.6468
 3234TIP3   OH233896   4.788   5.510   7.144 -0.0220 -0.3441 -0.4217
 3234TIP3    H133897   4.830   5.595   7.159 -1.3225  0.0504  1.2884
 3234TIP3    H233898   4.812   5.459   7.221  0.8725 -1.6153 -1.5057
 3235TIP3   OH233899   3.933   2.572   7.549  0.6915 -0.2488  0.1540
 3235TIP3    H133900   3.996   2.631   7.507  0.7651  0.6913  1.5122
 3235TIP3    H233901   3.856   2.627   7.563  0.5776 -0.6109  0.9871
 3236TIP3   OH233902   1.685   7.106   8.229  0.3074  0.3859  0.3220
 3236TIP3    H133903   1.681   7.078   8.321  1.9336 -1.6018 -0.1388
 3236TIP3    H233904   1.707   7.199   8.234 -0.6208  0.5553  1.9379
 3237TIP3   OH233905   6.654   3.751   7.027 -0.0503 -0.2365  0.9417
 3237TIP3    H133906   6.576   3.777   7.076 -1.4026 -0.8847 -0.7725
 3237TIP3    H233907   6.622   3.731   6.939  2.2934  1.1644 -0.3580
 3238TIP3   OH233908   1.608   3.189   7.596 -0.2429  0.1706 -0.7409
 3238TIP3    H133909   1.670   3.153   7.660  0.1617  1.1763 -0.5458
 3238TIP3    H233910   1.579   3.272   7.635 -2.5626 -0.7507 -0.3093
 3239TIP3   OH233911   0.104   3.638   7.491 -0.1338 -0.5737  0.1747
 3239TIP3    H133912   0.133   3.552   7.458  0.2486  0.3587 -2.0929
 3239TIP3    H233913   0.184   3.679   7.524 -0.0508 -0.5200 -0.0931
 3240TIP3   OH233914   2.138   3.969   7.367  0.1175  0.1394  0.3933
 3240TIP3    H133915   2.179   3.959   7.453  2.6256 -0.3144 -0.7346
 3240TIP3    H233916   2.201   4.021   7.317 -1.6381  1.0547 -0.9617
 3241TIP3   OH233917   1.403   2.334   9.360 -0.1836 -0.0618 -0.6046
 3241TIP3    H133918   1.356   2.342   9.277  0.5833  1.0530 -0.9643
 3241TIP3    H233919   1.427   2.424   9.382  0.5612 -0.4603  0.2746
 3242TIP3   OH233920   5.596   1.189   9.319 -0.5336  0.1901  0.1512
 3242TIP3    H133921   5.549   1.106   9.329  0.9750 -0.8204 -0.6692
 3242TIP3    H233922   5.671   1.167   9.264  0.0538  2.0608  0.1408
 3243TIP3   OH233923   1.816   0.599   8.156  0.4905  0.1517 -0.4844
 3243TIP3    H133924   1.833   0.675   8.102 -1.6202 -0.4429 -2.1271
 3243TIP3    H233925   1.787   0.635   8.240 -1.6316  1.2494 -1.6133
 3244TIP3   OH233926   2.536   2.764   7.796 -0.0122  0.5235 -0.3908
 3244TIP3    H133927   2.567   2.699   7.859  1.3435 -1.4507 -2.9034
 3244TIP3    H233928   2.457   2.726   7.758  0.0797  0.9252 -1.0060
 3245TIP3   OH233929   7.324   5.516   8.426 -0.1380  0.1101 -0.1501
 3245TIP3    H133930   7.243   5.468   8.444 -0.2653 -0.0759 -1.1550
 3245TIP3    H233931   7.300   5.608   8.437  0.6211 -0.0304  3.8587
 3246TIP3   OH233932   4.590   6.387   6.965 -0.4521  0.0575  0.2747
 3246TIP3    H133933   4.593   6.356   6.874 -0.3418  1.1580 -0.1065
 3246TIP3    H233934   4.681   6.403   6.989 -0.5660  0.9389  0.1560
 3247TIP3   OH233935   5.229   3.213   9.034  0.4504  0.2170  0.4879
 3247TIP3    H133936   5.319   3.198   9.003  0.2245 -1.5621  0.5693
 3247TIP3    H233937   5.174   3.199   8.957  0.0761 -1.5817  1.0322
 3248TIP3   OH233938   0.964   4.599   9.201 -0.0903 -0.1298 -0.2864
 3248TIP3    H133939   0.928   4.549   9.274  0.7540  0.2605  0.4157
 3248TIP3    H233940   0.912   4.680   9.199  1.6006  1.1224  1.6888
 3249TIP3   OH233941   1.568   1.798   7.273 -0.1328 -0.2906 -0.7908
 3249TIP3    H133942   1.584   1.705   7.283 -1.4296 -0.4648 -0.1329
 3249TIP3    H233943   1.478   1.804   7.241  0.0706  0.7227 -1.2240
 3250TIP3   OH233944   4.350   5.294   8.086 -0.6693 -0.3126 -0.0917
 3250TIP3    H133945   4.391   5.301   8.172  1.0640  0.2934 -0.9405
 3250TIP3    H233946   4.362   5.202   8.061 -0.1113 -0.2104 -0.1986
 3251TIP3   OH233947   6.793   0.882   8.175 -0.0189  0.4164 -0.7560
 3251TIP3    H133948   6.818   0.970   8.203 -1.0484 -0.0211  1.7242
 3251TIP3    H233949   6.861   0.825   8.210  0.8150  0.1851 -2.6219
 3252TIP3   OH233950   7.662   5.051   7.865  0.4128 -0.4075  0.2499
 3252TIP3    H133951   7.657   4.985   7.933 -0.6752  0.7447  1.3371
 3252TIP3    H233952   7.664   5.002   7.783 -2.7026 -1.7889  0.8879
 3253TIP3   OH233953   6.958   5.988   7.886  0.1031 -0.2352 -0.6512
 3253TIP3    H133954   6.936   5.898   7.911  0.3061 -0.3492 -0.8703
 3253TIP3    H233955   6.982   6.031   7.968  1.7818 -0.8946 -0.7585
 3254TIP3   OH233956   5.373   6.813   6.816  0.5767  0.1669  0.3262
 3254TIP3    H133957   5.350   6.721   6.810 -0.2363  0.3777  0.1007
 3254TIP3    H233958   5.293   6.860   6.792  1.2277  0.9250 -0.4289
 3255TIP3   OH233959   6.151   6.607   9.005  0.6790 -0.5569 -0.1017
 3255TIP3    H133960   6.213   6.546   8.964  1.4502 -1.3576  2.1064
 3255TIP3    H233961   6.204   6.682   9.030  0.1141  0.1537 -0.9739
 3256TIP3   OH233962   7.265   6.321   7.527 -0.2756 -0.4017  0.0668
 3256TIP3    H133963   7.237   6.242   7.573 -3.6179  1.1706  1.0699
 3256TIP3    H233964   7.216   6.320   7.445 -0.5840  0.7209  0.2162
 3257TIP3   OH233965   3.165   1.469   8.005  0.5692  0.8262 -0.3986
 3257TIP3    H133966   3.218   1.545   8.030  1.1214 -0.1700  1.7442
 3257TIP3    H233967   3.228   1.396   8.003 -0.5383 -0.2872  1.6501
 3258TIP3   OH233968   1.592   7.581   8.121 -0.4488 -0.1923  0.4319
 3258TIP3    H133969   1.582   7.673   8.094  0.6042 -0.2773 -0.2960
 3258TIP3    H233970   1.544   7.532   8.055 -3.2497 -0.0741  2.2150
 3259TIP3   OH233971   0.732   4.754   8.057 -0.2976 -0.5893  0.5706
 3259TIP3    H133972   0.744   4.691   7.987 -0.3422 -0.0754  0.0897
 3259TIP3    H233973   0.731   4.839   8.012 -0.1500 -0.2455  1.2115
 3260TIP3   OH233974   2.233   6.873   7.947 -0.2630  0.0777  0.1751
 3260TIP3    H133975   2.299   6.803   7.958  1.3841  1.4687 -0.3702
 3260TIP3    H233976   2.180   6.867   8.026  2.1656  0.5163  1.9705
 3261TIP3   OH233977   2.132   6.201   7.380  0.5839  0.0529  0.0256
 3261TIP3    H133978   2.136   6.202   7.285 -1.2259 -0.2557 -0.0850
 3261TIP3    H233979   2.040   6.185   7.400  0.6090  1.7140  1.8291
 3262TIP3   OH233980   3.675   0.166   8.450 -0.1736  0.3071 -0.7569
 3262TIP3    H133981   3.762   0.126   8.446 -1.2149 -2.4244  0.7290
 3262TIP3    H233982   3.624   0.119   8.385 -0.9982  0.5346 -0.2927
 3263TIP3   OH233983   4.464   6.722   7.696  0.1672  0.4622 -0.9119
 3263TIP3    H133984   4.530   6.719   7.628  0.2612 -1.2901 -0.8052
 3263TIP3    H233985   4.402   6.652   7.673  2.7169 -3.6987  3.1109
 3264TIP3   OH233986   5.777   0.579   7.898  0.1956  0.6582  0.1239
 3264TIP3    H133987   5.838   0.632   7.950  0.1358  0.3890  0.4704
 3264TIP3    H233988   5.697   0.632   7.893 -0.2899  0.1046  1.4957
 3265TIP3   OH233989   6.205   0.982   8.872 -0.5648 -0.6430 -0.1286
 3265TIP3    H133990   6.227   1.027   8.954  1.3939 -1.2153 -0.2837
 3265TIP3    H233991   6.240   1.039   8.803  0.4681 -1.5540 -0.3975
 3266TIP3   OH233992   7.585   5.632   8.365 -0.1643 -0.1746 -0.0028
 3266TIP3    H133993   7.500   5.608   8.401 -0.4460 -0.9064 -1.0969
 3266TIP3    H233994   7.611   5.556   8.314  1.1056  0.0857  0.2285
 3267TIP3   OH233995   0.722   0.256   8.296  0.7311 -0.0488 -0.0675
 3267TIP3    H133996   0.738   0.290   8.208  2.1704 -0.2804  0.0840
 3267TIP3    H233997   0.670   0.324   8.339  1.0628  0.6129 -0.6990
 3268TIP3   OH233998   1.197   5.460   8.662  0.7159 -0.8640  0.0493
 3268TIP3    H133999   1.170   5.401   8.732 -1.1066 -0.8113 -0.5452
 3268TIP3    H234000   1.242   5.532   8.706  0.6533 -1.4162  1.0332
 3269TIP3   OH234001   5.869   7.582   8.436 -0.3858  0.0299  0.4240
 3269TIP3    H134002   5.887   7.535   8.517  1.8388 -0.9785 -0.5563
 3269TIP3    H234003   5.837   7.514   8.376  1.1425  0.0490 -0.4723
 3270TIP3   OH234004   2.926   1.190   7.096 -0.4201 -0.1797 -0.2934
 3270TIP3    H134005   2.847   1.244   7.099 -0.4098 -0.0988 -1.3511
 3270TIP3    H234006   2.899   1.106   7.133 -1.1800 -0.3637 -1.2355
 3271TIP3   OH234007   4.617   7.020   7.465 -0.0390  0.0754  0.0082
 3271TIP3    H134008   4.697   7.020   7.518 -0.0214  1.5873  0.0315
 3271TIP3    H234009   4.556   7.076   7.514 -1.0947 -0.9639 -0.0615
 3272TIP3   OH234010   1.517   2.887   6.798 -0.1261 -0.0932  0.1922
 3272TIP3    H134011   1.545   2.796   6.787 -1.3296 -0.4829  0.2256
 3272TIP3    H234012   1.427   2.881   6.828  0.1871  1.1010  1.4822
 3273TIP3   OH234013   5.913   5.072   8.734  0.2455  0.7084  0.0791
 3273TIP3    H134014   5.960   5.149   8.702  1.7877 -0.4765 -0.6979
 3273TIP3    H234015   5.974   5.000   8.718 -1.8401 -0.9310 -0.9002
 3274TIP3   OH234016   5.949   2.771   8.019 -0.3410  0.9179  0.1728
 3274TIP3    H134017   5.995   2.708   8.076 -1.0317  0.8671  0.6868
 3274TIP3    H234018   6.006   2.848   8.017  0.8584  0.0433 -1.0261
 3275TIP3   OH234019   2.255   6.023   8.957 -0.0261 -0.2235 -0.2966
 3275TIP3    H134020   2.247   5.929   8.941  0.4020 -0.5121  1.1296
 3275TIP3    H234021   2.166   6.057   8.944 -0.2797 -0.8897 -0.3487
 3276TIP3   OH234022   0.869   5.243   7.866 -0.3060 -0.6775  0.0327
 3276TIP3    H134023   0.839   5.262   7.778 -1.2767 -0.1388  0.4648
 3276TIP3    H234024   0.813   5.171   7.896 -0.2730 -0.5689  0.3625
 3277TIP3   OH234025   1.259   4.817   8.367 -0.3495 -0.3643 -0.6900
 3277TIP3    H134026   1.195   4.788   8.303 -0.8606  0.4351 -0.5570
 3277TIP3    H234027   1.340   4.826   8.318 -0.9323  1.0926 -1.4441
 3278TIP3   OH234028   0.249   5.031   7.174  0.2192 -0.1783 -0.0408
 3278TIP3    H134029   0.240   4.965   7.106  2.1561  0.1500 -0.6710
 3278TIP3    H234030   0.332   5.011   7.217 -0.9052 -0.3196  2.1981
 3279TIP3   OH234031   3.435   5.282   9.030 -0.8264  0.6221  0.5619
 3279TIP3    H134032   3.501   5.320   9.087 -0.1076 -0.1531  0.2598
 3279TIP3    H234033   3.475   5.284   8.943 -0.9817 -0.3532  0.4628
 3280TIP3   OH234034   1.248   5.374   8.385  0.0980 -0.2593  0.1494
 3280TIP3    H134035   1.163   5.353   8.347 -0.6548  0.3831  1.3917
 3280TIP3    H234036   1.229   5.393   8.477  1.3148  1.7258  0.0468
 3281TIP3   OH234037   5.033   6.387   9.695 -0.4290  0.0801  0.3197
 3281TIP3    H134038   5.074   6.460   9.649  0.1969  0.7756  1.9062
 3281TIP3    H234039   4.945   6.380   9.656  0.0023  0.7232 -0.8244
 3282TIP3   OH234040   4.739   0.020   7.828 -0.6235  0.2223 -0.6769
 3282TIP3    H134041   4.669  -0.005   7.888 -0.7606  1.1007 -0.4596
 3282TIP3    H234042   4.814  -0.034   7.855 -1.0431 -0.2934 -0.5332
 3283TIP3   OH234043   6.204   2.628   7.197  0.0333  0.3674  0.2648
 3283TIP3    H134044   6.122   2.579   7.191 -0.1336  0.2886  2.4596
 3283TIP3    H234045   6.178   2.719   7.178  0.0274 -0.0475 -2.0048
 3284TIP3   OH234046   0.264   1.122   8.812  0.0374  0.0676 -0.0556
 3284TIP3    H134047   0.335   1.059   8.808  0.1898 -0.0176  2.5238
 3284TIP3    H234048   0.303   1.205   8.782  1.3999  0.1242  1.7452
 3285TIP3   OH234049   1.234   7.465   8.222  0.0861  0.3822 -0.2469
 3285TIP3    H134050   1.213   7.556   8.242 -0.6169  0.3940 -0.9945
 3285TIP3    H234051   1.330   7.463   8.217  0.2281  0.6729  1.6043
 3286TIP3   OH234052   3.119   6.207   9.513  0.2038  0.1446  0.5435
 3286TIP3    H134053   3.026   6.211   9.538  0.4291  1.5249  1.2196
 3286TIP3    H234054   3.145   6.117   9.534 -0.7842 -0.0362  1.0629
 3287TIP3   OH234055   2.723   5.183   6.855  0.1928 -0.3777 -0.3867
 3287TIP3    H134056   2.769   5.236   6.790  0.0724 -0.0418 -0.2031
 3287TIP3    H234057   2.733   5.093   6.825 -1.3862 -0.1094 -1.8451
 3288TIP3   OH234058   3.252   5.705   7.018 -0.1130  0.5144  0.4915
 3288TIP3    H134059   3.158   5.690   7.026 -0.3664  2.5053  2.8487
 3288TIP3    H234060   3.259   5.786   6.967  0.3999 -0.2330 -0.6409
 3289TIP3   OH234061   0.733   5.056   8.249  0.1152  0.2096  0.6667
 3289TIP3    H134062   0.677   5.050   8.171  0.2585 -0.3098  0.6012
 3289TIP3    H234063   0.678   5.098   8.315 -0.1452  0.2682  0.4140
 3290TIP3   OH234064   2.911   5.547   8.474  0.1874 -0.6407 -0.2920
 3290TIP3    H134065   2.870   5.555   8.388  2.5011  0.5364 -1.3601
 3290TIP3    H234066   2.982   5.611   8.474  0.6752 -1.0442  2.2815
 3291TIP3   OH234067   5.695   6.652   8.381  0.1114  0.1116 -0.1025
 3291TIP3    H134068   5.625   6.684   8.324  0.7930  2.1852  0.1600
 3291TIP3    H234069   5.650   6.627   8.462 -0.4505  0.3510 -0.3324
 3292TIP3   OH234070   0.101   3.446   9.147  0.2952  0.2079 -0.2525
 3292TIP3    H134071   0.070   3.360   9.175  1.3505 -0.2100 -0.3407
 3292TIP3    H234072   0.042   3.471   9.076 -0.4902 -0.0989  0.2829
 3293TIP3   OH234073   0.605   0.668   8.155  0.3018  0.2022  0.7112
 3293TIP3    H134074   0.662   0.639   8.084 -0.1981  0.7675  0.0667
 3293TIP3    H234075   0.632   0.758   8.173 -1.7046  1.2396 -1.0268
 3294TIP3   OH234076   5.230   5.053   7.183  0.2460 -0.3262 -0.3730
 3294TIP3    H134077   5.173   5.130   7.191  1.6465  0.5249  3.1598
 3294TIP3    H234078   5.287   5.074   7.109 -0.5089  1.2328 -0.5697
 3295TIP3   OH234079   2.590   6.559   7.728  0.1879  0.4542 -0.2317
 3295TIP3    H134080   2.665   6.608   7.761 -0.0191  0.3953  0.3325
 3295TIP3    H234081   2.604   6.556   7.633  2.0395 -1.3656  0.0139
 3296TIP3   OH234082   2.406   3.604   7.874 -0.1575  0.0732  0.1523
 3296TIP3    H134083   2.396   3.532   7.811  0.3091 -0.3305  0.5216
 3296TIP3    H234084   2.488   3.583   7.920 -2.1692 -1.5974  3.3540
 3297TIP3   OH234085   5.562   2.293   7.185 -0.1526  0.8447 -0.4679
 3297TIP3    H134086   5.641   2.309   7.133 -0.3688  1.5521 -0.5847
 3297TIP3    H234087   5.509   2.372   7.174 -0.6413  0.5970  0.0427
 3298TIP3   OH234088   0.684   7.063   8.341 -0.1660  0.6742  0.8448
 3298TIP3    H134089   0.653   7.118   8.413  1.4883  1.2220  1.1703
 3298TIP3    H234090   0.744   7.119   8.292 -0.9297  0.1691 -0.7436
 3299TIP3   OH234091   0.465   5.606   9.164  0.4726 -0.6171  0.0038
 3299TIP3    H134092   0.559   5.617   9.181  0.8383 -2.3943 -0.6573
 3299TIP3    H234093   0.457   5.608   9.069  0.0287 -1.6750  0.0045
 3300TIP3   OH234094   0.381   3.154   6.394 -0.2631 -0.2109 -0.4527
 3300TIP3    H134095   0.399   3.183   6.305 -0.8219  1.6128 -0.0147
 3300TIP3    H234096   0.325   3.077   6.384 -2.5099  1.4575 -1.7088
 3301TIP3   OH234097   6.477   1.765   9.133 -0.1161  0.3187 -0.3326
 3301TIP3    H134098   6.422   1.817   9.192 -0.2439  1.1570 -1.1773
 3301TIP3    H234099   6.431   1.766   9.049  1.7747  2.1066 -1.4329
 3302TIP3   OH234100   3.214   0.103   8.707  0.3447 -0.0923 -0.1299
 3302TIP3    H134101   3.145   0.157   8.670  0.6325  1.2316  1.1935
 3302TIP3    H234102   3.294   0.133   8.662  0.1997 -1.1323 -1.1422
 3303TIP3   OH234103   6.340   6.008   9.320  0.0955 -0.3285  0.3896
 3303TIP3    H134104   6.431   5.984   9.341  0.8824  2.1437  0.0590
 3303TIP3    H234105   6.324   6.087   9.371 -2.5171 -1.6264  1.7697
 3304TIP3   OH234106   4.754   0.658   9.055 -0.0529 -0.3278 -0.2774
 3304TIP3    H134107   4.790   0.643   9.142  0.7629 -0.2143 -0.5906
 3304TIP3    H234108   4.697   0.735   9.065  0.5972  0.1213  0.0017
 3305TIP3   OH234109   4.033   4.912   8.134 -0.4047 -0.0907  0.2399
 3305TIP3    H134110   4.046   5.004   8.113 -1.1153  0.5039  2.1977
 3305TIP3    H234111   4.119   4.872   8.123 -0.3620  0.4839 -1.9295
 3306TIP3   OH234112   3.321   0.421   8.243  0.1054 -0.0305 -0.1611
 3306TIP3    H134113   3.307   0.515   8.245  2.2864  0.3479 -0.9465
 3306TIP3    H234114   3.290   0.394   8.156  0.6192  0.1641 -0.4055
 3307TIP3   OH234115   2.949   3.234   9.117  0.1885  0.5585 -0.0296
 3307TIP3    H134116   2.935   3.188   9.034 -0.6902  0.4513  0.1656
 3307TIP3    H234117   2.901   3.181   9.182  1.4656  0.2254  0.6906
 3308TIP3   OH234118   1.965   1.584   8.285  0.1408  0.3859  0.8735
 3308TIP3    H134119   1.943   1.543   8.201  2.3871  1.3769 -0.2744
 3308TIP3    H234120   1.883   1.582   8.335 -0.4837 -3.2542 -0.0098
 3309TIP3   OH234121   4.274   2.583   8.015 -0.0999  0.1751  1.2508
 3309TIP3    H134122   4.196   2.555   7.968  0.4141 -0.0647  0.5305
 3309TIP3    H234123   4.309   2.655   7.963  0.2805  0.1375  1.4493
 3310TIP3   OH234124   2.391   4.799   8.298 -0.1937 -0.4886  0.0316
 3310TIP3    H134125   2.392   4.894   8.286 -0.7355 -0.5377 -0.4466
 3310TIP3    H234126   2.402   4.787   8.393 -0.8099  0.0779  0.1818
 3311TIP3   OH234127   5.508   0.498   9.227 -0.2478  0.2015 -0.3046
 3311TIP3    H134128   5.581   0.530   9.281 -0.1380 -0.9418  0.2554
 3311TIP3    H234129   5.531   0.408   9.207 -1.0985  0.0993 -0.8832
 3312TIP3   OH234130   6.649   2.479   7.804  0.5465  0.4457  0.1617
 3312TIP3    H134131   6.661   2.557   7.749 -5.1016  0.6902 -1.3216
 3312TIP3    H234132   6.576   2.502   7.861  0.1569 -3.0642  1.2873
 3313TIP3   OH234133   6.807   5.810   7.533  0.3208  0.3574  0.5340
 3313TIP3    H134134   6.748   5.754   7.583  1.5576 -0.9795  0.5408
 3313TIP3    H234135   6.754   5.838   7.458 -0.7161  0.2565  1.1960
 3314TIP3   OH234136   7.676   6.363   7.321 -0.0993 -0.4241  0.0124
 3314TIP3    H134137   7.619   6.340   7.395  0.4532 -1.1027  0.2314
 3314TIP3    H234138   7.765   6.350   7.354  0.1527 -0.6028 -0.7297
 3315TIP3   OH234139   0.457   0.756   8.486 -0.2578 -0.0434  0.0634
 3315TIP3    H134140   0.552   0.747   8.482 -0.2721 -0.7316  0.9635
 3315TIP3    H234141   0.441   0.848   8.468  0.3988 -0.3381 -2.4556
 3316TIP3   OH234142   1.482   5.663   7.436 -0.1153  0.0171 -0.3064
 3316TIP3    H134143   1.547   5.732   7.449 -0.1335 -0.1219  0.5570
 3316TIP3    H234144   1.497   5.601   7.508 -0.3144 -0.7167 -0.8758
 3317TIP3   OH234145   2.735   1.907   8.748 -0.3238 -0.1712 -0.7069
 3317TIP3    H134146   2.826   1.927   8.729  0.2201 -1.3605  0.4654
 3317TIP3    H234147   2.711   1.838   8.685 -0.0818 -0.5823 -0.3550
 3318TIP3   OH234148   5.934   5.236   8.010  0.4592  0.4271 -0.4654
 3318TIP3    H134149   5.962   5.326   8.029  0.7461  0.0256  1.2289
 3318TIP3    H234150   5.994   5.206   7.942  2.6252  0.4617  1.2733
 3319TIP3   OH234151   6.241   5.266   7.323 -0.0339  0.5097 -0.7087
 3319TIP3    H134152   6.152   5.247   7.353  0.0317  1.6396  0.2419
 3319TIP3    H234153   6.283   5.180   7.319 -0.0281  0.2216  2.5544
 3320TIP3   OH234154   5.551   7.160   9.463  0.1239  0.0579  0.1154
 3320TIP3    H134155   5.634   7.205   9.448  0.1811 -0.6640 -2.0012
 3320TIP3    H234156   5.486   7.230   9.469  0.1433  0.5845 -3.5195
 3321TIP3   OH234157   4.874   6.272   6.634 -0.0834 -0.1772  0.1037
 3321TIP3    H134158   4.917   6.189   6.613 -0.7014 -0.0039 -1.9977
 3321TIP3    H234159   4.945   6.328   6.666  0.7913 -0.7176 -0.8480
 3322TIP3   OH234160   3.310   0.198   7.658 -0.0204  0.3627  0.5705
 3322TIP3    H134161   3.335   0.228   7.570 -0.1745 -0.4190  0.2544
 3322TIP3    H234162   3.374   0.240   7.716 -0.2722  1.3556  0.1560
 3323TIP3   OH234163   3.557   2.942   7.694 -0.1710  0.0221  0.3474
 3323TIP3    H134164   3.635   2.902   7.733  0.7807  2.3448  1.0117
 3323TIP3    H234165   3.560   2.916   7.602  0.0358 -1.8850  0.8621
 3324TIP3   OH234166   4.848   6.234   9.245  0.0571 -0.2256  0.1592
 3324TIP3    H134167   4.833   6.257   9.337 -0.7977 -1.0941  0.2553
 3324TIP3    H234168   4.841   6.138   9.244  0.1908 -0.2287 -0.7988
 3325TIP3   OH234169   3.280   7.081   8.194 -0.0716  0.3212  0.5165
 3325TIP3    H134170   3.341   7.151   8.169  0.0670 -0.1245 -0.4341
 3325TIP3    H234171   3.335   7.017   8.240  0.1785 -0.0287 -0.2458
 3326TIP3   OH234172   6.896   3.381   7.724  0.1322 -0.4196 -0.5299
 3326TIP3    H134173   6.910   3.441   7.797 -0.1138 -0.3847 -0.5106
 3326TIP3    H234174   6.855   3.435   7.656 -0.6740 -0.7047 -0.2815
 3327TIP3   OH234175   7.192   6.118   7.320 -0.1624 -0.1007  0.2646
 3327TIP3    H134176   7.182   6.038   7.269 -1.0872 -0.4284  0.9304
 3327TIP3    H234177   7.102   6.144   7.342  0.1910  0.1218  1.5675
 3328TIP3   OH234178   0.603   4.663   8.291 -0.1676 -0.0443 -0.6189
 3328TIP3    H134179   0.642   4.704   8.214 -0.3014  2.0618  0.3548
 3328TIP3    H234180   0.536   4.604   8.256  1.7975 -1.4874 -2.1940
 3329TIP3   OH234181   7.060   6.563   8.402 -0.1695 -0.1780  0.0680
 3329TIP3    H134182   7.102   6.481   8.377 -0.1211  0.3014 -1.5504
 3329TIP3    H234183   7.115   6.631   8.365 -0.8460  0.5503  0.3605
 3330TIP3   OH234184   1.884   3.864   8.468 -0.1446  0.0951 -0.1251
 3330TIP3    H134185   1.845   3.931   8.524  0.0802  0.6261 -0.5851
 3330TIP3    H234186   1.930   3.914   8.400 -1.0011 -0.5181 -1.1910
 3331TIP3   OH234187   6.882   7.043   9.270  0.6857 -0.0282 -0.7437
 3331TIP3    H134188   6.877   7.060   9.364  1.1476  1.0527 -0.9104
 3331TIP3    H234189   6.925   6.958   9.264  1.0036  0.0742  0.0112
 3332TIP3   OH234190   0.273   7.434   8.897  0.5731 -0.4467  0.1173
 3332TIP3    H134191   0.250   7.372   8.966  1.0757 -0.8594 -0.0802
 3332TIP3    H234192   0.352   7.477   8.929 -0.6225  1.2446  0.9682
 3333TIP3   OH234193   3.783   0.217   9.580 -0.4194 -0.0118  0.0314
 3333TIP3    H134194   3.852   0.280   9.600  2.2973 -2.4850 -0.8580
 3333TIP3    H234195   3.703   0.258   9.613  1.7982  1.8025  3.8229
 3334TIP3   OH234196   5.270   1.028   8.949 -0.4234 -0.5009  0.0322
 3334TIP3    H134197   5.297   1.098   8.889  1.1671 -1.3768 -0.3205
 3334TIP3    H234198   5.348   1.011   9.003 -1.3087 -0.8738  1.2391
 3335TIP3   OH234199   2.349   2.470   7.504  0.1377 -0.9517  0.6051
 3335TIP3    H134200   2.410   2.486   7.432 -1.0099  0.0176 -0.1883
 3335TIP3    H234201   2.273   2.428   7.462 -1.0346  0.6635  1.0264
 3336TIP3   OH234202   3.519   7.635   7.863 -0.3807  0.1495  0.1607
 3336TIP3    H134203   3.445   7.614   7.807 -0.0217 -1.6016  0.2890
 3336TIP3    H234204   3.569   7.701   7.814 -1.8419  1.1665 -0.0372
 3337TIP3   OH234205   0.216   2.615   9.283  0.9069 -0.0533  0.4426
 3337TIP3    H134206   0.191   2.590   9.194  0.2515 -1.0417  0.8850
 3337TIP3    H234207   0.248   2.705   9.275  1.0648 -0.2051 -0.8201
 3338TIP3   OH234208   3.386   6.983   6.772  0.1371 -0.3650 -0.3780
 3338TIP3    H134209   3.393   7.078   6.760 -0.7054 -0.0091  1.6117
 3338TIP3    H234210   3.417   6.947   6.689 -1.8003  1.6865 -2.1493
 3339TIP3   OH234211   7.485   0.298   7.314  0.2236 -0.0352 -0.3797
 3339TIP3    H134212   7.488   0.337   7.227 -0.3347  0.7692 -0.0446
 3339TIP3    H234213   7.409   0.337   7.356  0.6803 -0.1570  0.5950
 3340TIP3   OH234214   6.821   4.148   8.922  0.6380  0.2170 -0.4862
 3340TIP3    H134215   6.789   4.101   8.999  0.4492 -0.3291 -0.8911
 3340TIP3    H234216   6.884   4.088   8.882 -2.5425 -1.6212 -3.3430
 3341TIP3   OH234217   5.502   7.242   8.984  0.0015  0.1638  0.3859
 3341TIP3    H134218   5.416   7.283   8.997 -0.2002 -0.4857  1.1962
 3341TIP3    H234219   5.483   7.154   8.954  0.2789 -0.6650  2.4440
 3342TIP3   OH234220   7.139   4.811   7.511  0.3821  0.5341  0.1033
 3342TIP3    H134221   7.222   4.825   7.557  0.6599 -1.0631  0.1201
 3342TIP3    H234222   7.075   4.861   7.563  0.8746 -0.3950  1.6766
 3343TIP3   OH234223   2.676   3.603   6.643  0.9928 -0.2526 -0.5269
 3343TIP3    H134224   2.594   3.648   6.661  0.0556 -1.6703 -1.0981
 3343TIP3    H234225   2.738   3.673   6.623 -0.1635  0.8172 -0.4880
 3344TIP3   OH234226   6.147   2.850   8.902 -0.4592 -0.2521 -0.3936
 3344TIP3    H134227   6.120   2.759   8.894 -0.9421 -0.1484  0.0512
 3344TIP3    H234228   6.133   2.887   8.815 -1.0525 -0.3877 -0.3568
 3345TIP3   OH234229   5.746   5.519   8.077  0.5851  0.4446  0.8324
 3345TIP3    H134230   5.745   5.529   8.172  0.2390  0.9936  0.7761
 3345TIP3    H234231   5.778   5.603   8.045  0.4066  0.3671  0.4501
 3346TIP3   OH234232   0.888   5.450   8.885  0.1069 -0.3327  0.2274
 3346TIP3    H134233   0.965   5.396   8.867  0.6128  0.4289  0.0519
 3346TIP3    H234234   0.900   5.482   8.974  0.7723  1.0151 -0.3200
 3347TIP3   OH234235   0.280   5.773   8.283  0.6012  0.7042  0.0702
 3347TIP3    H134236   0.248   5.724   8.359  0.1052 -0.4590 -0.8496
 3347TIP3    H234237   0.352   5.719   8.249 -0.2113  0.3669 -1.1958
 3348TIP3   OH234238   2.413   2.495   8.159 -0.0052  0.3948 -0.1762
 3348TIP3    H134239   2.386   2.581   8.191  0.7421  0.4374  0.3604
 3348TIP3    H234240   2.342   2.468   8.100 -0.8895  0.7900  0.6720
 3349TIP3   OH234241   3.724   2.433   8.868  0.1844 -0.1669 -0.1861
 3349TIP3    H134242   3.726   2.528   8.876  2.7067  0.4778 -5.1188
 3349TIP3    H234243   3.632   2.411   8.883 -0.4034  2.8475  1.6603
 3350TIP3   OH234244   2.970   1.276   7.376 -0.0446  1.1064 -0.0160
 3350TIP3    H134245   3.016   1.214   7.431  1.6887  1.4869 -0.9800
 3350TIP3    H234246   3.014   1.271   7.291 -2.0546  1.1935 -1.1352
 3351TIP3   OH234247   0.572   6.222   8.134 -0.2817 -0.4791  0.3751
 3351TIP3    H134248   0.636   6.164   8.175 -1.0793 -0.2553  2.0327
 3351TIP3    H234249   0.584   6.306   8.179  0.5908  0.5853 -1.7086
 3352TIP3   OH234250   3.692   4.521   7.345 -0.0539  0.3004  0.4348
 3352TIP3    H134251   3.641   4.442   7.363  0.2354  0.3069  1.3267
 3352TIP3    H234252   3.753   4.495   7.277 -0.2144 -0.1393  0.4562
 3353TIP3   OH234253   1.946   1.809   7.262  0.2914  0.0807  0.3633
 3353TIP3    H134254   1.991   1.747   7.205 -0.0946 -0.2235  0.3918
 3353TIP3    H234255   1.884   1.756   7.311 -1.0247  0.6726 -0.6036
 3354TIP3   OH234256   4.395   3.351   8.178 -0.0835  0.0529  0.3163
 3354TIP3    H134257   4.383   3.420   8.243 -1.3875 -0.7011  0.9144
 3354TIP3    H234258   4.460   3.292   8.217 -0.0066  0.2086  0.4237
 3355TIP3   OH234259   3.650   5.407   9.710 -0.0403 -0.1056 -0.0697
 3355TIP3    H134260   3.583   5.377   9.771  1.7408 -0.6028  1.7668
 3355TIP3    H234261   3.678   5.327   9.664 -0.2727 -0.0168 -0.3612
 3356TIP3   OH234262   5.308   7.640   9.375  0.2446 -0.3892 -0.0945
 3356TIP3    H134263   5.274   7.704   9.313  0.9039 -1.3323 -1.4856
 3356TIP3    H234264   5.392   7.676   9.402  1.1915 -1.1657 -1.8115
 3357TIP3   OH234265   1.738   5.003   7.425  0.0013  0.1275 -0.0153
 3357TIP3    H134266   1.682   4.986   7.349  0.5154 -1.5573 -0.0617
 3357TIP3    H234267   1.683   5.055   7.484 -1.7628 -1.7217  0.0850
 3358TIP3   OH234268   1.910   7.589   6.974 -0.0362 -0.5851 -0.1709
 3358TIP3    H134269   1.951   7.675   6.960 -0.9944  0.0053  0.5562
 3358TIP3    H234270   1.853   7.577   6.899  0.2985 -0.7168 -0.4082
 3359TIP3   OH234271   5.408   4.946   9.251  0.0205  0.2219 -0.3764
 3359TIP3    H134272   5.453   4.988   9.323  0.8533 -1.2621  0.0218
 3359TIP3    H234273   5.335   4.899   9.292 -0.1533  0.2577 -0.6423
 3360TIP3   OH234274   7.143   0.737   7.753 -0.6180 -0.9952  0.9100
 3360TIP3    H134275   7.186   0.677   7.814 -2.1464 -0.5519  2.5211
 3360TIP3    H234276   7.145   0.821   7.798 -0.7229 -0.3798 -0.2108
 3361TIP3   OH234277   1.726   0.771   7.518 -0.5436  0.1600 -0.4795
 3361TIP3    H134278   1.644   0.820   7.529  0.2444  1.9228 -1.9060
 3361TIP3    H234279   1.720   0.736   7.429 -0.0638 -0.3992 -0.2975
 3362TIP3   OH234280   5.205   2.036   7.147 -0.0018  0.5318  0.3307
 3362TIP3    H134281   5.234   2.126   7.164  0.9238  0.4853 -0.8249
 3362TIP3    H234282   5.224   1.989   7.229  0.0064  1.2735  0.7623
 3363TIP3   OH234283   7.223   0.546   7.168 -0.3176 -0.3147 -0.4919
 3363TIP3    H134284   7.151   0.571   7.110  1.0412  1.3325 -1.5528
 3363TIP3    H234285   7.228   0.617   7.232  1.4205  0.5315 -1.4800
 3364TIP3   OH234286   3.412   6.390   9.141 -0.6445 -0.1418 -0.2649
 3364TIP3    H134287   3.496   6.434   9.155  0.7194 -2.5073 -0.4929
 3364TIP3    H234288   3.371   6.388   9.227 -1.2122  2.3195 -0.4085
 3365TIP3   OH234289   2.777   7.602   6.879  0.1271  0.1438  0.1343
 3365TIP3    H134290   2.730   7.523   6.903  0.1624  0.5345  1.6206
 3365TIP3    H234291   2.839   7.575   6.812  1.2457 -1.4574  1.7238
 3366TIP3   OH234292   2.560   7.447   7.706  0.6954 -0.0633  0.3490
 3366TIP3    H134293   2.517   7.526   7.741 -1.6312 -1.0626 -0.0823
 3366TIP3    H234294   2.572   7.466   7.613  0.1942 -0.1825  0.2578
 3367TIP3   OH234295   5.439   6.642   9.014  0.1567 -0.2628 -0.1197
 3367TIP3    H134296   5.438   6.651   9.109  1.9804 -1.0487  0.0202
 3367TIP3    H234297   5.397   6.558   8.997 -0.7156  0.1492 -0.0840
 3368TIP3   OH234298   6.829   6.143   7.293  0.2243  0.5134 -0.4824
 3368TIP3    H134299   6.783   6.078   7.239 -1.7969  0.9481  0.5975
 3368TIP3    H234300   6.773   6.220   7.291  1.1175  1.2206  0.5918
 3369TIP3   OH234301   4.364   2.463   8.262  0.5965 -0.3920 -0.1128
 3369TIP3    H134302   4.282   2.458   8.312  1.7423 -0.5567  1.8899
 3369TIP3    H234303   4.336   2.468   8.171 -1.6635  0.4232  0.5290
 3370TIP3   OH234304   6.831   6.074   8.809  0.4389 -0.6076 -0.0589
 3370TIP3    H134305   6.833   6.167   8.783 -0.6802  0.2581  2.6282
 3370TIP3    H234306   6.760   6.036   8.756 -0.1894  0.4917 -0.0402
 3371TIP3   OH234307   0.300   7.664   8.031 -0.1845  0.2531 -0.0147
 3371TIP3    H134308   0.320   7.583   8.078 -2.3865  1.0776  2.5721
 3371TIP3    H234309   0.219   7.645   7.984 -0.9294  1.0329  0.9212
 3372TIP3   OH234310   6.124   4.454   7.015  0.1445  0.3873  0.0061
 3372TIP3    H134311   6.210   4.430   6.980  0.7173  1.8591  0.3242
 3372TIP3    H234312   6.062   4.396   6.969  1.2070 -0.0374 -0.9381
 3373TIP3   OH234313   2.280   3.523   8.105 -0.0068  0.3528 -0.1355
 3373TIP3    H134314   2.338   3.590   8.070  2.5425 -1.7433 -0.2840
 3373TIP3    H234315   2.283   3.453   8.040 -0.8646 -0.7684  0.9771
 3374TIP3   OH234316   2.865   6.491   8.649 -0.3090  0.7324 -0.1860
 3374TIP3    H134317   2.876   6.524   8.738 -0.5118 -0.0805  0.1567
 3374TIP3    H234318   2.943   6.437   8.633  0.6404  2.3405 -1.2041
 3375TIP3   OH234319   4.708   5.377   9.663 -0.2813  0.6173  0.1243
 3375TIP3    H134320   4.758   5.458   9.651 -1.2723  1.1149 -0.9637
 3375TIP3    H234321   4.711   5.360   9.757  0.4296  1.6047  0.2979
 3376TIP3   OH234322   2.638   2.072   7.068  0.4245 -0.3273 -0.1821
 3376TIP3    H134323   2.666   2.122   6.991  0.0211 -2.8723 -2.1372
 3376TIP3    H234324   2.590   2.135   7.122  1.2900  1.7244 -1.6656
 3377TIP3   OH234325   5.994   0.340   7.847  0.3422 -0.0580  0.1243
 3377TIP3    H134326   5.937   0.299   7.912  0.8764  0.5541  1.0049
 3377TIP3    H234327   6.005   0.430   7.879 -0.2489  0.5766 -1.3875
 3378TIP3   OH234328   5.138   0.207   8.951  0.1942  0.7617 -0.5400
 3378TIP3    H134329   5.067   0.271   8.941 -1.2183 -0.8313 -1.1401
 3378TIP3    H234330   5.102   0.126   8.916  1.5803 -0.6223  1.0799
 3379TIP3   OH234331   5.083   7.025   9.206 -0.6397 -0.0209 -0.3271
 3379TIP3    H134332   5.043   7.061   9.127  0.0595  1.6944  0.0495
 3379TIP3    H234333   5.050   7.081   9.277  0.5294 -0.0697  0.2828
 3380TIP3   OH234334   1.108   4.518   7.906  0.3814 -0.0999  0.2294
 3380TIP3    H134335   1.202   4.500   7.910  0.6551  1.2607  0.3324
 3380TIP3    H234336   1.100   4.612   7.921 -1.1883 -0.5325  2.6456
 3381TIP3   OH234337   3.080   0.547   6.962  0.0917 -0.0198 -0.5163
 3381TIP3    H134338   3.167   0.541   7.003  0.3730  0.7488 -0.9784
 3381TIP3    H234339   3.035   0.616   7.011 -0.4155 -0.6974 -0.0144
 3382TIP3   OH234340   0.007   3.516   8.839 -0.3269  0.8577  0.6758
 3382TIP3    H134341  -0.035   3.441   8.798  1.7038  0.9019 -1.6922
 3382TIP3    H234342  -0.064   3.560   8.887 -2.0454 -1.2408  0.2026
 3383TIP3   OH234343   0.628   1.383   9.175 -0.0591 -0.5301 -0.2535
 3383TIP3    H134344   0.542   1.342   9.189  0.0717 -0.3405  1.3192
 3383TIP3    H234345   0.634   1.450   9.244  0.9092  0.1971 -1.0176
 3384TIP3   OH234346   0.448   7.530   8.400  0.0911 -0.3371  0.0025
 3384TIP3    H134347   0.431   7.497   8.488 -0.1962  1.3792  0.6312
 3384TIP3    H234348   0.531   7.577   8.407  0.3409 -0.6445 -0.7859
 3385TIP3   OH234349   0.842   0.254   7.305 -0.7018  0.2250 -0.2313
 3385TIP3    H134350   0.787   0.177   7.318  0.0920 -0.6407 -1.7566
 3385TIP3    H234351   0.896   0.259   7.384  0.9239 -2.2440 -1.0709
 3386TIP3   OH234352   4.364   0.119   8.526 -0.0056 -0.3090 -0.0795
 3386TIP3    H134353   4.402   0.120   8.438 -0.0030 -0.6119 -0.0829
 3386TIP3    H234354   4.307   0.197   8.529  1.7119  0.9846  0.4229
 3387TIP3   OH234355   3.649   3.772   9.615 -0.1513 -0.1814  0.8097
 3387TIP3    H134356   3.565   3.761   9.660 -1.9349 -0.4695 -2.2786
 3387TIP3    H234357   3.629   3.831   9.541  1.4421 -2.8608 -2.0032
 3388TIP3   OH234358   6.271   7.279   7.456  0.0847  0.6942  0.5392
 3388TIP3    H134359   6.287   7.363   7.413 -1.7106  0.6233 -0.3867
 3388TIP3    H234360   6.244   7.221   7.385  2.4275 -1.0598  0.9658
 3389TIP3   OH234361   0.408   3.178   9.435 -0.0854  0.4642  0.0353
 3389TIP3    H134362   0.456   3.111   9.386 -0.8834  2.0102 -3.1249
 3389TIP3    H234363   0.473   3.246   9.453  0.3945 -0.4380  2.0029
 3390TIP3   OH234364   0.087   0.144   8.769  0.0143  0.4419 -0.3342
 3390TIP3    H134365   0.036   0.189   8.701  1.1407  1.8131 -0.2994
 3390TIP3    H234366   0.096   0.209   8.839  0.0445 -0.4990  0.5537
 3391TIP3   OH234367   0.371   1.289   7.020 -0.1759 -0.3667  0.1424
 3391TIP3    H134368   0.342   1.256   6.935  0.4940 -1.5939  0.3715
 3391TIP3    H234369   0.368   1.385   7.010  0.8298 -0.4637 -1.5886
 3392TIP3   OH234370   1.368   4.016   8.548  0.0179  0.3713 -0.4717
 3392TIP3    H134371   1.345   3.924   8.562 -0.8621  0.6981  0.3448
 3392TIP3    H234372   1.433   4.014   8.478  1.1426 -0.9933  0.5577
 3393TIP3   OH234373   1.296   3.453   7.053 -0.2216  0.0116  0.6759
 3393TIP3    H134374   1.236   3.384   7.028  0.7944 -0.9075  0.6971
 3393TIP3    H234375   1.324   3.430   7.141 -1.3186  1.4948  1.4564
 3394TIP3   OH234376   6.842   4.564   7.431  0.1358 -0.2467  0.0503
 3394TIP3    H134377   6.820   4.655   7.451 -0.6133 -0.1404 -1.1673
 3394TIP3    H234378   6.791   4.543   7.353  1.5241 -1.2182 -0.6335
 3395TIP3   OH234379   3.845   0.281   9.029 -0.6677  0.3447  0.3220
 3395TIP3    H134380   3.926   0.325   9.001 -1.2514 -0.0307 -2.2198
 3395TIP3    H234381   3.775   0.338   8.998 -1.4046 -1.3556 -1.3858
 3396TIP3   OH234382   2.780   4.951   8.755 -0.2145  0.1300 -0.3691
 3396TIP3    H134383   2.848   5.016   8.735 -0.8897  0.8347 -0.3877
 3396TIP3    H234384   2.811   4.909   8.836 -0.1213  0.9702  0.0451
 3397TIP3   OH234385   7.480   1.404   7.924 -0.9016 -0.5717 -0.2546
 3397TIP3    H134386   7.575   1.411   7.928 -0.7533  1.1496 -3.4874
 3397TIP3    H234387   7.460   1.321   7.969  2.1711 -1.3512 -0.1310
 3398TIP3   OH234388   5.721   4.569   7.219 -0.0483  0.3929 -0.3024
 3398TIP3    H134389   5.759   4.600   7.137 -1.0646  0.1515 -0.8844
 3398TIP3    H234390   5.646   4.626   7.233 -1.0319 -0.7806 -0.5784
 3399TIP3   OH234391   1.847   4.355   8.678  0.0528  0.0381 -0.1332
 3399TIP3    H134392   1.772   4.388   8.727 -0.6549 -2.1129  0.3232
 3399TIP3    H234393   1.810   4.296   8.613  1.2865 -0.3145 -0.5541
 3400TIP3   OH234394   1.497   6.875   9.029 -0.1235 -0.2356 -0.1930
 3400TIP3    H134395   1.451   6.889   9.112  2.1077 -0.4778  1.1550
 3400TIP3    H234396   1.550   6.797   9.043  0.4255 -0.1939 -1.8154
 3401TIP3   OH234397   1.937   1.961   8.540 -0.1697  0.4462 -0.5220
 3401TIP3    H134398   1.987   1.886   8.572  0.0227 -0.0063 -1.8115
 3401TIP3    H234399   1.870   1.976   8.607 -0.2165 -0.9005 -0.2377
 3402TIP3   OH234400   6.486   7.524   8.789  0.0257  0.3725  0.3008
 3402TIP3    H134401   6.411   7.571   8.824  0.0584  1.2486 -0.7403
 3402TIP3    H234402   6.451   7.470   8.719  0.3448  0.6875 -0.1058
 3403TIP3   OH234403   4.087   6.923   9.253  0.3232 -0.1523 -0.3728
 3403TIP3    H134404   3.993   6.937   9.238  0.2265  0.2396  0.5377
 3403TIP3    H234405   4.120   6.892   9.168 -0.7687 -1.0663 -0.5030
 3404TIP3   OH234406   1.905   2.707   7.498  1.1235  0.2718  0.5286
 3404TIP3    H134407   1.871   2.639   7.441 -1.5102  0.5796  1.5621
 3404TIP3    H234408   1.900   2.670   7.586  0.2684  1.5298  1.0424
 3405TIP3   OH234409   1.265   6.264   7.440  0.0849  0.3671  0.3798
 3405TIP3    H134410   1.294   6.231   7.525  0.5819 -0.4966 -0.1030
 3405TIP3    H234411   1.273   6.359   7.447  1.9918  0.2290  0.6717
 3406TIP3   OH234412   5.160   1.552   8.433  0.8945 -0.6214  0.2238
 3406TIP3    H134413   5.123   1.574   8.518 -0.6640 -2.0912 -0.0181
 3406TIP3    H234414   5.105   1.599   8.370 -0.1257 -2.1917 -0.1041
 3407TIP3   OH234415   5.381   1.534   8.878  0.5920 -0.2485 -0.1613
 3407TIP3    H134416   5.443   1.554   8.808  0.9687  2.4813  0.8020
 3407TIP3    H234417   5.436   1.525   8.956 -0.0128 -0.5534  0.2339
 3408TIP3   OH234418   6.640   7.549   8.179 -0.2435 -0.3360 -0.0323
 3408TIP3    H134419   6.731   7.552   8.151 -0.5979  1.0071 -1.1669
 3408TIP3    H234420   6.616   7.641   8.190 -1.0417 -0.7117  1.7227
 3409TIP3   OH234421   6.540   6.614   7.787 -0.3505 -0.8545 -0.4375
 3409TIP3    H134422   6.519   6.632   7.879 -1.9561 -0.4304 -0.8595
 3409TIP3    H234423   6.614   6.553   7.791 -0.6543 -1.1646  1.1344
 3410TIP3   OH234424   4.197   0.302   9.166 -0.0925 -0.1474  0.3759
 3410TIP3    H134425   4.184   0.395   9.148 -0.6800 -0.4359 -0.8527
 3410TIP3    H234426   4.284   0.282   9.132 -0.6195 -0.3778 -0.8830
 3411TIP3   OH234427   1.677   2.516   8.356  0.0805 -0.1647 -0.2132
 3411TIP3    H134428   1.736   2.473   8.418 -1.5115  1.6240  2.7820
 3411TIP3    H234429   1.732   2.581   8.312  0.7098  0.4404  1.4025
 3412TIP3   OH234430   0.736   3.141   8.466 -0.6664  0.0601  0.4165
 3412TIP3    H134431   0.649   3.118   8.498  0.0762  0.2168  2.7105
 3412TIP3    H234432   0.734   3.237   8.459 -1.2874 -0.0453 -1.5958
 3413TIP3   OH234433   6.570   6.055   6.911  0.2144 -0.2759 -0.2793
 3413TIP3    H134434   6.578   6.038   7.005  1.0296  1.0070 -0.0860
 3413TIP3    H234435   6.640   6.004   6.871  0.5598  0.0127 -0.0560
 3414TIP3   OH234436   5.103   4.192   7.673  0.1627 -0.5279 -0.0696
 3414TIP3    H134437   5.164   4.176   7.745 -0.4382 -2.0087  0.1506
 3414TIP3    H234438   5.157   4.191   7.594  0.7782  0.7812  0.2984
 3415TIP3   OH234439   2.140   5.509   8.774  0.0712  0.5727  0.0429
 3415TIP3    H134440   2.153   5.566   8.698 -1.9963 -0.1063 -0.8881
 3415TIP3    H234441   2.065   5.455   8.751  0.0848 -0.4427  2.1451
 3416TIP3   OH234442   2.421   0.846   9.067  0.3338  0.4384 -0.1628
 3416TIP3    H134443   2.392   0.786   8.999 -1.5332 -0.2580  1.1532
 3416TIP3    H234444   2.370   0.926   9.052 -2.0704 -0.5708  1.7781
 3417TIP3   OH234445   5.574   6.911   7.218 -0.2427 -0.1464 -0.4979
 3417TIP3    H134446   5.491   6.955   7.232 -0.2218 -0.2518 -0.0236
 3417TIP3    H234447   5.600   6.935   7.129 -0.5321  0.2962 -0.4636
 3418TIP3   OH234448   1.377   0.050   7.904 -0.1800  0.1917  0.2633
 3418TIP3    H134449   1.342   0.102   7.832  1.3884  1.2480  0.2287
 3418TIP3    H234450   1.415  -0.027   7.863  2.2823  1.6134 -0.3058
 3419TIP3   OH234451   6.704   1.974   7.881  0.0770  0.0863  0.2367
 3419TIP3    H134452   6.783   1.920   7.880  0.0394 -0.0115  1.2667
 3419TIP3    H234453   6.635   1.915   7.851  0.2256 -0.1165  0.2917
 3420TIP3   OH234454   7.051   7.167   7.291 -0.2014 -0.2473  0.1293
 3420TIP3    H134455   6.993   7.242   7.303  1.9269  1.7602 -1.3299
 3420TIP3    H234456   7.012   7.118   7.218  0.0035  1.1875 -0.9867
 3421TIP3   OH234457   3.716   0.546   8.099 -0.0510 -0.0773 -0.5565
 3421TIP3    H134458   3.651   0.528   8.030 -0.3174  1.0143 -0.6117
 3421TIP3    H234459   3.686   0.495   8.174 -0.0381 -0.8897 -1.0884
 3422TIP3   OH234460   1.554   6.038   8.359 -0.4701 -0.0704  0.2784
 3422TIP3    H134461   1.631   6.093   8.352 -1.1182  0.6913 -1.4388
 3422TIP3    H234462   1.588   5.949   8.368  0.5943  0.3474  0.4218
 3423TIP3   OH234463   4.990   4.942   9.100 -0.3816  0.0635  0.0244
 3423TIP3    H134464   4.991   5.023   9.151  0.4975 -0.4184  0.8242
 3423TIP3    H234465   4.943   4.879   9.155 -2.4012  0.3741 -1.2311
 3424TIP3   OH234466   4.457   2.188   7.074 -0.2213  0.6350 -0.2797
 3424TIP3    H134467   4.366   2.218   7.064 -0.5539  0.4350  1.8138
 3424TIP3    H234468   4.449   2.093   7.087  0.3556  0.5166 -0.7627
 3425TIP3   OH234469   3.559   5.368   8.105  0.4624  0.1801 -0.3185
 3425TIP3    H134470   3.576   5.418   8.025 -1.3219  0.1143 -0.7885
 3425TIP3    H234471   3.581   5.278   8.082  0.4714  0.2428 -0.5550
 3426TIP3   OH234472   4.919   1.507   8.713  0.1209  0.2099  0.2085
 3426TIP3    H134473   4.845   1.548   8.758 -1.9763 -0.4415 -2.3739
 3426TIP3    H234474   4.988   1.502   8.779 -1.8377  1.6374  2.5168
 3427TIP3   OH234475   7.655   2.248   8.842  0.1582  0.1616 -0.1923
 3427TIP3    H134476   7.643   2.343   8.849 -0.1544  0.4605 -3.2107
 3427TIP3    H234477   7.726   2.228   8.902 -0.8795  1.9904  1.7893
 3428TIP3   OH234478   5.088   5.325   9.708 -0.3744  0.2515 -0.2493
 3428TIP3    H134479   5.126   5.337   9.795 -0.5717 -1.1934  0.0642
 3428TIP3    H234480   5.148   5.369   9.649  0.9349 -0.5929  0.4047
 3429TIP3   OH234481   5.911   7.543   7.535 -0.6322  0.2745  0.5042
 3429TIP3    H134482   5.857   7.621   7.546 -0.2022  0.4389  1.5123
 3429TIP3    H234483   5.959   7.534   7.617  1.3543  0.4951 -0.5692
 3430TIP3   OH234484   5.745   0.641   8.552  0.1255 -0.0684 -0.1970
 3430TIP3    H134485   5.740   0.562   8.604 -0.0698  0.4088  0.5230
 3430TIP3    H234486   5.788   0.705   8.609 -0.1813  0.4881 -0.5781
 3431TIP3   OH234487   6.293   7.618   6.740  0.5121 -0.1743  0.6799
 3431TIP3    H134488   6.340   7.689   6.783 -0.5175  0.5090  0.6941
 3431TIP3    H234489   6.246   7.574   6.811 -1.3412  1.0704  0.2952
 3432TIP3   OH234490   7.357   0.134   9.275 -0.1013 -0.1588  0.1480
 3432TIP3    H134491   7.446   0.103   9.258 -0.2010 -0.7384  0.6257
 3432TIP3    H234492   7.309   0.114   9.195 -0.3015 -1.8308  0.6437
 3433TIP3   OH234493   3.620   7.342   7.654  0.3499 -0.0545  0.2807
 3433TIP3    H134494   3.539   7.390   7.639  0.0709 -0.5606  0.1343
 3433TIP3    H234495   3.690   7.402   7.628 -0.0013  0.1970 -0.0801
 3434TIP3   OH234496   5.840   7.270   7.189  0.4833  0.4265 -0.0089
 3434TIP3    H134497   5.828   7.191   7.242 -1.7278  0.7924  0.1315
 3434TIP3    H234498   5.886   7.239   7.111  0.4527 -0.8450  0.4520
 3435TIP3   OH234499   5.067   0.724   8.254  0.2191  0.0657  0.6525
 3435TIP3    H134500   4.996   0.758   8.200  0.6975 -1.9141 -1.3474
 3435TIP3    H234501   5.024   0.697   8.335 -1.2051 -0.3673 -0.2070
 3436TIP3   OH234502   2.347   4.243   7.969 -0.3723 -0.2920  0.2046
 3436TIP3    H134503   2.277   4.198   7.923 -1.2261 -0.2023  1.3654
 3436TIP3    H234504   2.388   4.298   7.903 -1.7354  0.0453 -0.4002
 3437TIP3   OH234505   5.819   2.589   7.570  0.0732 -0.0883 -0.2734
 3437TIP3    H134506   5.806   2.636   7.488  1.4939 -1.3582 -1.2820
 3437TIP3    H234507   5.913   2.594   7.587 -0.0769 -0.5595  0.8377
 3438TIP3   OH234508   5.033   5.244   8.933  0.3361  0.3937  0.2670
 3438TIP3    H134509   5.009   5.159   8.896  1.1717 -0.1584  0.9529
 3438TIP3    H234510   5.045   5.300   8.857  3.0291 -0.9787 -0.4268
 3439TIP3   OH234511   4.428   1.837   8.404  0.0703 -0.1653  0.3233
 3439TIP3    H134512   4.404   1.745   8.419  1.4875 -0.2658  2.3475
 3439TIP3    H234513   4.402   1.881   8.485  0.2763  1.0596 -0.2627
 3440TIP3   OH234514   5.898   5.855   8.460 -0.6095  0.2437  0.0849
 3440TIP3    H134515   5.807   5.862   8.489 -0.7129 -1.3357  0.2501
 3440TIP3    H234516   5.909   5.761   8.441  1.2507  0.2629  0.9533
 3441TIP3   OH234517   4.557   0.278   7.904 -0.0474 -0.4945  0.3875
 3441TIP3    H134518   4.601   0.340   7.962 -0.1690  1.0917 -1.1190
 3441TIP3    H234519   4.626   0.222   7.870  0.2154 -0.5588  1.0260
 3442TIP3   OH234520   6.349   3.037   8.598 -0.0654  0.1329  0.2204
 3442TIP3    H134521   6.440   3.060   8.578  0.1607 -0.1555  0.9206
 3442TIP3    H234522   6.355   2.972   8.667 -0.8149  0.2711  0.4226
 3443TIP3   OH234523   3.843   6.089   8.848  0.2082 -0.0166 -0.6508
 3443TIP3    H134524   3.773   6.124   8.904  0.1038 -1.3201  0.0537
 3443TIP3    H234525   3.872   6.165   8.797  1.4072  1.6402  2.2548
 3444TIP3   OH234526   5.766   2.496   8.694  0.4255  0.8392  0.7593
 3444TIP3    H134527   5.680   2.530   8.720 -0.4012  1.1672 -2.0447
 3444TIP3    H234528   5.752   2.402   8.684  0.7182  0.7255  1.3770
 3445TIP3   OH234529   1.704   5.726   8.754  0.3561 -0.4822 -0.1299
 3445TIP3    H134530   1.706   5.810   8.710 -2.3080 -0.8370 -1.1437
 3445TIP3    H234531   1.654   5.741   8.834  1.4756 -0.7440  0.6455
 3446TIP3   OH234532   6.324   2.646   8.256 -0.0893 -0.0896 -0.4243
 3446TIP3    H134533   6.408   2.648   8.210 -0.0640  0.5250 -0.3534
 3446TIP3    H234534   6.317   2.732   8.297  0.0065 -0.6980  0.9403
 3447TIP3   OH234535   0.697   5.800   7.791  0.7582  0.3592 -0.1758
 3447TIP3    H134536   0.681   5.787   7.884  1.4298 -0.2923 -0.1423
 3447TIP3    H234537   0.630   5.862   7.763  0.2017  0.1234  0.6194
 3448TIP3   OH234538   4.155   2.584   7.369  0.4315 -0.0538  0.0055
 3448TIP3    H134539   4.148   2.494   7.401 -0.3703  0.4133  1.2074
 3448TIP3    H234540   4.231   2.583   7.310  0.8697 -1.3442  0.5622
 3449TIP3   OH234541   2.672   0.364   8.921  0.1184 -0.4567 -0.0268
 3449TIP3    H134542   2.760   0.331   8.937 -0.1164 -0.7577  0.6879
 3449TIP3    H234543   2.662   0.438   8.981 -0.4774 -1.0778  0.6567
 3450TIP3   OH234544   1.410   7.370   9.384 -0.4079 -0.1786  0.0491
 3450TIP3    H134545   1.427   7.277   9.367  1.4593  0.1481 -0.0465
 3450TIP3    H234546   1.497   7.409   9.390 -1.1709  1.5065  0.4688
 3451TIP3   OH234547   4.053   1.899   9.201 -0.2592  0.0418  0.2709
 3451TIP3    H134548   4.101   1.916   9.120 -1.7548  0.0585 -0.6378
 3451TIP3    H234549   4.118   1.858   9.259  0.4324 -1.4783 -1.4960
 3452TIP3   OH234550   6.407   5.780   8.467  0.4124  0.0141  0.6029
 3452TIP3    H134551   6.391   5.772   8.373  0.3533 -0.0190  0.6163
 3452TIP3    H234552   6.352   5.854   8.495  0.7479  0.2913  0.5329
 3453TIP3   OH234553   7.094   3.069   9.073  0.6557  0.0468 -0.5230
 3453TIP3    H134554   7.028   3.105   9.013 -0.8389  1.1114  1.6504
 3453TIP3    H234555   7.151   3.142   9.093  1.9108 -0.6092 -1.5249
 3454TIP3   OH234556   0.989   5.878   8.758 -0.2794  0.4313  0.1491
 3454TIP3    H134557   0.996   5.841   8.670  1.5101  0.5412  0.2119
 3454TIP3    H234558   1.035   5.962   8.752 -0.1530  0.4438  1.1848
 3455TIP3   OH234559   4.617   5.007   9.034  0.0048 -0.2185 -0.0496
 3455TIP3    H134560   4.611   4.947   9.108 -0.4034  1.9922  1.7971
 3455TIP3    H234561   4.694   5.061   9.052 -0.7377  1.0868 -0.6218
 3456TIP3   OH234562   1.122   3.374   6.377  0.2810  0.3350  0.1486
 3456TIP3    H134563   1.176   3.335   6.447 -1.4389  0.0155  1.3703
 3456TIP3    H234564   1.043   3.404   6.422 -0.8971  0.1280 -1.6682
 3457TIP3   OH234565   6.443   0.487   6.648  0.3655  0.4813 -0.0797
 3457TIP3    H134566   6.501   0.484   6.572  0.4652  1.5281 -0.0517
 3457TIP3    H234567   6.466   0.408   6.698  1.2931  0.5266 -0.4108
 3458TIP3   OH234568   2.259   2.209   9.009 -0.3166 -0.6290  0.2910
 3458TIP3    H134569   2.218   2.281   8.961  1.2292 -0.3826 -0.7392
 3458TIP3    H234570   2.255   2.134   8.949 -0.3932 -0.9387  0.6783
 3459TIP3   OH234571   3.987   2.913   7.894  0.7708  0.2011  0.4058
 3459TIP3    H134572   3.954   2.905   7.804 -0.0442  0.3802  0.6783
 3459TIP3    H234573   4.059   2.851   7.899  0.4373 -0.2427 -0.1992
 3460TIP3   OH234574   6.767   1.706   8.433  0.1025 -0.3560  0.3792
 3460TIP3    H134575   6.782   1.794   8.467 -0.5718 -0.5708  1.2704
 3460TIP3    H234576   6.812   1.649   8.496 -0.8900 -0.7428  0.7536
 3461TIP3   OH234577   0.968   0.964   9.088  0.1274 -0.1593  0.2851
 3461TIP3    H134578   0.958   1.052   9.127  0.3310  0.5883 -1.2769
 3461TIP3    H234579   0.882   0.924   9.099 -0.3991  0.7826 -0.2257
 3462TIP3   OH234580   5.847   3.586   6.960 -0.5364  0.7717  0.0162
 3462TIP3    H134581   5.867   3.588   6.866  1.6560  0.0691  0.4113
 3462TIP3    H234582   5.900   3.514   6.994 -0.9244  1.3138  1.8647
 3463TIP3   OH234583   6.195   0.343   7.642  0.0048 -0.0329  0.1890
 3463TIP3    H134584   6.219   0.435   7.634 -0.6812  0.1810  0.5571
 3463TIP3    H234585   6.144   0.338   7.722  0.1264 -0.7552  0.2257
 3464TIP3   OH234586   6.977   6.535   7.534 -0.0805 -0.4262 -0.1835
 3464TIP3    H134587   7.005   6.444   7.525  3.8704  0.7018 -1.2426
 3464TIP3    H234588   7.024   6.567   7.610  1.0939  1.4384 -1.6044
 3465TIP3   OH234589   1.891   2.984   8.600  0.0504  0.6477 -0.3546
 3465TIP3    H134590   1.961   2.924   8.573  0.9604  2.0319 -1.1746
 3465TIP3    H234591   1.899   3.058   8.541 -0.3667  2.0720  1.2952
 3466TIP3   OH234592   0.718   6.340   9.011 -0.0336 -0.1598 -0.5504
 3466TIP3    H134593   0.781   6.405   9.044  0.2772 -0.1734 -1.1002
 3466TIP3    H234594   0.656   6.391   8.959 -0.1027 -0.2273 -0.5328
 3467TIP3   OH234595   4.839   2.553   7.495 -0.2788 -0.2528  0.3158
 3467TIP3    H134596   4.793   2.564   7.579  1.4334 -0.4794  1.3287
 3467TIP3    H234597   4.835   2.639   7.453 -1.7609 -0.3163  0.2863
 3468TIP3   OH234598   6.629   2.175   7.167 -0.8609  0.2916 -0.4669
 3468TIP3    H134599   6.611   2.260   7.207 -1.0365 -0.0863  0.2917
 3468TIP3    H234600   6.714   2.149   7.203 -0.6542  0.2892 -0.9506
 3469TIP3   OH234601   2.077   2.696   8.923 -0.0685 -0.2493 -0.5158
 3469TIP3    H134602   2.068   2.753   8.847  0.6800 -0.3765 -0.7077
 3469TIP3    H234603   2.069   2.607   8.887  0.3056 -0.3101 -0.4522
 3470TIP3   OH234604   0.378   1.594   7.614 -0.0650  0.3201  0.8128
 3470TIP3    H134605   0.331   1.533   7.670 -0.3956  1.4030  1.7630
 3470TIP3    H234606   0.395   1.545   7.533 -2.1894 -0.3536  0.7048
 3471TIP3   OH234607   4.467   4.249   8.373  0.0727 -0.2476 -0.6823
 3471TIP3    H134608   4.372   4.262   8.380  0.3098  0.8863  1.0848
 3471TIP3    H234609   4.484   4.246   8.279 -1.5037  1.4129 -1.0771
 3472TIP3   OH234610   1.635   2.128   7.902 -0.5385  0.1256 -0.0674
 3472TIP3    H134611   1.611   2.139   7.994 -0.5226  1.2925 -0.1890
 3472TIP3    H234612   1.554   2.102   7.858 -0.7529  0.4605  0.1295
 3473TIP3   OH234613   5.476   3.425   9.325 -0.1493  0.0870 -0.4217
 3473TIP3    H134614   5.458   3.482   9.400  1.3354  0.5234 -0.3651
 3473TIP3    H234615   5.408   3.447   9.261 -0.8570  0.3955  0.4070
 3474TIP3   OH234616   6.127   0.430   8.225  0.0040 -0.2232 -0.5721
 3474TIP3    H134617   6.059   0.364   8.232 -2.3912  2.0115 -1.2473
 3474TIP3    H234618   6.093   0.505   8.273 -0.4043  2.7346 -4.8929
 3475TIP3   OH234619   4.367   3.294   8.599 -0.3513 -0.2933  0.0642
 3475TIP3    H134620   4.448   3.344   8.591 -0.6612 -0.1442 -3.1600
 3475TIP3    H234621   4.344   3.302   8.692  2.3294  1.1676  0.7188
 3476TIP3   OH234622   1.626   7.059   7.871  0.3595 -0.1040 -0.6548
 3476TIP3    H134623   1.667   7.044   7.786 -0.0565 -0.5715 -0.7765
 3476TIP3    H234624   1.585   6.976   7.893  1.7697 -0.4751  0.7430
 3477TIP3   OH234625   5.437   0.794   7.397  0.6772 -0.4151  0.2146
 3477TIP3    H134626   5.399   0.863   7.343  1.1870 -0.1942  0.1411
 3477TIP3    H234627   5.505   0.837   7.448  1.2230 -0.9244 -0.0714
 3478TIP3   OH234628   5.883   6.971   8.260  0.0365 -0.4385 -0.5287
 3478TIP3    H134629   5.953   6.975   8.196 -0.1339 -0.0533 -0.6938
 3478TIP3    H234630   5.926   6.944   8.341  0.2871 -0.7091 -0.7539
 3479TIP3   OH234631   3.844   5.669   7.616  0.0304 -0.5380 -0.7616
 3479TIP3    H134632   3.756   5.676   7.578  0.5450  0.6629 -1.7963
 3479TIP3    H234633   3.903   5.687   7.543  1.1884 -1.9849 -0.2495
 3480TIP3   OH234634   6.103   0.748   6.625 -0.3987 -0.6537  0.6314
 3480TIP3    H134635   6.113   0.806   6.549 -0.5351  3.4513  3.3918
 3480TIP3    H234636   6.191   0.740   6.661 -0.7824  0.7337  2.0385
 3481TIP3   OH234637   0.539   0.996   8.802 -0.0036 -0.1439  0.0356
 3481TIP3    H134638   0.568   1.043   8.880 -0.8312 -2.0050  1.5555
 3481TIP3    H234639   0.606   1.014   8.736  0.8993  1.2185  1.2646
 3482TIP3   OH234640   4.763   1.909   7.856  0.0601  0.1771 -0.1218
 3482TIP3    H134641   4.815   1.886   7.933 -1.1553  0.0088  0.6618
 3482TIP3    H234642   4.710   1.984   7.882  0.6556  1.0327 -1.2538
 3483TIP3   OH234643   6.094   1.821   9.332  0.1021 -0.7097  0.2498
 3483TIP3    H134644   6.070   1.820   9.239  0.6956 -0.4018  0.0892
 3483TIP3    H234645   6.015   1.851   9.377  0.1611  0.2515 -0.2639
 3484TIP3   OH234646   5.675   4.241   6.702  0.2541  0.0077 -0.3658
 3484TIP3    H134647   5.755   4.190   6.696  1.0026  1.2678 -2.5142
 3484TIP3    H234648   5.611   4.192   6.650  0.0129 -0.3591  0.2768
 3485TIP3   OH234649   1.739   2.183   8.457  0.0758  0.2699  0.5405
 3485TIP3    H134650   1.684   2.115   8.496 -1.4478  0.1840 -1.5892
 3485TIP3    H234651   1.729   2.258   8.515 -1.8263  0.0475  0.5593
 3486TIP3   OH234652   0.574   4.184   7.938 -0.0934  0.3925 -0.6099
 3486TIP3    H134653   0.562   4.278   7.946 -0.5481  0.1874  1.9202
 3486TIP3    H234654   0.505   4.155   7.879  1.1737  1.7977 -2.9462
 3487TIP3   OH234655   3.798   0.666   9.669  0.2746 -0.4229  0.7220
 3487TIP3    H134656   3.799   0.759   9.649  0.1946  0.2006  3.3099
 3487TIP3    H234657   3.708   0.638   9.653 -0.1109  0.3412  1.5203
 3488TIP3   OH234658   2.337   5.897   7.872  0.3093  0.1289 -0.3346
 3488TIP3    H134659   2.281   5.947   7.813  0.4232 -0.0414 -0.5889
 3488TIP3    H234660   2.342   5.810   7.833  1.9725  0.5437 -1.1693
 3489TIP3   OH234661   1.366   1.900   9.542  0.1711  0.2966  0.0295
 3489TIP3    H134662   1.290   1.947   9.510  0.5291  0.5904 -0.4005
 3489TIP3    H234663   1.334   1.849   9.617 -0.8665 -0.9944 -1.2262
 3490TIP3   OH234664   0.673   4.076   9.454  0.4103 -0.3653 -0.1544
 3490TIP3    H134665   0.759   4.050   9.487  0.5095  0.4263  0.2146
 3490TIP3    H234666   0.688   4.097   9.362  0.5272 -0.6271 -0.1952
 3491TIP3   OH234667   1.815   1.012   8.236  0.2504 -0.2469 -0.2948
 3491TIP3    H134668   1.903   1.045   8.220  0.0828  0.3782  0.0361
 3491TIP3    H234669   1.794   0.961   8.158  0.7395 -0.0501 -0.5618
 3492TIP3   OH234670   7.282   0.836   8.421  0.1012  0.0894 -0.5991
 3492TIP3    H134671   7.341   0.841   8.496 -0.9478 -1.6382  0.4117
 3492TIP3    H234672   7.198   0.866   8.455  0.5753  4.3309 -2.4817
 3493TIP3   OH234673   0.116   7.452   8.382  0.7598  0.1907 -0.1169
 3493TIP3    H134674   0.178   7.380   8.397  0.5507 -0.1196 -0.7285
 3493TIP3    H234675   0.099   7.486   8.469  1.7795  0.2681  0.0681
 3494TIP3   OH234676   7.017   5.714   9.298 -0.1729 -0.6164  0.1361
 3494TIP3    H134677   6.975   5.793   9.334  1.5513 -0.6600  2.5102
 3494TIP3    H234678   7.110   5.731   9.306  0.2578 -2.1705 -1.1065
 3495TIP3   OH234679   3.876   6.317   6.733 -0.0312  0.6491  0.6242
 3495TIP3    H134680   3.815   6.292   6.802 -1.1122 -0.6319 -0.7175
 3495TIP3    H234681   3.859   6.409   6.717 -0.0947  0.8403  1.7194
 3496TIP3   OH234682   4.771   0.157   8.343 -0.0083 -0.5553  0.5741
 3496TIP3    H134683   4.781   0.252   8.347  2.7789 -0.4988 -2.9530
 3496TIP3    H234684   4.833   0.123   8.407  0.2969  0.0039  0.5819
 3497TIP3   OH234685   5.003   1.550   7.777  0.4796 -0.3421  0.0978
 3497TIP3    H134686   4.933   1.611   7.755  2.6349  2.5516  0.7582
 3497TIP3    H234687   4.982   1.521   7.866 -1.2372 -1.7006 -0.6865
 3498TIP3   OH234688   7.586   7.618   8.258  0.3306  0.0476 -0.2027
 3498TIP3    H134689   7.650   7.549   8.277  0.2759 -0.6425 -2.2757
 3498TIP3    H234690   7.502   7.580   8.282  0.2365 -0.8766 -1.9068
 3499TIP3   OH234691   5.154   7.423   7.985 -0.5050  0.0435  0.5823
 3499TIP3    H134692   5.229   7.481   7.997 -0.3136 -0.2741  0.9284
 3499TIP3    H234693   5.193   7.339   7.962 -0.8222  0.7834 -3.3353
 3500TIP3   OH234694   1.938   6.786   8.717  0.2750  0.1172  0.2383
 3500TIP3    H134695   2.028   6.756   8.713  0.4294  0.6376 -2.8609
 3500TIP3    H234696   1.943   6.880   8.697 -1.0003 -0.0425 -0.9770
 3501TIP3   OH234697   7.525   2.002   7.886  0.2143 -0.4299  0.4904
 3501TIP3    H134698   7.436   2.036   7.873  0.1700 -1.0358 -0.9305
 3501TIP3    H234699   7.512   1.912   7.916  0.3551 -0.4214  0.5781
 3502TIP3   OH234700   3.115   6.283   9.166 -0.0257 -0.5797  0.0021
 3502TIP3    H134701   3.039   6.337   9.145  0.4857  0.6296  1.0862
 3502TIP3    H234702   3.167   6.337   9.225  2.3648 -0.8160 -1.7239
 3503TIP3   OH234703   7.067   2.399   6.859 -0.2190 -0.1381  0.3121
 3503TIP3    H134704   7.098   2.463   6.923 -0.5814 -0.3593  0.7163
 3503TIP3    H234705   6.972   2.408   6.859 -0.5607 -2.5133  2.4183
 3504TIP3   OH234706   4.969   5.391   8.462  0.4202  0.1360  0.5658
 3504TIP3    H134707   4.925   5.469   8.429 -2.1885 -0.4498  2.3687
 3504TIP3    H234708   4.922   5.317   8.424  0.9600 -0.5521  1.1781
 3505TIP3   OH234709   2.356   5.721   8.240  0.0014  0.2521  0.3323
 3505TIP3    H134710   2.317   5.707   8.154  0.2316  2.7518 -0.2497
 3505TIP3    H234711   2.430   5.661   8.243 -1.7245 -2.0670  0.0794
 3506TIP3   OH234712   0.024   0.643   9.057  0.0417  0.5027 -0.7603
 3506TIP3    H134713  -0.040   0.648   9.128  0.6206 -1.0375 -0.0826
 3506TIP3    H234714   0.065   0.558   9.068  3.0170  1.8363 -0.4735
 3507TIP3   OH234715   4.934   2.258   6.455  0.1593 -0.2911  0.2154
 3507TIP3    H134716   4.974   2.175   6.482 -1.4367 -0.8055  1.1711
 3507TIP3    H234717   4.957   2.319   6.525  0.6106 -0.1405 -0.0573
 3508TIP3   OH234718   7.019   6.852   8.505  0.8685 -0.7456  0.1064
 3508TIP3    H134719   7.095   6.804   8.539  0.4099 -2.8553 -1.6222
 3508TIP3    H234720   7.057   6.921   8.451  1.5424  0.4540  2.0317
 3509TIP3   OH234721   6.829   4.234   9.288 -0.3455  0.4723  0.2780
 3509TIP3    H134722   6.775   4.187   9.224  0.1565  0.8697 -0.4561
 3509TIP3    H234723   6.766   4.281   9.342 -0.7898 -0.0012  0.1857
 3510TIP3   OH234724   1.308   7.268   7.757 -0.7639 -0.0705 -0.5254
 3510TIP3    H134725   1.373   7.221   7.705 -0.3895  1.0114 -1.0796
 3510TIP3    H234726   1.253   7.200   7.795 -0.4198 -0.9270 -1.5233
 3511TIP3   OH234727   0.366   4.161   7.778  0.7301 -0.2255 -0.1518
 3511TIP3    H134728   0.450   4.180   7.736  0.7111 -1.0993 -0.6217
 3511TIP3    H234729   0.300   4.185   7.713  0.5355  1.6986  0.7035
 3512TIP3   OH234730   0.003   3.192   9.189 -0.2884 -0.4232 -0.1399
 3512TIP3    H134731   0.049   3.205   9.272 -0.3626  1.3201 -0.3340
 3512TIP3    H234732  -0.068   3.132   9.211 -0.2987 -0.0040  1.0733
 3513TIP3   OH234733   4.232   5.695   7.053  0.6588 -0.1259  0.3763
 3513TIP3    H134734   4.280   5.617   7.081  1.0985  0.3351  0.9303
 3513TIP3    H234735   4.294   5.744   6.999  0.0281 -0.6833 -0.9039
 3514TIP3   OH234736   0.907   3.078   7.784  0.4881  0.1837  0.3160
 3514TIP3    H134737   0.867   3.071   7.697  0.8314 -0.5555  0.2148
 3514TIP3    H234738   0.850   3.139   7.831 -0.6624 -0.6905  0.1165
 3515TIP3   OH234739   5.940   5.832   9.333  0.1776 -0.2721 -0.2562
 3515TIP3    H134740   5.878   5.762   9.351  0.1613 -0.6776 -1.7102
 3515TIP3    H234741   5.884   5.906   9.307  0.1589  0.5277  1.9021
 3516TIP3   OH234742   6.981   2.911   7.726 -0.1654  0.2985  0.1348
 3516TIP3    H134743   7.005   2.886   7.815  0.7228 -0.6406 -0.3422
 3516TIP3    H234744   7.062   2.904   7.676 -0.5379  1.3150 -0.6536
 3517TIP3   OH234745   5.938   3.753   9.443  0.0913 -0.0722  0.0128
 3517TIP3    H134746   5.953   3.662   9.468 -0.2693 -0.3214 -0.6659
 3517TIP3    H234747   5.917   3.749   9.350 -0.7133  0.6231  0.1597
 3518TIP3   OH234748   0.467   0.006   9.441  0.2943  0.7216  0.2990
 3518TIP3    H134749   0.402  -0.060   9.416  0.7548 -0.6365  2.4270
 3518TIP3    H234750   0.550  -0.041   9.441  0.9365  1.8208 -0.0147
 3519TIP3   OH234751   2.682   0.382   8.253 -0.0510  0.5079 -0.2741
 3519TIP3    H134752   2.761   0.373   8.306 -0.7442  0.8607  0.8572
 3519TIP3    H234753   2.614   0.408   8.315 -1.4597 -1.3862 -0.9132
 3520TIP3   OH234754   1.798   4.264   7.036 -0.0180  0.1235  0.1044
 3520TIP3    H134755   1.838   4.183   7.006  0.0123  0.2322 -0.1556
 3520TIP3    H234756   1.800   4.322   6.960  0.1531  0.4401  0.3425
 3521TIP3   OH234757   2.284   1.187   7.748 -0.1335  0.1061  0.1555
 3521TIP3    H134758   2.302   1.219   7.660  0.2913 -0.6439 -0.0325
 3521TIP3    H234759   2.333   1.247   7.805  0.4105 -0.0156 -0.1748
 3522TIP3   OH234760   0.114   4.058   9.026  0.9506  0.0969 -0.4447
 3522TIP3    H134761   0.061   3.983   8.999 -0.6634  0.2761  1.9646
 3522TIP3    H234762   0.057   4.133   9.013  0.8963  0.3912  1.3765
 3523TIP3   OH234763   1.100   5.677   7.082 -0.3694 -0.6182  0.0477
 3523TIP3    H134764   1.174   5.735   7.065 -0.3811 -0.3577  0.8824
 3523TIP3    H234765   1.139   5.590   7.090 -0.3153 -0.6874 -0.8697
 3524TIP3   OH234766   7.241   2.215   7.406 -0.1266 -0.5252 -0.0362
 3524TIP3    H134767   7.162   2.268   7.416  0.4064  0.3529 -0.3070
 3524TIP3    H234768   7.222   2.134   7.453 -0.8878 -0.0059  0.5795
 3525TIP3   OH234769   4.825   3.925   8.899 -0.1457  0.3148 -0.1348
 3525TIP3    H134770   4.875   3.848   8.926 -1.0243 -0.4500 -0.6310
 3525TIP3    H234771   4.849   3.993   8.962  0.8982 -0.2641  0.1092
 3526TIP3   OH234772   2.352   5.578   7.358  0.6004  0.2973  0.0334
 3526TIP3    H134773   2.276   5.633   7.378  0.6572  0.1825  0.5787
 3526TIP3    H234774   2.315   5.501   7.315  0.0531 -1.1019  2.7718
 3527TIP3   OH234775   1.802   4.747   7.850  0.3495  0.4147  0.5022
 3527TIP3    H134776   1.880   4.750   7.906 -0.6302 -2.4597  2.2359
 3527TIP3    H234777   1.836   4.759   7.761  2.3185  2.3927  1.4193
 3528TIP3   OH234778   2.828   6.056   7.036 -0.6254 -0.0602 -0.1602
 3528TIP3    H134779   2.734   6.047   7.022 -0.6184 -0.1408 -0.1601
 3528TIP3    H234780   2.868   6.007   6.964 -0.5527  1.3984 -1.1446
 3529TIP3   OH234781   5.499   4.688   7.320 -0.0010 -0.3296  0.2290
 3529TIP3    H134782   5.442   4.619   7.287 -0.6189  0.2122  0.1578
 3529TIP3    H234783   5.470   4.703   7.410  1.5369 -1.6507  1.0089
 3530TIP3   OH234784   2.814   0.399   8.592 -0.1240  0.1700  0.6160
 3530TIP3    H134785   2.738   0.349   8.622 -0.0366 -0.4745 -0.1979
 3530TIP3    H234786   2.788   0.490   8.605 -1.2322 -0.0216 -0.0381
 3531TIP3   OH234787   5.889   5.363   9.103  0.5463 -0.1121  0.2000
 3531TIP3    H134788   5.834   5.432   9.065  0.6587  0.0276  0.2878
 3531TIP3    H234789   5.920   5.400   9.186  2.6087  0.7266 -0.8705
 3532TIP3   OH234790   7.323   5.736   7.075  0.3389  0.1334  0.5595
 3532TIP3    H134791   7.351   5.820   7.039  0.4390  0.4009  1.2303
 3532TIP3    H234792   7.322   5.676   7.001 -0.4151  0.8921 -0.0561
 3533TIP3   OH234793   4.975   6.023   6.585 -0.0726 -0.2170 -0.1573
 3533TIP3    H134794   5.037   5.968   6.536 -1.8352 -1.9547 -0.5428
 3533TIP3    H234795   4.910   5.962   6.619 -1.2831  1.4842  0.7220
 3534TIP3   OH234796   5.211   1.169   9.201 -0.1019  0.2195 -0.4927
 3534TIP3    H134797   5.185   1.126   9.120 -0.3995  1.6514 -1.1904
 3534TIP3    H234798   5.261   1.103   9.249  0.8612 -0.3813 -2.2440
 3535TIP3   OH234799   6.412   6.983   7.744 -0.4968 -0.5557  0.3320
 3535TIP3    H134800   6.480   6.933   7.700  0.2583  0.9508 -0.3004
 3535TIP3    H234801   6.334   6.926   7.742  0.7638 -2.4265  1.3283
 3536TIP3   OH234802   4.746   7.268   8.133 -0.2843  0.3747 -0.5119
 3536TIP3    H134803   4.737   7.188   8.187 -1.7962  0.2216 -0.9433
 3536TIP3    H234804   4.835   7.297   8.149 -0.2293 -0.4824  0.9616
 3537TIP3   OH234805   0.411   4.450   8.194 -0.6297 -0.0193 -0.9179
 3537TIP3    H134806   0.329   4.405   8.173 -0.1505 -0.9958 -0.7631
 3537TIP3    H234807   0.451   4.470   8.109 -0.9567  0.3369 -0.9909
 3538TIP3   OH234808   2.006   5.869   8.782  0.6371  0.0906  0.4302
 3538TIP3    H134809   2.028   5.816   8.706  2.4997  1.2405  0.1016
 3538TIP3    H234810   1.931   5.922   8.754  2.4514  1.8805 -1.3551
 3539TIP3   OH234811   5.363   2.510   9.018  0.3089 -0.6312 -0.0182
 3539TIP3    H134812   5.378   2.485   9.110  1.3931  0.2174  0.0648
 3539TIP3    H234813   5.311   2.439   8.982 -1.0266 -0.4998  1.5179
 3540TIP3   OH234814   7.020   2.359   8.977 -0.0942 -0.4920  0.1586
 3540TIP3    H134815   7.056   2.296   9.040  1.5062 -1.6927 -1.8185
 3540TIP3    H234816   6.927   2.336   8.970 -0.5270  0.2584  2.6701
 3541TIP3   OH234817   1.381   3.722   6.989  0.1102 -0.3181  0.0607
 3541TIP3    H134818   1.358   3.636   7.025 -3.1421  0.8994  1.2406
 3541TIP3    H234819   1.355   3.717   6.897  2.4655 -1.3602 -0.6303
 3542TIP3   OH234820   3.201   2.909   8.109  0.4430 -0.2497  0.1800
 3542TIP3    H134821   3.114   2.949   8.103  0.2369 -0.6463  0.4453
 3542TIP3    H234822   3.262   2.982   8.098  0.0755  0.0424  0.0515
 3543TIP3   OH234823   0.414   1.808   7.079 -0.7479 -0.3665  0.4056
 3543TIP3    H134824   0.495   1.757   7.079 -1.0239 -0.8141 -0.1847
 3543TIP3    H234825   0.441   1.895   7.108 -0.2049 -0.7330  1.0578
 3544TIP3   OH234826   4.358   6.805   7.343 -0.1449 -0.3292  0.7544
 3544TIP3    H134827   4.387   6.723   7.304 -0.5479 -0.2721  0.3224
 3544TIP3    H234828   4.366   6.790   7.438  1.0909 -0.3714  0.6598
 3545TIP3   OH234829   3.372   7.353   9.286  0.6753 -0.5406 -0.5476
 3545TIP3    H134830   3.434   7.370   9.357  0.5392 -1.9921 -0.0488
 3545TIP3    H234831   3.354   7.439   9.249  0.0580  0.3811  1.7542
 3546TIP3   OH234832   3.170   6.995   7.939 -0.1823  0.0691 -0.2041
 3546TIP3    H134833   3.262   6.971   7.939 -0.4483 -1.4148  3.0630
 3546TIP3    H234834   3.160   7.056   8.011 -1.9026 -0.5758  0.1710
 3547TIP3   OH234835   6.025   2.240   9.487 -0.7068  0.2242 -0.1825
 3547TIP3    H134836   6.038   2.302   9.416 -1.9734  1.8404  0.9123
 3547TIP3    H234837   6.108   2.238   9.534 -0.0849 -0.3374 -1.2628
 3548TIP3   OH234838   1.965   4.678   9.137 -0.0110  0.1022  0.9790
 3548TIP3    H134839   2.027   4.650   9.069  0.8516 -0.8910  2.1339
 3548TIP3    H234840   1.959   4.773   9.126 -0.5720 -0.1061 -1.0153
 3549TIP3   OH234841   4.189   6.940   7.624 -0.3629  0.5702  0.0007
 3549TIP3    H134842   4.269   6.942   7.676  0.0848  0.2710 -0.6573
 3549TIP3    H234843   4.119   6.932   7.688 -0.0184  2.7004  0.7349
 3550TIP3   OH234844   3.732   0.483   7.511 -0.2341 -0.0595  0.7747
 3550TIP3    H134845   3.652   0.435   7.488  0.8821 -1.5565 -0.1738
 3550TIP3    H234846   3.779   0.490   7.428  1.4806 -0.9044  1.6365
 3551TIP3   OH234847   3.418   6.290   8.279 -0.7630 -0.3127  0.3593
 3551TIP3    H134848   3.365   6.216   8.250  0.3013 -1.4733  1.2933
 3551TIP3    H234849   3.362   6.337   8.341 -1.5716 -0.0895 -0.5043
 3552TIP3   OH234850   3.082   3.820   9.007  0.5148 -0.0507  0.5602
 3552TIP3    H134851   3.005   3.776   9.044  1.7576 -2.4625  0.4639
 3552TIP3    H234852   3.063   3.826   8.913 -0.5114  1.5282  0.8344
 3553TIP3   OH234853   0.307   7.321   7.555 -0.0124  0.2403  0.6174
 3553TIP3    H134854   0.229   7.292   7.508  1.2691 -1.3275 -0.6798
 3553TIP3    H234855   0.329   7.405   7.517  0.2012 -0.3692 -0.6619
 3554TIP3   OH234856   6.551   6.529   9.045 -0.1230  0.1179 -0.3014
 3554TIP3    H134857   6.485   6.594   9.019 -1.2964 -0.8202  0.2297
 3554TIP3    H234858   6.629   6.581   9.066 -1.2833  1.4601  0.9619
 3555TIP3   OH234859   3.424   3.477   9.048  0.1270 -0.5527 -0.3259
 3555TIP3    H134860   3.403   3.406   8.988 -3.5631  0.1167 -0.1063
 3555TIP3    H234861   3.378   3.455   9.129 -0.0557  1.4349  0.1789
 3556TIP3   OH234862   4.597   2.965   8.239 -0.0327 -0.3324  0.1074
 3556TIP3    H134863   4.677   3.011   8.215 -0.5618  0.3256 -0.4208
 3556TIP3    H234864   4.624   2.904   8.309  0.7102  0.6278  0.6781
 3557TIP3   OH234865   5.184   6.119   7.760  0.0242 -0.5006 -0.0258
 3557TIP3    H134866   5.244   6.144   7.830 -0.0259  0.0027 -0.1520
 3557TIP3    H234867   5.177   6.024   7.765  1.0084 -0.5852 -0.1579
 3558TIP3   OH234868   6.401   1.780   8.290  1.2391 -0.8981  0.4041
 3558TIP3    H134869   6.448   1.855   8.326  1.9227 -1.6389  1.1031
 3558TIP3    H234870   6.371   1.732   8.367  1.4026 -1.7072 -0.0240
 3559TIP3   OH234871   6.284   3.690   7.534  0.5318  0.0727  0.0266
 3559TIP3    H134872   6.318   3.773   7.501 -0.6282 -0.3735 -2.5345
 3559TIP3    H234873   6.335   3.623   7.489 -0.1441 -0.5896  0.2124
 3560TIP3   OH234874   3.137   2.568   7.787  0.6160 -0.4438 -0.8689
 3560TIP3    H134875   3.118   2.621   7.709  1.1118  1.8009  0.4259
 3560TIP3    H234876   3.079   2.604   7.854  3.2780  0.7645  0.9265
 3561TIP3   OH234877   2.439   4.630   7.042 -0.2603 -0.3457 -0.7481
 3561TIP3    H134878   2.459   4.720   7.067  0.0510 -0.2709 -1.2476
 3561TIP3    H234879   2.519   4.598   7.000  0.0661 -1.2664  0.5195
 3562TIP3   OH234880   7.040   3.633   6.110 -0.2507 -0.0734 -0.7929
 3562TIP3    H134881   7.093   3.642   6.031 -0.8330 -0.0050 -1.1822
 3562TIP3    H234882   7.008   3.543   6.107 -1.0010  0.1978 -1.1027
 3563TIP3   OH234883   3.985   2.080   7.927  0.1630  0.2894  0.4138
 3563TIP3    H134884   4.019   2.137   7.857  0.5675 -0.6646 -0.1834
 3563TIP3    H234885   4.016   2.122   8.007  3.2621 -0.7415 -0.0911
 3564TIP3   OH234886   3.803   5.579   8.717  0.3507 -0.3555 -0.5390
 3564TIP3    H134887   3.737   5.646   8.735  2.5435  1.7462  0.2164
 3564TIP3    H234888   3.787   5.553   8.627 -2.1193 -0.7177 -0.0663
 3565TIP3   OH234889   2.074   5.565   7.228  0.3549  0.4504  0.3809
 3565TIP3    H134890   2.116   5.479   7.217 -0.6240 -0.3261  2.2575
 3565TIP3    H234891   2.082   5.607   7.142  2.1364 -0.9206 -0.1795
 3566TIP3   OH234892   5.027   0.298   8.645 -0.0961 -0.3241  0.1219
 3566TIP3    H134893   4.987   0.220   8.686 -1.3208  0.0548 -0.2941
 3566TIP3    H234894   5.018   0.283   8.551  0.0280  0.1369  0.0332
 3567TIP3   OH234895   0.455   2.120   7.806  0.0752 -0.2101  0.0625
 3567TIP3    H134896   0.502   2.185   7.859 -1.4403  0.3353  0.8037
 3567TIP3    H234897   0.523   2.063   7.772  1.3504  1.0978  0.3323
 3568TIP3   OH234898   4.680   6.758   7.879 -0.0207  0.7158  0.1184
 3568TIP3    H134899   4.597   6.726   7.844  0.7168  0.0552 -1.1215
 3568TIP3    H234900   4.736   6.769   7.801  0.8859  1.6300  0.8762
 3569TIP3   OH234901   4.601   7.507   9.186  0.1352 -0.0627  0.4096
 3569TIP3    H134902   4.572   7.484   9.274  2.4265 -1.5123  0.8664
 3569TIP3    H234903   4.545   7.455   9.128 -2.0599  1.6362  0.8501
 3570TIP3   OH234904   4.361   0.504   9.303  0.2128 -0.4566 -0.5008
 3570TIP3    H134905   4.410   0.468   9.229 -0.9342  0.1437 -1.5755
 3570TIP3    H234906   4.428   0.545   9.358  1.3427 -2.6600 -0.1147
 3571TIP3   OH234907   4.263   4.244   7.873  0.0937  0.3058  0.2654
 3571TIP3    H134908   4.224   4.330   7.888 -1.9009 -0.7879  1.8286
 3571TIP3    H234909   4.199   4.197   7.820 -0.1002 -1.0508  1.6163
 3572TIP3   OH234910   5.023   6.203   8.279  0.1820  0.6779  0.5754
 3572TIP3    H134911   5.077   6.261   8.227 -0.1895 -0.3182 -1.0096
 3572TIP3    H234912   5.084   6.139   8.315  0.2204  0.2261 -0.2693
 3573TIP3   OH234913   4.836   2.058   8.834 -0.1154  0.0849 -0.0707
 3573TIP3    H134914   4.794   2.009   8.763 -2.5486  1.1144  0.5917
 3573TIP3    H234915   4.906   2.107   8.791 -0.0679 -1.0597 -1.3536
 3574TIP3   OH234916   6.980   7.531   9.084  0.2130 -0.0240  0.2617
 3574TIP3    H134917   7.022   7.453   9.122  1.1549  0.4972  0.3116
 3574TIP3    H234918   6.975   7.593   9.157 -2.1024 -0.6243  0.6756
 3575TIP3   OH234919   7.128   7.042   8.350  0.4008 -0.1907  0.3068
 3575TIP3    H134920   7.158   7.115   8.296 -2.9090 -0.1215 -1.7464
 3575TIP3    H234921   7.180   6.967   8.319  2.5613  0.8496  1.1795
 3576TIP3   OH234922   6.122   2.721   9.188  0.2302 -0.1286 -0.2310
 3576TIP3    H134923   6.105   2.814   9.172  0.0477 -0.1462 -0.1420
 3576TIP3    H234924   6.111   2.679   9.103 -0.2436 -0.1492 -0.1629
 3577TIP3   OH234925   6.974   4.503   7.084 -0.3337 -0.4827 -0.0891
 3577TIP3    H134926   7.017   4.519   7.000 -1.1064 -0.8741 -0.5733
 3577TIP3    H234927   7.016   4.563   7.145  0.7154 -0.6869 -0.6013
 3578TIP3   OH234928   6.541   3.405   6.848 -0.1476 -0.1778  0.0288
 3578TIP3    H134929   6.614   3.450   6.804  0.7335 -0.6348  0.9734
 3578TIP3    H234930   6.554   3.313   6.829 -0.8670 -0.2082 -0.3389
 3579TIP3   OH234931   5.476   7.128   7.399 -0.0841 -0.6461 -0.0813
 3579TIP3    H134932   5.482   7.040   7.437 -1.3148 -1.2739 -1.2462
 3579TIP3    H234933   5.508   7.186   7.468  0.6546 -1.9880  0.7581
 3580TIP3   OH234934   2.058   3.526   9.519  0.0797  0.0205 -0.1285
 3580TIP3    H134935   2.084   3.612   9.484  1.2672 -0.9052 -1.6319
 3580TIP3    H234936   1.978   3.504   9.473 -1.4535  1.1962  1.7942
 3581TIP3   OH234937   2.184   5.498   9.336  0.5622 -0.0314 -0.2169
 3581TIP3    H134938   2.104   5.539   9.306 -0.2497  0.0713  1.9133
 3581TIP3    H234939   2.254   5.547   9.294 -0.4280 -0.7324 -2.8860
 3582TIP3   OH234940   1.930   0.680   7.104 -0.0639 -0.1632 -0.1963
 3582TIP3    H134941   2.012   0.704   7.062  0.4371  0.0028  0.8453
 3582TIP3    H234942   1.930   0.729   7.187 -0.9407 -0.6106  0.0863
 3583TIP3   OH234943   0.927   1.801   8.152 -0.1314 -0.2254  0.0926
 3583TIP3    H134944   0.906   1.862   8.222  0.4540  0.1821 -0.0866
 3583TIP3    H234945   0.977   1.731   8.194  0.7564  0.3309 -0.0230
 3584TIP3   OH234946   7.057   5.198   8.632  0.6284 -0.7543  0.2775
 3584TIP3    H134947   7.150   5.221   8.643  0.8274 -2.1673  1.8981
 3584TIP3    H234948   7.011   5.259   8.689  0.5484 -0.1038 -0.4679
 3585TIP3   OH234949   0.237   2.663   8.960  0.2295  0.7903 -0.4279
 3585TIP3    H134950   0.271   2.575   8.974  0.0570  0.8026  0.0914
 3585TIP3    H234951   0.163   2.651   8.901 -0.9204  0.3549  1.0448
 3586TIP3   OH234952   2.435   3.031   7.867 -0.2390  0.4669  0.4169
 3586TIP3    H134953   2.490   2.955   7.848  2.1459  2.4739 -1.3616
 3586TIP3    H234954   2.366   3.029   7.801  0.1849  0.1759 -0.0161
 3587TIP3   OH234955   6.717   7.117   8.650 -0.1662  0.0700 -0.5593
 3587TIP3    H134956   6.753   7.031   8.669 -1.2688 -0.2921  0.0375
 3587TIP3    H234957   6.783   7.161   8.597  0.6195 -0.9630 -0.4542
 3588TIP3   OH234958   1.772   2.167   8.187  0.1208 -0.2211 -0.3428
 3588TIP3    H134959   1.756   2.185   8.280 -1.2338 -0.2044 -0.5728
 3588TIP3    H234960   1.685   2.160   8.148  0.6709 -1.3221 -1.4130
 3589TIP3   OH234961   7.429   3.126   8.611 -0.6956 -0.1659 -1.0940
 3589TIP3    H134962   7.372   3.063   8.656  0.4069 -0.8269 -0.5850
 3589TIP3    H234963   7.515   3.113   8.650 -0.5557  2.1646 -0.4758
 3590TIP3   OH234964   6.732   7.381   8.867 -0.1610  0.1977 -0.1783
 3590TIP3    H134965   6.806   7.428   8.830 -1.0393  0.8843 -1.1045
 3590TIP3    H234966   6.655   7.426   8.833 -1.0141 -0.1979  1.1429
 3591TIP3   OH234967   1.895   7.194   7.410 -0.1921  0.1406  0.5127
 3591TIP3    H134968   1.887   7.104   7.443  0.6848 -0.3933 -0.6978
 3591TIP3    H234969   1.969   7.192   7.351 -1.8342  0.9981 -1.7181
 3592TIP3   OH234970   4.893   6.157   9.815  0.5609 -0.2224 -0.3718
 3592TIP3    H134971   4.953   6.225   9.844  0.4007 -0.9279  1.7353
 3592TIP3    H234972   4.813   6.204   9.791  0.2648  0.3476  1.5556
 3593TIP3   OH234973   0.412   5.886   9.131  0.1699  0.0529 -0.3704
 3593TIP3    H134974   0.498   5.928   9.125  0.6273 -0.9620 -1.0702
 3593TIP3    H234975   0.430   5.794   9.149 -0.7948 -0.0353  0.2247
 3594TIP3   OH234976   0.578   5.414   9.451  0.7187 -0.2541 -0.2423
 3594TIP3    H134977   0.562   5.508   9.466  0.5272 -0.4193  0.6467
 3594TIP3    H234978   0.669   5.402   9.478  0.2156 -0.6573  1.4088
 3595TIP3   OH234979   2.329   0.649   8.909  0.0400 -0.0768 -0.0298
 3595TIP3    H134980   2.255   0.636   8.968  0.4459 -0.5714  0.3703
 3595TIP3    H234981   2.351   0.561   8.878 -0.1019  0.1635 -0.8390
 3596TIP3   OH234982   3.232   0.303   9.511 -0.2574  0.0293  0.1969
 3596TIP3    H134983   3.285   0.234   9.471  0.9978  0.1680  1.5524
 3596TIP3    H234984   3.191   0.262   9.587  0.3454  0.7122  0.9046
 3597TIP3   OH234985   7.279   5.173   9.424 -0.1056  0.4270  0.3546
 3597TIP3    H134986   7.321   5.254   9.394 -0.1507  0.2357 -0.2385
 3597TIP3    H234987   7.283   5.178   9.519  2.3011 -0.1064  0.3460
 3598TIP3   OH234988   7.668   2.145   7.414 -0.1101  0.3370 -0.2790
 3598TIP3    H134989   7.608   2.190   7.473 -0.9426 -1.6288  0.4468
 3598TIP3    H234990   7.718   2.086   7.471  1.2606  0.6150 -1.1325
 3599TIP3   OH234991   1.478   0.385   8.784 -0.2966  0.0184  0.7103
 3599TIP3    H134992   1.505   0.433   8.862 -0.0185 -0.0344  0.6470
 3599TIP3    H234993   1.559   0.371   8.735 -0.7166  1.9703 -0.6834
 3600TIP3   OH234994   7.449   6.381   9.294  0.4529 -0.1667  0.4889
 3600TIP3    H134995   7.436   6.455   9.353 -2.1950 -0.9283  0.9580
 3600TIP3    H234996   7.532   6.401   9.249  0.5747  2.3183  1.6622
 3601TIP3   OH234997   2.972   0.684   7.165 -0.7492 -0.0400  0.7432
 3601TIP3    H134998   3.039   0.751   7.183 -0.3027  0.0121 -0.9664
 3601TIP3    H234999   2.890   0.725   7.192 -0.3098  0.6312  1.0974
 3602TIP3   OH235000   3.786   1.140   9.315 -0.7161 -0.0641 -0.1547
 3602TIP3    H135001   3.704   1.189   9.325 -0.8326 -0.3513  0.3483
 3602TIP3    H235002   3.782   1.104   9.226 -1.7051 -1.0762  0.2667
 3603TIP3   OH235003   3.019   6.291   6.848  0.1317  0.5891  0.1396
 3603TIP3    H135004   2.955   6.361   6.857 -0.2003  0.4111 -0.7524
 3603TIP3    H235005   2.971   6.211   6.867  0.0760  0.4564 -0.5165
 3604TIP3   OH235006   0.062   2.530   6.635  0.1223  0.0582  0.0022
 3604TIP3    H135007   0.063   2.610   6.584  0.7715 -0.5178 -0.9275
 3604TIP3    H235008   0.136   2.540   6.696  0.4225  0.0207 -0.3531
 3605TIP3   OH235009   3.907   2.854   7.553 -0.0417  0.1063 -0.2122
 3605TIP3    H135010   3.891   2.944   7.583  0.0376  0.1887 -0.4200
 3605TIP3    H235011   3.982   2.861   7.494 -1.4044  0.2564 -2.0187
 3606TIP3   OH235012   6.057   3.585   6.761  0.2942 -0.4519 -0.0451
 3606TIP3    H135013   6.142   3.626   6.776  0.7822 -1.0394 -1.0410
 3606TIP3    H235014   6.079   3.493   6.742 -0.4920 -0.4330 -1.0957
 3607TIP3   OH235015   2.210   7.037   7.706  0.0483  0.2779 -0.2136
 3607TIP3    H135016   2.220   6.966   7.770 -0.1289  0.2867 -0.1757
 3607TIP3    H235017   2.178   6.993   7.627  2.2092 -0.0450 -0.9581
 3608TIP3   OH235018   0.060   1.423   7.206 -0.2497  0.0651 -0.0751
 3608TIP3    H135019  -0.006   1.385   7.149  0.0750 -0.3807 -0.1568
 3608TIP3    H235020   0.023   1.415   7.294 -0.2121 -0.3848 -0.0979
 3609TIP3   OH235021   7.251   2.549   8.583 -0.4815 -0.0251  0.1958
 3609TIP3    H135022   7.260   2.455   8.570 -1.8187 -0.1367 -0.1506
 3609TIP3    H235023   7.187   2.557   8.654  0.4330  0.6261  0.9605
 3610TIP3   OH235024   3.476   0.830   7.728  0.0379  0.0235  0.4870
 3610TIP3    H135025   3.419   0.871   7.663  0.4663 -1.2857 -0.7817
 3610TIP3    H235026   3.541   0.897   7.749 -1.6703  1.4201  1.6834
 3611TIP3   OH235027   7.449   5.456   7.771 -0.0379 -0.1906  0.3489
 3611TIP3    H135028   7.388   5.464   7.697  0.1340 -1.2876  0.0701
 3611TIP3    H235029   7.483   5.545   7.784 -2.0015  0.5373  0.7849
 3612TIP3   OH235030   6.746   4.802   8.022 -0.6353  0.2025 -0.2034
 3612TIP3    H135031   6.664   4.851   8.008  0.7052  2.3341 -1.1059
 3612TIP3    H235032   6.798   4.859   8.079  0.0526 -1.3704  0.8038
 3613TIP3   OH235033   6.937   2.657   7.428  0.1155 -0.1854  0.1244
 3613TIP3    H135034   6.877   2.728   7.451  0.1974 -0.0696 -0.0133
 3613TIP3    H235035   6.954   2.612   7.510 -0.9575 -0.8515  0.0051
 3614TIP3   OH235036   1.843   5.609   8.963 -0.2742  0.1989  0.1418
 3614TIP3    H135037   1.819   5.641   8.876  1.0979 -0.7262 -0.6225
 3614TIP3    H235038   1.896   5.679   9.001 -0.2377  0.3003 -0.0930
 3615TIP3   OH235039   7.504   2.670   8.315  0.1425 -0.5634  0.3070
 3615TIP3    H135040   7.574   2.605   8.330 -0.5641 -0.8953  2.5620
 3615TIP3    H235041   7.516   2.734   8.385 -1.8947 -0.7413  0.8810
 3616TIP3   OH235042   6.268   6.591   7.614  0.1813  0.2443  0.4918
 3616TIP3    H135043   6.327   6.627   7.680  1.6780 -1.3939  0.1351
 3616TIP3    H235044   6.217   6.665   7.583  0.4898  1.3078  2.4244
 3617TIP3   OH235045   2.233   0.168   8.786  0.1410 -0.8231  0.4204
 3617TIP3    H135046   2.192   0.216   8.714  0.7755 -2.1469 -0.8785
 3617TIP3    H235047   2.327   0.169   8.765  0.3907 -0.9242  1.4389
 3618TIP3   OH235048   0.885   4.696   8.401  0.2641 -0.1298  0.4536
 3618TIP3    H135049   0.809   4.667   8.349  0.7630 -0.7625  0.0472
 3618TIP3    H235050   0.915   4.616   8.445  1.5972 -0.2506 -0.5809
 3619TIP3   OH235051   0.666   1.169   7.618  0.2364 -0.4325 -0.0570
 3619TIP3    H135052   0.753   1.151   7.656  0.1819 -0.4120  0.0787
 3619TIP3    H235053   0.613   1.093   7.644  0.1000 -0.2447  0.2199
 3620TIP3   OH235054   0.892   5.415   8.609 -0.6278 -0.2808  0.3186
 3620TIP3    H135055   0.875   5.421   8.703  0.2286 -0.6236  0.5092
 3620TIP3    H235056   0.852   5.333   8.582 -2.8323  0.8517 -0.0910
 3621TIP3   OH235057   4.493   7.483   7.736 -0.5715  0.6619 -0.0498
 3621TIP3    H135058   4.490   7.564   7.787  1.6446  0.2007  0.9065
 3621TIP3    H235059   4.578   7.486   7.692 -1.7299  0.2537 -2.4648
 3622TIP3   OH235060   2.966   3.926   8.395  0.3121 -1.5586  0.1524
 3622TIP3    H135061   2.883   3.975   8.390  1.0233 -0.3071  0.0975
 3622TIP3    H235062   2.990   3.910   8.304  1.9032  1.2974 -0.0599
 3623TIP3   OH235063   1.279   3.696   8.233  0.5480 -0.2521  0.4387
 3623TIP3    H135064   1.308   3.781   8.199  1.0721  0.1411  1.7820
 3623TIP3    H235065   1.339   3.678   8.305 -0.9621 -0.6580  1.6501
 3624TIP3   OH235066   1.947   2.446   8.286 -0.4569 -0.4658 -0.6696
 3624TIP3    H135067   1.925   2.412   8.372  0.6154 -0.3891 -0.3486
 3624TIP3    H235068   1.961   2.368   8.232  0.0992 -0.5238 -0.4432
 3625TIP3   OH235069   6.983   3.562   6.414 -0.9789 -0.0900 -0.2572
 3625TIP3    H135070   6.997   3.652   6.445  1.1464 -0.7670  0.9519
 3625TIP3    H235071   7.026   3.559   6.329 -0.3597 -0.1585  0.0548
 3626TIP3   OH235072   5.631   6.073   7.481  0.2986 -0.4188  0.0612
 3626TIP3    H135073   5.575   5.997   7.491  1.0529 -1.0109 -0.1216
 3626TIP3    H235074   5.689   6.051   7.408  1.9923 -0.6053  1.3876
 3627TIP3   OH235075   1.691   4.280   7.612  0.3425 -0.2938 -0.3186
 3627TIP3    H135076   1.702   4.366   7.570  0.0630 -0.3781 -0.5686
 3627TIP3    H235077   1.608   4.247   7.577  1.0093 -1.1729 -1.0878
 3628TIP3   OH235078   1.838   5.258   7.201  0.1118 -0.0083 -0.3872
 3628TIP3    H135079   1.804   5.217   7.121  3.3339  0.8235 -2.3749
 3628TIP3    H235080   1.816   5.351   7.191  0.6485  0.1192 -0.4152
 3629TIP3   OH235081   4.134   4.532   8.303  0.4591  0.9419 -0.0960
 3629TIP3    H135082   4.073   4.494   8.240 -1.7994  0.9746  1.9199
 3629TIP3    H235083   4.098   4.619   8.321  0.8635  0.8109  1.4412
 3630TIP3   OH235084   0.596   5.821   8.057 -0.7613 -0.0649 -0.3302
 3630TIP3    H135085   0.539   5.746   8.073 -0.7741 -0.1303 -0.6743
 3630TIP3    H235086   0.673   5.805   8.113 -0.0165 -1.1760 -1.6083
 3631TIP3   OH235087   1.500   7.466   7.804 -0.2958 -0.2773 -0.2831
 3631TIP3    H135088   1.436   7.397   7.790  0.0189 -0.2895 -1.8100
 3631TIP3    H235089   1.584   7.425   7.785  0.3708 -0.5773  2.7507
 3632TIP3   OH235090   1.146   4.284   9.138 -0.6472  0.0090  0.3601
 3632TIP3    H135091   1.088   4.320   9.071  1.2486 -1.8108 -2.4823
 3632TIP3    H235092   1.215   4.349   9.147 -1.0632  0.3956  0.7963
 3633TIP3   OH235093   3.404   3.260   8.851 -0.5627 -0.4516 -0.5072
 3633TIP3    H135094   3.328   3.205   8.871 -1.2249  0.6007 -0.0519
 3633TIP3    H235095   3.395   3.282   8.759 -0.5997 -0.6374 -0.5489
 3634TIP3   OH235096   2.644   4.140   9.201 -0.4048 -0.5381 -0.0329
 3634TIP3    H135097   2.576   4.075   9.185 -0.2060 -1.8977  3.7146
 3634TIP3    H235098   2.725   4.096   9.174 -0.4846 -1.0698  0.5653
 3635TIP3   OH235099   0.716   0.702   9.123 -0.3047  0.2703  0.1723
 3635TIP3    H135100   0.754   0.714   9.036  0.8654 -0.3622  0.5798
 3635TIP3    H235101   0.749   0.617   9.153 -0.6728  0.4826  1.2408
 3636TIP3   OH235102   2.146   7.348   8.899 -0.4929 -0.2612 -0.0642
 3636TIP3    H135103   2.118   7.439   8.912 -0.4833 -0.4535  1.5841
 3636TIP3    H235104   2.112   7.324   8.813  0.9499  1.8143 -1.3233
 3637TIP3   OH235105   4.357   3.666   7.178  0.3952  0.2112  1.0065
 3637TIP3    H135106   4.372   3.613   7.100  0.4317  1.0498  0.4250
 3637TIP3    H235107   4.293   3.732   7.150  0.4733  0.5743  1.6581
 3638TIP3   OH235108   0.297   6.494   8.188 -0.0677  0.8584 -0.2839
 3638TIP3    H135109   0.299   6.463   8.098 -1.2781  0.2484 -0.1343
 3638TIP3    H235110   0.389   6.496   8.215  0.4038  2.0721 -1.8367
 3639TIP3   OH235111   2.775   2.262   8.517 -0.3817  0.3633  0.1441
 3639TIP3    H135112   2.681   2.270   8.534 -0.0449  0.3152  2.3329
 3639TIP3    H235113   2.787   2.171   8.490 -0.9463  0.3178  0.0340
 3640TIP3   OH235114   1.046   6.483   7.621  0.6645  0.5292  0.1072
 3640TIP3    H135115   1.007   6.502   7.536  0.0983  1.1491  0.4976
 3640TIP3    H235116   0.993   6.412   7.656 -0.7727  1.9909  1.0445
 3641TIP3   OH235117   2.791   4.849   7.562 -0.4351 -0.1560 -0.3274
 3641TIP3    H135118   2.830   4.844   7.475  1.7665  1.1612  0.4974
 3641TIP3    H235119   2.785   4.759   7.592 -0.0125 -0.5317 -1.3458
 3642TIP3   OH235120   6.570   1.515   7.716 -0.7562  0.3727  0.0254
 3642TIP3    H135121   6.558   1.420   7.720  1.7426 -0.1122 -1.7963
 3642TIP3    H235122   6.659   1.529   7.749 -1.0114  2.0636  0.0429
 3643TIP3   OH235123   1.845   3.624   7.505 -0.4124  0.1070 -0.0640
 3643TIP3    H135124   1.811   3.553   7.450  1.5037 -2.2926  1.6269
 3643TIP3    H235125   1.777   3.640   7.570 -0.0381 -1.8141  0.8718
 3644TIP3   OH235126   3.595   0.412   8.986 -0.2931  0.1966 -0.4634
 3644TIP3    H135127   3.591   0.439   9.078  0.7849  1.6665 -0.8187
 3644TIP3    H235128   3.513   0.365   8.972  0.5522 -2.2804  1.9028
 3645TIP3   OH235129   5.720   2.965   6.974 -0.7731  0.0915  0.2094
 3645TIP3    H135130   5.754   2.918   7.050  0.3846  1.6880  0.7336
 3645TIP3    H235131   5.794   2.969   6.913 -1.1409  0.4190 -0.2233
 3646TIP3   OH235132   7.433   2.343   8.298 -0.0171  0.0194  0.1407
 3646TIP3    H135133   7.512   2.353   8.246  1.0616 -1.1393  1.4825
 3646TIP3    H235134   7.457   2.372   8.385 -1.1210 -0.2009  0.5398
 3647TIP3   OH235135   4.901   4.717   9.233  0.6480  0.4433  0.7037
 3647TIP3    H135136   4.906   4.671   9.317 -1.6725 -0.5675  0.3494
 3647TIP3    H235137   4.953   4.663   9.173  2.1320  1.0519  1.3856
 3648TIP3   OH235138   4.985   3.155   7.717 -0.3248 -0.3559 -0.3571
 3648TIP3    H135139   4.968   3.248   7.732  1.2902  0.7211 -3.9645
 3648TIP3    H235140   5.073   3.152   7.679 -0.7883 -3.1787 -1.5031
 3649TIP3   OH235141   5.111   6.721   6.994  0.0116  0.5437 -0.3489
 3649TIP3    H135142   5.167   6.658   6.950  0.8267  0.7574  0.3561
 3649TIP3    H235143   5.164   6.800   7.002  0.1197  0.3431  1.4850
 3650TIP3   OH235144   2.218   6.755   9.264  0.6289 -0.3253  0.0758
 3650TIP3    H135145   2.222   6.843   9.226  0.9998 -0.3342  0.0972
 3650TIP3    H235146   2.237   6.697   9.190 -1.2855 -0.4884 -0.3428
 3651TIP3   OH235147   7.468   4.883   6.551 -0.0085 -0.1919 -0.2985
 3651TIP3    H135148   7.478   4.978   6.553  3.2672 -0.3663 -1.8995
 3651TIP3    H235149   7.461   4.861   6.458  2.0265 -1.6490 -0.1729
 3652TIP3   OH235150   4.244   0.263   9.548  0.0315 -0.1277  0.1233
 3652TIP3    H135151   4.238   0.296   9.637 -1.6284  0.4276 -0.1475
 3652TIP3    H235152   4.316   0.312   9.509 -1.5351  2.3938  0.1166
 3653TIP3   OH235153   4.905   6.019   8.084 -0.4329  0.2136 -0.2006
 3653TIP3    H135154   4.906   6.070   8.165 -0.1460 -1.4279  0.8851
 3653TIP3    H235155   4.916   6.084   8.015  1.9540  1.4347  1.1831
 3654TIP3   OH235156   7.443   5.206   6.221 -0.0955  0.5898  0.1198
 3654TIP3    H135157   7.391   5.126   6.230 -0.5001  0.9452  1.1258
 3654TIP3    H235158   7.380   5.277   6.238 -0.0858  1.2327 -2.1304
 3655TIP3   OH235159   3.189   0.335   8.010 -0.1203  0.0412  0.2983
 3655TIP3    H135160   3.140   0.367   7.934  0.1277  1.1757  0.5927
 3655TIP3    H235161   3.261   0.284   7.973 -0.9322 -0.8064 -0.1637
 3656TIP3   OH235162   2.366   6.224   8.800 -0.3730 -0.4039  0.4734
 3656TIP3    H135163   2.460   6.240   8.799 -0.6784  1.5384 -0.8185
 3656TIP3    H235164   2.355   6.154   8.865  1.7423  0.6192  2.0450
 3657TIP3   OH235165   0.367   4.007   7.440 -0.2618 -0.0963  0.2930
 3657TIP3    H135166   0.431   4.003   7.369 -3.0371  0.1679 -2.4669
 3657TIP3    H235167   0.387   3.933   7.496  1.9174 -0.4821 -0.9002
 3658TIP3   OH235168   5.176   0.985   8.180 -0.2950  0.4172 -0.2198
 3658TIP3    H135169   5.151   0.907   8.230 -0.1186  0.2087 -0.4591
 3658TIP3    H235170   5.144   1.058   8.234 -0.9404  0.1691 -0.2546
 3659TIP3   OH235171   4.082   5.675   8.587 -0.2117  0.3171  0.4849
 3659TIP3    H135172   4.003   5.634   8.550 -0.3738 -0.6485  1.8427
 3659TIP3    H235173   4.053   5.763   8.612 -0.5794  0.3304  0.0453
 3660TIP3   OH235174   3.785   3.857   8.791  0.1861  0.4057  0.6037
 3660TIP3    H135175   3.721   3.815   8.848  0.0096  0.3874  0.3911
 3660TIP3    H235176   3.836   3.913   8.850  1.0858 -0.8606  1.0659
 3661TIP3   OH235177   3.516   6.144   9.305 -0.2179 -0.3416  0.0973
 3661TIP3    H135178   3.494   6.197   9.382 -0.8201 -0.9979  0.3929
 3661TIP3    H235179   3.611   6.153   9.296 -0.4121  1.7825 -0.6148
 3662TIP3   OH235180   2.586   7.530   7.427 -0.0577  0.2985 -0.6386
 3662TIP3    H135181   2.513   7.592   7.416  0.5556  1.2228  0.2526
 3662TIP3    H235182   2.603   7.498   7.339 -0.8837  0.8394 -1.0161
 3663TIP3   OH235183   4.485   7.258   7.562  0.4881 -0.1475 -0.2100
 3663TIP3    H135184   4.480   7.346   7.524 -1.3459  0.0198  0.3031
 3663TIP3    H235185   4.509   7.274   7.653 -0.6782 -0.0729  0.1053
 3664TIP3   OH235186   1.169   1.307   7.784 -0.1453 -0.3317  1.1139
 3664TIP3    H135187   1.140   1.342   7.700 -0.3686  0.0964  1.3672
 3664TIP3    H235188   1.244   1.361   7.808  0.4240 -0.9682  0.8111
 3665TIP3   OH235189   3.279   6.412   7.780  0.3577  0.2834 -0.1280
 3665TIP3    H135190   3.367   6.422   7.742 -0.2245  2.3750 -1.0680
 3665TIP3    H235191   3.226   6.376   7.709  0.1968  0.1205  0.0730
 3666TIP3   OH235192   6.672   5.031   8.352 -0.4525 -0.4768  0.0225
 3666TIP3    H135193   6.694   5.038   8.259 -1.3372 -1.4978 -0.2811
 3666TIP3    H235194   6.757   5.023   8.396 -0.0727 -3.3525 -1.0171
 3667TIP3   OH235195   4.119   3.305   8.331  0.0027 -0.0422  0.2516
 3667TIP3    H135196   4.086   3.251   8.403  1.3506  0.2951  1.1747
 3667TIP3    H235197   4.062   3.382   8.330 -0.7061 -0.5648  0.2318
 3668TIP3   OH235198   7.656   4.425   8.767 -0.2921  0.0408 -0.1703
 3668TIP3    H135199   7.621   4.403   8.680 -0.2814  1.6075 -0.5917
 3668TIP3    H235200   7.600   4.496   8.798  0.6298  0.5096  0.4554
 3669TIP3   OH235201   1.413   3.768   9.286 -0.3806 -0.5169 -0.0817
 3669TIP3    H135202   1.418   3.851   9.334 -0.7068 -1.0428  0.8792
 3669TIP3    H235203   1.458   3.705   9.341 -0.8342 -1.1539 -0.4277
 3670TIP3   OH235204   4.454   7.500   7.423  0.2818  0.3985  0.2305
 3670TIP3    H135205   4.359   7.494   7.413  0.2660  0.0705  0.5603
 3670TIP3    H235206   4.479   7.574   7.367 -0.0350 -0.1898 -0.7115
 3671TIP3   OH235207   5.235   2.326   8.848  0.7638 -0.4800  0.1090
 3671TIP3    H135208   5.156   2.369   8.814 -0.2668 -0.9444  1.7828
 3671TIP3    H235209   5.284   2.301   8.770  0.5502  2.1108 -0.9720
 3672TIP3   OH235210   1.308   4.487   8.976 -0.2619 -0.5313  0.2724
 3672TIP3    H135211   1.276   4.413   8.925  0.3046 -0.1443 -0.6770
 3672TIP3    H235212   1.404   4.482   8.967 -0.2548  0.9699 -0.7767
 3673TIP3   OH235213   3.943   4.401   7.208  0.0761 -0.0705 -0.8031
 3673TIP3    H135214   4.001   4.477   7.217 -0.2091 -0.0680  1.7219
 3673TIP3    H235215   3.996   4.328   7.239 -1.1658 -0.0918  1.3912
 3674TIP3   OH235216   6.000   3.713   7.267  0.7284 -0.5631 -0.0123
 3674TIP3    H135217   5.927   3.653   7.248  0.1100  0.1274  0.1326
 3674TIP3    H235218   5.976   3.754   7.350  0.4273  0.9440 -0.8158
 3675TIP3   OH235219   6.281   1.859   7.355  0.1428  0.2515  0.5838
 3675TIP3    H135220   6.295   1.826   7.266  0.5421 -0.9659  1.0910
 3675TIP3    H235221   6.358   1.914   7.372  0.8229 -0.7351  0.7367
 3676TIP3   OH235222   1.562   4.850   7.908  0.0207  0.5363 -0.3445
 3676TIP3    H135223   1.651   4.821   7.888  0.4709 -0.5934  2.7735
 3676TIP3    H235224   1.572   4.938   7.942  0.2484 -0.2213  1.6693
 3677TIP3   OH235225   0.034   1.266   7.713 -0.2934 -0.8535 -0.1712
 3677TIP3    H135226   0.020   1.175   7.738  2.5818 -1.2761  0.3216
 3677TIP3    H235227   0.007   1.317   7.790 -0.6729 -1.3898  0.0527
 3678TIP3   OH235228   3.364   1.227   8.287  0.5149 -0.7058 -0.1458
 3678TIP3    H135229   3.392   1.149   8.336 -0.5416  0.4692  2.5542
 3678TIP3    H235230   3.272   1.210   8.267 -0.2841  0.5212  2.1441
 3679TIP3   OH235231   6.330   5.009   7.278  0.7132  0.3568  0.1388
 3679TIP3    H135232   6.336   4.955   7.357 -3.1610 -0.7766 -0.1154
 3679TIP3    H235233   6.343   4.947   7.205 -0.1285  0.4739 -0.1207
 3680TIP3   OH235234   0.600   7.288   8.520 -0.1441 -0.5521 -0.4466
 3680TIP3    H135235   0.644   7.264   8.601  0.7193 -0.9994 -1.0343
 3680TIP3    H235236   0.527   7.344   8.548 -0.0011 -0.8911  0.6464
 3681TIP3   OH235237   6.125   0.094   8.371  0.7284 -0.6093  0.0706
 3681TIP3    H135238   6.042   0.134   8.347  0.9982  0.6873  1.1547
 3681TIP3    H235239   6.101   0.008   8.407 -0.0824 -0.5065 -0.2153
 3682TIP3   OH235240   1.833   6.229   7.459 -0.1566  0.2525 -0.0725
 3682TIP3    H135241   1.763   6.223   7.394  0.4116 -0.4921 -0.6317
 3682TIP3    H235242   1.790   6.261   7.538 -1.3517 -1.1804 -0.0949
 3683TIP3   OH235243   4.728   3.549   9.502  0.0388 -0.1433  0.6934
 3683TIP3    H135244   4.789   3.479   9.523  1.4543 -0.1990 -2.9142
 3683TIP3    H235245   4.776   3.604   9.439 -2.5224  1.6539  0.1713
 3684TIP3   OH235246   6.088   1.736   7.670  0.2155  0.4278  0.5207
 3684TIP3    H135247   6.013   1.687   7.705  1.4095 -1.1303  1.0111
 3684TIP3    H235248   6.163   1.678   7.683  1.5620  2.0260  0.2202
 3685TIP3   OH235249   2.926   4.640   8.787  0.2680  0.7712 -0.2426
 3685TIP3    H135250   2.835   4.610   8.780  0.7392 -0.5462 -1.1842
 3685TIP3    H235251   2.939   4.694   8.710  0.2615  1.0454 -0.0532
 3686TIP3   OH235252   0.279   3.258   8.854 -0.2984 -0.4330  0.4527
 3686TIP3    H135253   0.356   3.294   8.810 -1.3458  0.2919 -0.8738
 3686TIP3    H235254   0.266   3.316   8.930 -0.0543 -0.0147  0.1833
 3687TIP3   OH235255   2.717   3.799   7.758  0.2267 -0.0243 -0.1325
 3687TIP3    H135256   2.740   3.822   7.848 -0.2123 -0.5889  0.1319
 3687TIP3    H235257   2.768   3.721   7.739 -0.8179 -0.8096  0.1783
 3688TIP3   OH235258   2.872   5.135   7.904 -0.6141  0.2276  0.3146
 3688TIP3    H135259   2.845   5.052   7.864 -0.0926  0.8290 -1.3728
 3688TIP3    H235260   2.883   5.194   7.830 -0.2475  1.6037  1.4368
 3689TIP3   OH235261   5.976   5.255   7.400 -0.1372  0.4428  0.5243
 3689TIP3    H135262   5.998   5.186   7.463 -3.5036 -1.2865  0.0641
 3689TIP3    H235263   5.938   5.325   7.453  0.3172  0.5447  0.7172
 3690TIP3   OH235264   6.519   0.804   9.237 -0.5172 -0.3255  0.0663
 3690TIP3    H135265   6.517   0.717   9.275 -2.2135 -0.2431  0.2484
 3690TIP3    H235266   6.474   0.795   9.152  0.4077  0.1265 -0.4853
 3691TIP3   OH235267   3.345   1.992   7.596  0.1008  0.1795 -0.1871
 3691TIP3    H135268   3.278   1.927   7.575 -0.9326  0.4385  1.9749
 3691TIP3    H235269   3.379   2.020   7.512 -1.0918 -1.4345 -1.2663
 3692TIP3   OH235270   7.452   2.728   8.584 -0.4130  0.5420 -0.1508
 3692TIP3    H135271   7.400   2.804   8.610 -0.4367  0.6638 -0.5489
 3692TIP3    H235272   7.393   2.654   8.596  0.0508  0.3999  1.6166
 3693TIP3   OH235273   2.596   3.992   8.776 -0.7631 -0.5852 -1.0598
 3693TIP3    H135274   2.639   3.976   8.860 -1.9697  1.7010  0.0901
 3693TIP3    H235275   2.664   4.028   8.720 -0.0726 -1.6485 -0.9416
 3694TIP3   OH235276   7.280   2.918   8.672 -0.5466  0.1863  0.3217
 3694TIP3    H135277   7.292   2.907   8.767 -0.8697 -0.3612  0.3031
 3694TIP3    H235278   7.196   2.877   8.654 -0.3552  0.0391 -0.2522
 3695TIP3   OH235279   4.933   7.640   8.189  0.6037  0.2574 -0.1411
 3695TIP3    H135280   4.854   7.677   8.229  0.5334 -0.7979  0.7311
 3695TIP3    H235281   5.004   7.673   8.245  0.6434 -0.0204 -0.0292
 3696TIP3   OH235282   4.546   7.193   6.961 -0.1884 -0.0096  0.1712
 3696TIP3    H135283   4.515   7.121   7.015  2.8270  0.0403  2.1955
 3696TIP3    H235284   4.596   7.249   7.021 -1.8472  3.5069 -1.4242
 3697TIP3   OH235285   1.087   6.912   9.504 -0.8287  0.0836 -0.3112
 3697TIP3    H135286   1.046   6.957   9.578 -0.5353  2.9557 -1.7257
 3697TIP3    H235287   1.079   6.974   9.432  3.8742 -0.0237 -1.2801
 3698TIP3   OH235288   3.652   7.476   8.353  0.3826  0.0549  0.6855
 3698TIP3    H135289   3.566   7.434   8.349  0.8591 -0.8479 -0.7251
 3698TIP3    H235290   3.639   7.562   8.313  0.1239 -0.0758  0.4864
 3699TIP3   OH235291   0.058   0.154   8.355  0.0963  0.0218 -0.2662
 3699TIP3    H135292   0.133   0.184   8.304 -0.7671  0.1560 -1.4857
 3699TIP3    H235293   0.023   0.081   8.305 -0.9572  0.3507 -0.0299
 3700TIP3   OH235294   2.777   4.757   8.486  0.0874  0.3239  0.4257
 3700TIP3    H135295   2.861   4.775   8.528 -0.1658  0.5958  0.8292
 3700TIP3    H235296   2.747   4.675   8.524  0.6691 -0.3418 -0.5142
 3701TIP3   OH235297   6.102   4.813   7.260  0.1778 -0.4580 -0.0434
 3701TIP3    H135298   6.143   4.811   7.174 -1.8468 -2.2689 -1.0421
 3701TIP3    H235299   6.024   4.868   7.248  0.2403 -0.1525  0.8425
 3702TIP3   OH235300   7.186   0.144   7.238  0.2123 -0.1283  0.1811
 3702TIP3    H135301   7.145   0.095   7.310  0.2768 -0.4503 -0.0056
 3702TIP3    H235302   7.237   0.212   7.283  0.6663 -0.6432  0.4596
 3703TIP3   OH235303   2.401   5.164   7.565  0.1408 -0.8848 -0.1300
 3703TIP3    H135304   2.393   5.074   7.535  0.7275 -0.8954 -0.2645
 3703TIP3    H235305   2.482   5.195   7.526 -0.2208 -0.1908 -0.3484
 3704TIP3   OH235306   6.614   1.266   6.939  0.2668  0.0177 -0.1600
 3704TIP3    H135307   6.616   1.301   7.028  1.1570 -1.1358  0.2930
 3704TIP3    H235308   6.691   1.305   6.897  0.8043 -0.7532  0.0998
 3705TIP3   OH235309   1.772   6.332   7.708 -0.1932  0.1816  0.0108
 3705TIP3    H135310   1.853   6.359   7.753 -0.2638  0.8350 -0.2436
 3705TIP3    H235311   1.721   6.413   7.701 -0.0663  0.1505 -1.4861
 3706TIP3   OH235312   3.819   3.525   6.626 -0.2490  0.2179  0.2572
 3706TIP3    H135313   3.836   3.440   6.584 -0.6478  0.5491 -0.5858
 3706TIP3    H235314   3.900   3.543   6.674 -0.1795 -0.6677  0.5004
 3707TIP3   OH235315   1.540   0.957   8.721  0.9823  0.0220 -0.0192
 3707TIP3    H135316   1.560   1.043   8.758  1.0192  0.7750 -1.7055
 3707TIP3    H235317   1.616   0.935   8.668  1.7222 -1.8768  1.7028
 3708TIP3   OH235318   5.523   2.629   6.983 -0.2862  0.0448  0.0731
 3708TIP3    H135319   5.503   2.712   6.941 -0.0361  0.0987  0.0606
 3708TIP3    H235320   5.559   2.574   6.913  0.1846  0.1536  0.2258
 3709TIP3   OH235321   3.876   2.558   8.128  0.1618 -0.4325  0.0311
 3709TIP3    H135322   3.791   2.591   8.098  0.1919 -1.0320 -0.7297
 3709TIP3    H235323   3.914   2.632   8.176 -0.5640  0.0146 -0.0623
 3710TIP3   OH235324   4.216   0.028   9.416  0.1040 -0.0293  0.5697
 3710TIP3    H135325   4.184   0.116   9.436 -1.7292 -0.5349 -0.0200
 3710TIP3    H235326   4.214  -0.018   9.500  0.2612  0.2279  0.7172
 3711TIP3   OH235327   3.984   6.069   6.886  0.4013 -0.0415 -0.2508
 3711TIP3    H135328   3.966   6.150   6.838  1.6287  0.8105  0.6575
 3711TIP3    H235329   3.901   6.046   6.927 -0.0890  0.4701 -0.9405
 3712TIP3   OH235330   0.258   2.256   7.601  0.7634 -0.2022  0.1256
 3712TIP3    H135331   0.173   2.232   7.638  0.7547  1.0157  0.9621
 3712TIP3    H235332   0.322   2.213   7.658  0.7499 -2.0176 -1.1367
 3713TIP3   OH235333   0.076   6.044   6.864 -0.6998  0.2990  0.3637
 3713TIP3    H135334   0.086   6.125   6.914  2.6028  1.0410 -1.1918
 3713TIP3    H235335   0.164   6.006   6.863 -2.1648 -3.4795  1.1495
 3714TIP3   OH235336   0.771   4.132   7.193  0.4061 -0.1172  0.7797
 3714TIP3    H135337   0.794   4.065   7.129 -0.1012 -0.4161  0.9076
 3714TIP3    H235338   0.759   4.084   7.275 -1.8840 -0.1750  0.4787
 3715TIP3   OH235339   6.467   5.307   9.076  0.3095 -0.0471  0.3886
 3715TIP3    H135340   6.539   5.363   9.105  0.0490 -0.2211  1.4360
 3715TIP3    H235341   6.480   5.225   9.125  0.2385 -0.6266 -0.5246
 3716TIP3   OH235342   6.937   5.928   9.472  0.6632 -0.0007  0.7008
 3716TIP3    H135343   6.873   5.998   9.482  0.9847  0.3942  0.0836
 3716TIP3    H235344   7.022   5.972   9.484  0.8125 -0.7093  2.6077
 3717TIP3   OH235345   3.432   7.062   8.846 -0.1219  0.3249 -0.5930
 3717TIP3    H135346   3.521   7.059   8.882  0.6573 -0.6484 -2.4792
 3717TIP3    H235347   3.438   7.121   8.771 -1.3721  1.1514 -0.0848
 3718TIP3   OH235348   4.861   3.034   8.213  0.1967  0.1596  0.1899
 3718TIP3    H135349   4.890   2.959   8.264 -0.7319 -0.3263  0.0356
 3718TIP3    H235350   4.905   3.024   8.129  0.7995  0.3078  0.4808
 3719TIP3   OH235351   2.246   4.071   8.902 -0.2026  0.4382  1.1654
 3719TIP3    H135352   2.241   4.076   8.807  1.7830 -2.1234  0.8172
 3719TIP3    H235353   2.160   4.099   8.932 -0.1973  3.5304 -1.1968
 3720TIP3   OH235354   0.877   6.991   7.647 -0.3367  0.1284 -0.6193
 3720TIP3    H135355   0.949   7.050   7.625 -1.0219  1.5133  0.6645
 3720TIP3    H235356   0.896   6.911   7.598  2.2571  0.3065 -0.0671
 3721TIP3   OH235357   3.279   5.084   9.153  0.0205  0.1771  0.0977
 3721TIP3    H135358   3.270   5.009   9.094  0.3206 -0.1880  0.5195
 3721TIP3    H235359   3.336   5.145   9.104 -0.1531  0.0979 -0.2074
 3722TIP3   OH235360   2.261   3.039   8.382  0.1624 -0.3742  0.0142
 3722TIP3    H135361   2.296   3.036   8.293 -1.1344  0.7967 -0.5776
 3722TIP3    H235362   2.315   3.103   8.428 -0.4862  0.6346 -0.5837
 3723TIP3   OH235363   5.252   3.282   6.801 -0.1917 -0.1165  0.0143
 3723TIP3    H135364   5.223   3.192   6.791  0.8103 -0.2977 -1.5055
 3723TIP3    H235365   5.173   3.335   6.789 -0.5554 -0.7378 -0.3616
 3724TIP3   OH235366   1.255   2.301   8.904  0.0317 -0.3605 -0.0322
 3724TIP3    H135367   1.211   2.297   8.819 -1.3821 -1.4713  0.7163
 3724TIP3    H235368   1.344   2.271   8.887 -0.5241 -1.5431 -0.9558
 3725TIP3   OH235369   4.818   5.532   9.356 -0.0709 -0.0643  0.2353
 3725TIP3    H135370   4.907   5.495   9.356 -0.9161 -2.2814  0.5143
 3725TIP3    H235371   4.812   5.580   9.274  1.4798  0.4131  0.3667
 3726TIP3   OH235372   2.695   1.810   7.083  0.0101 -0.3148  0.6943
 3726TIP3    H135373   2.690   1.905   7.070  0.9108 -0.4131 -0.5416
 3726TIP3    H235374   2.782   1.787   7.052 -0.2164 -1.5565  0.9593
 3727TIP3   OH235375   5.561   0.448   6.946  0.6688  0.0198 -0.2112
 3727TIP3    H135376   5.504   0.472   7.020  1.3523 -2.2985  1.1720
 3727TIP3    H235377   5.567   0.528   6.894 -0.6667  1.4719  1.6972
 3728TIP3   OH235378   2.399   1.152   8.627  0.4513 -0.1806 -0.0057
 3728TIP3    H135379   2.466   1.114   8.570  0.4206 -0.2706  0.0169
 3728TIP3    H235380   2.446   1.210   8.685  1.0063 -2.5340  2.0853
 3729TIP3   OH235381   5.394   4.924   8.172  0.5496 -0.5044 -0.1504
 3729TIP3    H135382   5.383   5.008   8.128  1.2481 -0.7701 -0.8626
 3729TIP3    H235383   5.426   4.946   8.260 -2.3086  0.1079  0.8324
 3730TIP3   OH235384   7.164   4.169   9.084 -0.0227 -0.0284  0.0223
 3730TIP3    H135385   7.204   4.109   9.147  2.7339  1.3244 -0.2904
 3730TIP3    H235386   7.123   4.111   9.019  1.5554 -1.5827  0.3258
 3731TIP3   OH235387   1.220   5.831   6.553 -0.5000 -0.3373  0.3433
 3731TIP3    H135388   1.282   5.892   6.512 -1.3769  1.1535  1.1361
 3731TIP3    H235389   1.249   5.823   6.643 -0.0436 -1.6209  0.1063
 3732TIP3   OH235390   3.356   1.944   7.028  0.0728  0.1684  0.2597
 3732TIP3    H135391   3.333   2.016   6.968  1.0176 -1.3334 -2.0594
 3732TIP3    H235392   3.299   1.872   7.002  0.0116 -0.3298  1.7035
 3733TIP3   OH235393   0.446   7.142   7.723 -0.1768 -0.0376 -0.0920
 3733TIP3    H135394   0.403   7.224   7.699 -1.7609 -0.8772 -0.2625
 3733TIP3    H235395   0.528   7.143   7.674 -0.1163  1.4791 -0.0096
 3734TIP3   OH235396   3.563   4.262   7.997  0.5529  0.3981 -0.1726
 3734TIP3    H135397   3.578   4.316   7.919 -1.3649  1.3894  0.0709
 3734TIP3    H235398   3.516   4.185   7.963  0.2043  0.5676 -0.0802
 3735TIP3   OH235399   3.836   6.286   8.050 -0.3602  0.4125  0.2888
 3735TIP3    H135400   3.794   6.266   8.134 -1.1314 -0.3930 -0.2639
 3735TIP3    H235401   3.901   6.217   8.038 -0.0856  0.6605  0.3227
 3736TIP3   OH235402   0.667   0.093   7.608  0.4339  0.3731 -0.2458
 3736TIP3    H135403   0.673   0.019   7.547  0.7508 -0.9472  1.3134
 3736TIP3    H235404   0.622   0.056   7.684  1.0749  1.6659  0.7815
 3737TIP3   OH235405   2.022   5.547   6.902 -0.2310  0.7289 -0.6619
 3737TIP3    H135406   2.001   5.454   6.905  1.6449  0.2618 -0.2245
 3737TIP3    H235407   1.939   5.591   6.884 -1.5359 -0.8904  1.0134
 3738TIP3   OH235408   7.355   4.561   7.210 -0.2398  0.0828  0.0302
 3738TIP3    H135409   7.448   4.576   7.191 -0.7914  1.0644 -2.1765
 3738TIP3    H235410   7.338   4.474   7.175  0.0744 -0.6315  1.5477
 3739TIP3   OH235411   7.309   7.466   6.605  0.4643  0.1810  0.0631
 3739TIP3    H135412   7.284   7.537   6.664  0.7383  0.4310 -0.1177
 3739TIP3    H235413   7.240   7.464   6.539 -0.3846 -0.7581  0.9325
 3740TIP3   OH235414   3.156   2.773   9.032 -0.4513  0.3146 -0.0778
 3740TIP3    H135415   3.192   2.706   9.090 -0.8671 -0.3345 -0.5584
 3740TIP3    H235416   3.064   2.779   9.057 -0.0840  1.8580  1.0425
 3741TIP3   OH235417   7.516   3.157   8.351  0.3111 -0.1240  0.7905
 3741TIP3    H135418   7.507   3.071   8.310 -0.4728 -0.5394  1.7872
 3741TIP3    H235419   7.493   3.142   8.443  1.9755  0.7704  1.4053
 3742TIP3   OH235420   6.372   3.413   8.672  0.4188 -0.3706 -0.2263
 3742TIP3    H135421   6.380   3.417   8.768 -0.5028 -0.1878 -0.1409
 3742TIP3    H235422   6.303   3.349   8.657 -0.8585  1.0490 -0.6622
 3743TIP3   OH235423   2.889   1.579   8.048  0.1099 -0.2882 -0.6196
 3743TIP3    H135424   2.857   1.639   8.116  1.9807  0.1706 -0.1022
 3743TIP3    H235425   2.979   1.560   8.072  0.8239 -0.1851 -2.9357
 3744TIP3   OH235426   5.024   2.180   8.657 -0.1489 -0.3304 -0.5544
 3744TIP3    H135427   5.038   2.212   8.568  0.3404 -0.0599 -0.3871
 3744TIP3    H235428   5.009   2.259   8.709  0.3309 -0.4188 -0.2683
 3745TIP3   OH235429   5.094   2.849   7.936 -0.4133 -0.1364  0.2171
 3745TIP3    H135430   5.097   2.760   7.973 -0.4008 -0.0953  0.3144
 3745TIP3    H235431   5.132   2.904   8.004 -0.8354  0.0068  0.3367
 3746TIP3   OH235432   5.999   4.331   6.804 -0.3268  0.2973  0.4086
 3746TIP3    H135433   5.989   4.245   6.764  1.4962  0.3236 -0.2047
 3746TIP3    H235434   5.966   4.392   6.739 -1.1657  0.0953  0.6411
 3747TIP3   OH235435   6.381   3.973   7.429 -0.0126  0.4897 -0.7712
 3747TIP3    H135436   6.464   3.996   7.472 -0.0431 -1.4785  0.5015
 3747TIP3    H235437   6.336   4.056   7.418  1.2340  1.3840  0.4793
 3748TIP3   OH235438   5.234   4.111   7.934  0.1084  0.5159  1.0112
 3748TIP3    H135439   5.256   4.024   7.969  0.0744  0.1428  0.1135
 3748TIP3    H235440   5.279   4.172   7.993  1.8630 -0.1708  0.4486
 3749TIP3   OH235441   3.793   0.435   8.512 -0.1899 -0.6513  0.3063
 3749TIP3    H135442   3.733   0.420   8.586  1.5112 -1.3341  1.6202
 3749TIP3    H235443   3.747   0.400   8.436 -1.0231 -2.1587  1.4539
 3750TIP3   OH235444   4.464   5.395   8.335  0.3752 -0.2341  0.7925
 3750TIP3    H135445   4.457   5.473   8.391 -0.0500  0.1593  0.2073
 3750TIP3    H235446   4.425   5.325   8.387 -0.7493  0.2937  0.6958
 3751TIP3   OH235447   0.245   6.730   9.123  0.2285  0.2339 -0.5445
 3751TIP3    H135448   0.242   6.819   9.158 -0.1967 -0.1130  0.3340
 3751TIP3    H235449   0.303   6.682   9.183  3.1198  0.6276 -2.7643
 3752TIP3   OH235450   5.773   6.519   6.777 -0.2655 -0.4528 -0.7870
 3752TIP3    H135451   5.742   6.608   6.760 -1.9272 -0.9515 -0.5374
 3752TIP3    H235452   5.788   6.482   6.690  0.6716  0.1368 -0.8861
 3753TIP3   OH235453   6.803   2.325   7.480 -0.2657  0.6378  0.2686
 3753TIP3    H135454   6.759   2.410   7.493 -0.4177  0.5347  0.4325
 3753TIP3    H235455   6.760   2.266   7.542  0.4398  0.6496  0.7903
 3754TIP3   OH235456   2.788   6.735   9.018 -0.2620  0.4383  0.2044
 3754TIP3    H135457   2.863   6.791   8.996  1.0875 -0.9005  1.2075
 3754TIP3    H235458   2.827   6.650   9.039 -2.2644 -1.0757 -1.7345
 3755TIP3   OH235459   5.322   1.898   9.353 -0.1008  0.1442 -0.1446
 3755TIP3    H135460   5.233   1.863   9.346 -0.0276 -0.3079  0.9654
 3755TIP3    H235461   5.359   1.890   9.265 -1.1759  0.4020 -0.6357
 3756TIP3   OH235462   0.236   4.827   7.014  0.1265  0.1328  0.0883
 3756TIP3    H135463   0.314   4.817   6.960 -1.4396 -1.2694 -2.1108
 3756TIP3    H235464   0.190   4.743   7.006 -1.1478  0.5541  2.1079
 3757TIP3   OH235465   6.604   6.746   7.508 -0.0976 -0.2050 -0.5946
 3757TIP3    H135466   6.572   6.678   7.568 -0.5590 -0.0933 -0.7152
 3757TIP3    H235467   6.635   6.816   7.566  2.1346 -1.2677 -0.4004
 3758TIP3   OH235468   6.438   6.755   8.610 -0.3815 -0.5420  0.1508
 3758TIP3    H135469   6.463   6.663   8.597 -0.3608 -0.6991  1.2528
 3758TIP3    H235470   6.346   6.752   8.635 -0.8699 -0.1287 -1.4705
 3759TIP3   OH235471   0.097   4.144   8.478  0.7263 -0.9386 -0.1259
 3759TIP3    H135472   0.139   4.071   8.434  2.4094 -0.3174  0.3914
 3759TIP3    H235473   0.131   4.142   8.567 -0.0995 -0.2171  0.2239
 3760TIP3   OH235474   4.351   3.067   8.252  0.5176  0.0421  0.5235
 3760TIP3    H135475   4.313   3.074   8.340  0.9281 -1.1517  0.8084
 3760TIP3    H235476   4.430   3.015   8.264  0.8419  0.2829 -0.4888
 3761TIP3   OH235477   1.434   4.227   9.319  0.9048  0.1872 -0.3744
 3761TIP3    H135478   1.421   4.309   9.368  2.5532  1.1606 -1.4960
 3761TIP3    H235479   1.505   4.246   9.259  1.9342 -2.3655 -0.0728
 3762TIP3   OH235480   3.142   3.753   7.808 -0.5688  0.0578 -0.1763
 3762TIP3    H135481   3.199   3.706   7.747 -1.4663  2.9544 -3.6311
 3762TIP3    H235482   3.054   3.744   7.771 -1.1448  1.9615  0.5741
 3763TIP3   OH235483   4.300   5.787   9.729  0.2796 -0.0659  0.2881
 3763TIP3    H135484   4.209   5.813   9.713  0.7468  1.0223 -0.7745
 3763TIP3    H235485   4.304   5.695   9.704 -0.3844  0.0605 -0.3035
 3764TIP3   OH235486   6.006   3.860   8.364 -0.7396  0.1056 -0.1861
 3764TIP3    H135487   6.051   3.944   8.358 -0.4764 -0.1023 -1.5203
 3764TIP3    H235488   6.066   3.804   8.413 -1.5822  1.0901  2.0609
 3765TIP3   OH235489   2.744   2.878   8.038  0.0856 -0.5206 -0.4875
 3765TIP3    H135490   2.819   2.937   8.046  0.0914 -0.4940 -0.7088
 3765TIP3    H235491   2.720   2.857   8.128  0.0985 -0.2003 -0.4053
 3766TIP3   OH235492   0.156   5.278   9.213  0.4993  0.1126 -0.1391
 3766TIP3    H135493   0.220   5.326   9.265  1.8381 -0.3301 -1.2924
 3766TIP3    H235494   0.100   5.346   9.175  0.2477  0.5084  0.9141
 3767TIP3   OH235495   2.581   4.592   9.053  0.1672  0.3293  0.1195
 3767TIP3    H135496   2.593   4.514   8.999  0.5995  0.1733  0.4392
 3767TIP3    H235497   2.612   4.567   9.140 -1.6191  0.2040  0.7577
 3768TIP3   OH235498   1.886   3.865   7.374  0.0153 -0.4528 -0.8410
 3768TIP3    H135499   1.886   3.784   7.425 -0.2391 -0.3124 -0.6153
 3768TIP3    H235500   1.977   3.893   7.373 -0.2420  0.6355  1.3000
 3769TIP3   OH235501   3.553   2.898   8.229 -0.3111 -0.1518 -0.3435
 3769TIP3    H135502   3.590   2.895   8.141 -0.0093  0.9771 -0.2651
 3769TIP3    H235503   3.502   2.817   8.236  1.8127 -1.5806 -0.5916
 3770TIP3   OH235504   1.163   1.925   8.067  0.1449  0.8452  0.2406
 3770TIP3    H135505   1.195   1.852   8.014  1.2379  2.0934 -0.8865
 3770TIP3    H235506   1.068   1.915   8.068  0.2896 -0.6938  0.2900
 3771TIP3   OH235507   7.011   7.511   8.819  0.6617 -0.1492 -0.2968
 3771TIP3    H135508   7.022   7.500   8.914  1.9594 -0.5811 -0.4825
 3771TIP3    H235509   7.022   7.605   8.805 -1.1478  0.1683  0.1531
 3772TIP3   OH235510   4.041   4.321   7.539  0.1544 -0.1167  0.0198
 3772TIP3    H135511   4.134   4.302   7.526 -0.5110 -2.1818 -2.8300
 3772TIP3    H235512   4.033   4.415   7.526  1.7426 -0.0502 -0.6787
 3773TIP3   OH235513   2.769   6.303   7.574  0.2402  0.0823  0.0723
 3773TIP3    H135514   2.825   6.364   7.525 -0.4914  1.8934  1.3933
 3773TIP3    H235515   2.789   6.321   7.666  1.4864 -3.1352  0.5806
 3774TIP3   OH235516   6.968   7.519   7.682 -0.6625  0.0819  0.5554
 3774TIP3    H135517   6.884   7.540   7.724 -0.4029  0.5355  0.8559
 3774TIP3    H235518   6.961   7.557   7.594 -0.4243  0.9091  0.8930
 3775TIP3   OH235519   5.131   7.404   7.391 -0.5476 -0.3429  0.3270
 3775TIP3    H135520   5.083   7.358   7.322  0.0886 -0.3564 -0.1184
 3775TIP3    H235521   5.151   7.489   7.353 -1.9289  0.4057  1.2375
 3776TIP3   OH235522   4.597   6.174   8.899  0.3023  0.5220 -0.5294
 3776TIP3    H135523   4.564   6.156   8.987 -0.5821  0.2301 -0.9068
 3776TIP3    H235524   4.596   6.090   8.855  0.2784  0.7458 -0.9634
 3777TIP3   OH235525   7.092   6.717   7.754 -0.1868 -0.8758 -0.6206
 3777TIP3    H135526   7.100   6.764   7.670  1.5974 -2.4395 -1.3902
 3777TIP3    H235527   7.044   6.778   7.810  2.9197  2.4691 -1.1797
 3778TIP3   OH235528   5.701   4.984   9.418 -0.5034  0.3388 -0.0446
 3778TIP3    H135529   5.714   5.059   9.475  1.2614  0.7234 -0.8802
 3778TIP3    H235530   5.710   5.020   9.329 -1.2166 -0.5937 -0.5156
 3779TIP3   OH235531   3.622   6.785   7.085  0.0385 -0.6852 -0.0205
 3779TIP3    H135532   3.601   6.717   7.148 -0.1478 -0.2953  0.3445
 3779TIP3    H235533   3.702   6.755   7.043 -0.3809 -1.4334 -0.3119
 3780TIP3   OH235534   3.559   0.288   9.714  0.1143  0.4524  0.1089
 3780TIP3    H135535   3.554   0.238   9.795 -1.5848 -1.7831 -1.2660
 3780TIP3    H235536   3.543   0.378   9.741  2.6669  0.2914  2.6035
 3781TIP3   OH235537   6.452   6.074   7.672 -0.0223  0.1459  0.3028
 3781TIP3    H135538   6.478   6.091   7.762  1.2294  2.6204 -0.4461
 3781TIP3    H235539   6.378   6.133   7.657  1.7134  2.0977 -1.1204
 3782TIP3   OH235540   2.688   6.969   6.609 -0.1411 -0.0309  0.1899
 3782TIP3    H135541   2.614   7.025   6.586  0.9035  0.6230 -1.8154
 3782TIP3    H235542   2.650   6.882   6.621 -1.4829  0.6658  1.2199
 3783TIP3   OH235543   7.208   1.293   8.387  0.0051  0.1330 -0.7866
 3783TIP3    H135544   7.264   1.233   8.435 -0.3330  0.8252  0.5111
 3783TIP3    H235545   7.122   1.285   8.429 -0.2044  1.0388 -1.0115
 3784TIP3   OH235546   5.381   7.574   7.786 -0.3020  0.3586 -0.4192
 3784TIP3    H135547   5.295   7.611   7.767 -1.0321  0.0032  1.9557
 3784TIP3    H235548   5.442   7.632   7.740 -1.5314  3.2551  1.3370
 3785TIP3   OH235549   5.322   0.626   8.853  0.4273  0.0795 -0.2579
 3785TIP3    H135550   5.261   0.630   8.780  1.6811 -0.3397 -1.3662
 3785TIP3    H235551   5.363   0.540   8.845  2.4503  1.0217 -0.6331
 3786TIP3   OH235552   2.351   0.054   7.129  0.4360 -0.2018  0.1821
 3786TIP3    H135553   2.353   0.007   7.045  1.0032 -1.4225  0.8581
 3786TIP3    H235554   2.412   0.126   7.117 -0.7854  0.6917 -1.0295
 3787TIP3   OH235555   6.913   5.718   7.896  0.5763  0.2477  0.5553
 3787TIP3    H135556   6.921   5.651   7.964 -0.6245  1.8955  2.4226
 3787TIP3    H235557   6.840   5.689   7.842  1.9660 -1.4233 -0.5560
 3788TIP3   OH235558   2.229   5.745   8.890 -0.6496 -0.4549  0.1390
 3788TIP3    H135559   2.235   5.650   8.889 -1.7392 -0.5470 -0.9307
 3788TIP3    H235560   2.149   5.764   8.840  0.5867  1.0719 -1.4070
 3789TIP3   OH235561   2.698   7.352   8.205  0.3241 -0.0990  0.6351
 3789TIP3    H135562   2.706   7.311   8.291  0.1972 -0.2319  0.5839
 3789TIP3    H235563   2.610   7.391   8.205  1.0752  1.6960  1.3415
 3790TIP3   OH235564   4.714   2.309   7.564 -0.0423  0.9047 -0.4158
 3790TIP3    H135565   4.770   2.369   7.515 -0.5665  0.6902 -1.3044
 3790TIP3    H235566   4.646   2.284   7.502 -0.6707  0.5385  0.4008
 3791TIP3   OH235567   2.656   2.906   8.984  0.0088  0.3499  1.0125
 3791TIP3    H135568   2.618   2.987   9.019  0.7987  1.2426 -0.1110
 3791TIP3    H235569   2.588   2.870   8.928  0.6517  1.8735 -0.8886
 3792TIP3   OH235570   4.857   5.892   9.821  0.1387  0.2367  0.3327
 3792TIP3    H135571   4.865   5.985   9.840 -0.1916  0.6555 -1.4261
 3792TIP3    H235572   4.764   5.873   9.831 -0.1566  0.6201 -1.3768
 3793TIP3   OH235573   3.410   5.984   9.665  0.0928  0.1273  0.0453
 3793TIP3    H135574   3.397   5.917   9.733 -2.0942  0.1399 -0.2890
 3793TIP3    H235575   3.444   5.936   9.590  1.3777 -0.0862  0.7395
 3794TIP3   OH235576   1.939   4.417   8.980 -0.5967 -0.1778  0.3789
 3794TIP3    H135577   1.981   4.502   8.965  0.3175 -0.6141  0.4210
 3794TIP3    H235578   1.845   4.436   8.974 -0.3948  0.7381 -0.1084
 3795TIP3   OH235579   2.826   6.085   8.726  0.0715 -0.1255 -0.2460
 3795TIP3    H135580   2.764   6.088   8.653  1.1338 -0.8547 -1.1917
 3795TIP3    H235581   2.865   5.998   8.721 -0.2090 -0.3973  1.5252
 3796TIP3   OH235582   1.392   5.182   9.261 -0.1309 -0.0920 -0.2033
 3796TIP3    H135583   1.436   5.144   9.337 -0.6560 -2.3501 -0.9614
 3796TIP3    H235584   1.457   5.177   9.191 -0.4370 -0.2326 -0.4791
 3797TIP3   OH235585   4.900   5.158   9.600 -0.0516 -0.5489 -0.4752
 3797TIP3    H135586   4.973   5.195   9.649 -0.0466  1.3491 -1.8212
 3797TIP3    H235587   4.827   5.217   9.619 -0.8955 -1.6552 -0.2209
 3798TIP3   OH235588   7.588   4.251   8.965  0.3038 -0.1554 -0.0988
 3798TIP3    H135589   7.652   4.305   8.918  1.6304  0.0297  1.8006
 3798TIP3    H235590   7.541   4.313   9.021  1.0803 -0.7812  1.2819
 3799TIP3   OH235591   3.180   3.111   8.868 -0.1490 -0.3795 -0.7551
 3799TIP3    H135592   3.116   3.168   8.825  1.5426  1.0379 -1.5699
 3799TIP3    H235593   3.158   3.023   8.839 -1.6041  0.0906 -1.1521
 3800TIP3   OH235594   1.407   4.713   8.585  0.8542  0.6751  0.0290
 3800TIP3    H135595   1.392   4.763   8.665 -0.0659  0.2744  0.1224
 3800TIP3    H235596   1.358   4.760   8.518 -0.4879 -0.3758  0.2326
 3801TIP3   OH235597   4.035   4.701   8.913 -0.4350  0.6544  0.2243
 3801TIP3    H135598   4.041   4.792   8.942  0.2914  0.2341  1.4727
 3801TIP3    H235599   4.121   4.681   8.878 -1.0870  0.9275 -1.6509
 3802TIP3   OH235600   0.297   4.387   7.054  0.0247 -0.1057  0.5797
 3802TIP3    H135601   0.254   4.302   7.070 -0.6586  0.1672  0.2310
 3802TIP3    H235602   0.272   4.410   6.965  2.4924 -0.8398 -0.3880
 3803TIP3   OH235603   3.672   7.402   7.938  0.2156 -0.0927 -0.3821
 3803TIP3    H135604   3.677   7.357   7.854  1.2601  0.6184 -0.7196
 3803TIP3    H235605   3.642   7.490   7.915  0.3636  0.0574  0.0051
 3804TIP3   OH235606   6.157   5.150   7.016  0.2835 -0.3740 -0.8762
 3804TIP3    H135607   6.231   5.113   6.969  1.7112  1.8852 -0.5589
 3804TIP3    H235608   6.187   5.158   7.106 -0.1695  0.9181 -0.8121
 3805TIP3   OH235609   1.628   3.728   7.083 -0.2437  0.7969  0.5524
 3805TIP3    H135610   1.593   3.740   7.171 -0.0837  3.0440  0.3757
 3805TIP3    H235611   1.552   3.744   7.026 -0.0656  0.6192  0.2673
 3806TIP3   OH235612   6.903   5.863   6.389 -0.1431  0.0376 -0.2814
 3806TIP3    H135613   6.921   5.944   6.343 -0.5044  0.4227  0.2457
 3806TIP3    H235614   6.840   5.887   6.458  0.3468 -0.5243  0.3835
 3807TIP3   OH235615   5.511   5.606   8.341  0.3315  0.2352  0.3378
 3807TIP3    H135616   5.457   5.539   8.299 -1.5330  0.5934  2.0055
 3807TIP3    H235617   5.532   5.570   8.427  0.1144  1.3936  0.8945
 3808TIP3   OH235618   6.990   3.994   7.548 -0.1054 -0.7091  0.4271
 3808TIP3    H135619   6.948   4.070   7.506 -0.9353 -0.2665  1.9790
 3808TIP3    H235620   7.067   4.030   7.591  0.9608 -1.2302 -0.9733
 3809TIP3   OH235621   2.467   3.324   7.917  0.8120  0.3262  0.4518
 3809TIP3    H135622   2.510   3.260   7.860  1.1423 -0.9166  2.0255
 3809TIP3    H235623   2.538   3.367   7.964  0.5574  1.5060 -0.2086
 3810TIP3   OH235624   4.563   7.634   9.643  0.1133 -0.3739 -0.1751
 3810TIP3    H135625   4.547   7.627   9.737  0.0568  0.6130 -0.0916
 3810TIP3    H235626   4.658   7.624   9.634  0.1685 -0.0630  0.0380
 3811TIP3   OH235627   6.910   6.617   8.038  0.4708 -0.3669 -0.8848
 3811TIP3    H135628   6.972   6.657   7.977 -0.8331  1.0141 -1.3757
 3811TIP3    H235629   6.911   6.675   8.114 -0.9111  0.2204 -1.2984
 3812TIP3   OH235630   3.601   5.662   7.537  0.1490 -0.0411 -0.3771
 3812TIP3    H135631   3.505   5.652   7.540 -0.1782  2.3872  2.5478
 3812TIP3    H235632   3.616   5.728   7.470 -0.4970  1.1278  0.5910
 3813TIP3   OH235633   7.027   0.196   8.725 -0.4694 -0.2892 -0.4478
 3813TIP3    H135634   6.931   0.192   8.729 -0.4990  0.3410 -0.4263
 3813TIP3    H235635   7.049   0.281   8.764  0.2099 -1.1978  1.2728
 3814TIP3   OH235636   4.261   5.394   8.869  0.7009  0.1149 -0.0038
 3814TIP3    H135637   4.313   5.389   8.789  1.2301 -2.6255  0.4180
 3814TIP3    H235638   4.325   5.394   8.940  0.1792 -0.0037  0.4746
 3815TIP3   OH235639   5.423   5.156   6.975  0.4689 -0.6341  0.2752
 3815TIP3    H135640   5.376   5.072   6.970 -0.8548  0.0938 -0.1261
 3815TIP3    H235641   5.464   5.166   6.889 -0.3558 -0.3478 -0.0997
 3816TIP3   OH235642   5.105   6.662   7.848 -0.4819  0.3970  0.4380
 3816TIP3    H135643   5.190   6.676   7.806 -0.2158  1.0329  1.1563
 3816TIP3    H235644   5.050   6.732   7.813 -0.4153  0.5922  0.7141
 3817TIP3   OH235645   3.932   1.051   7.645 -0.4871  0.2801  0.2087
 3817TIP3    H135646   3.974   1.034   7.561 -0.8492  0.0530  0.0683
 3817TIP3    H235647   3.883   1.133   7.632  0.1125  0.6823  0.4505
 3818TIP3   OH235648   3.899   2.661   8.893 -0.3151 -0.7022  0.3082
 3818TIP3    H135649   3.826   2.720   8.875 -0.5111 -1.2449 -0.7343
 3818TIP3    H235650   3.967   2.717   8.931 -1.2254 -0.1716  1.1912
 3819TIP3   OH235651   2.303   7.631   8.471  0.1425 -0.2819 -0.2100
 3819TIP3    H135652   2.327   7.715   8.431 -0.9782 -1.1324 -2.8981
 3819TIP3    H235653   2.219   7.648   8.513  0.6006  0.2634  0.5131
 3820TIP3   OH235654   7.427   5.107   8.322 -0.2656  0.2357  0.7356
 3820TIP3    H135655   7.384   5.026   8.298  2.2156 -0.7354 -0.7399
 3820TIP3    H235656   7.398   5.171   8.257 -1.4724  0.3277  1.3364
 3821TIP3   OH235657   6.776   5.863   9.187  0.2906  0.6697 -0.1285
 3821TIP3    H135658   6.834   5.919   9.136 -0.1578  0.3373 -1.0252
 3821TIP3    H235659   6.830   5.787   9.209  0.8935  1.3980  1.0711
 3822TIP3   OH235660   7.510   2.036   7.100  0.6397  0.3561 -0.1724
 3822TIP3    H135661   7.571   2.084   7.043  0.5457  0.7151  0.0304
 3822TIP3    H235662   7.489   1.957   7.050  2.4856 -0.5579  0.3858
 3823TIP3   OH235663   5.432   2.139   7.426  0.3103  0.4291  0.2491
 3823TIP3    H135664   5.515   2.162   7.384  0.1354 -0.5177 -0.6537
 3823TIP3    H235665   5.368   2.198   7.386  0.0471 -0.8251 -1.2884
 3824TIP3   OH235666   7.061   0.307   8.464  0.5547  0.2781 -0.4135
 3824TIP3    H135667   6.997   0.377   8.478  0.9163  0.5957 -0.2952
 3824TIP3    H235668   7.009   0.228   8.453  0.0004  0.8484 -2.6032
 3825TIP3   OH235669   6.969   4.358   8.039 -0.0917  0.1848  0.5577
 3825TIP3    H135670   6.979   4.319   7.952 -0.7767  1.9548 -0.3573
 3825TIP3    H235671   6.894   4.312   8.078  1.3022 -1.8755  1.0106
 3826TIP3   OH235672   3.814   3.603   8.672 -0.4190 -0.4568  0.0991
 3826TIP3    H135673   3.792   3.594   8.765  0.5492 -1.3208  0.2626
 3826TIP3    H235674   3.808   3.696   8.655 -2.5294 -0.4502  0.5298
 3827TIP3   OH235675   1.319   4.045   8.855 -0.2469 -0.0530 -0.8182
 3827TIP3    H135676   1.296   4.018   8.944 -1.3628  2.4225 -0.2535
 3827TIP3    H235677   1.415   4.049   8.855 -0.2392  0.0821  0.3494
 3828TIP3   OH235678   6.412   1.407   6.746 -0.4254 -0.4515  0.1024
 3828TIP3    H135679   6.450   1.351   6.814 -0.2278 -1.7556 -1.0271
 3828TIP3    H235680   6.471   1.395   6.671 -0.1695  1.5943 -0.0646
 3829TIP3   OH235681   1.862   6.597   8.916  0.0052 -0.5360 -0.5046
 3829TIP3    H135682   1.884   6.660   8.847 -2.2464  1.8457  0.7783
 3829TIP3    H235683   1.870   6.647   8.997  1.8920 -3.0595  1.0113
 3830TIP3   OH235684   2.014   7.383   8.616 -0.1528  0.1817  0.3514
 3830TIP3    H135685   2.060   7.369   8.533 -0.3041  1.1226  0.1032
 3830TIP3    H235686   1.924   7.355   8.599 -0.0782 -0.0528  0.3359
 3831TIP3   OH235687   4.091   4.590   7.565  0.1457  0.1124 -0.2999
 3831TIP3    H135688   4.009   4.638   7.561  0.0347 -0.1781 -1.8937
 3831TIP3    H235689   4.156   4.648   7.525  0.2295 -0.5827 -1.2064
 3832TIP3   OH235690   2.839   6.637   7.799 -0.4759  0.2636  0.3353
 3832TIP3    H135691   2.883   6.552   7.804 -0.3209  0.3237  0.0757
 3832TIP3    H235692   2.887   6.693   7.861 -0.1656  0.3360  0.0322
 3833TIP3   OH235693   0.926   2.437   8.463 -0.4900  0.0787 -0.4587
 3833TIP3    H135694   0.971   2.517   8.488 -1.2806  0.7392 -1.0860
 3833TIP3    H235695   0.968   2.410   8.382  0.3668 -0.6442  0.2127
 3834TIP3   OH235696   7.014   3.933   6.801 -0.2757 -0.0993  0.2614
 3834TIP3    H135697   7.053   3.875   6.866  0.6657 -1.1554 -1.1633
 3834TIP3    H235698   6.945   3.880   6.760 -0.0986  0.1275 -0.3540
 3835TIP3   OH235699   0.445   3.601   7.352  0.0537 -0.2178 -0.6468
 3835TIP3    H135700   0.491   3.680   7.322 -0.4340 -0.6337 -2.5973
 3835TIP3    H235701   0.441   3.611   7.447  0.7404  1.7052 -0.7731
 3836TIP3   OH235702   3.675   4.546   8.430  0.2626  0.1254  0.6952
 3836TIP3    H135703   3.763   4.506   8.429  0.5101  0.6678 -0.0414
 3836TIP3    H235704   3.658   4.564   8.523  1.2936  0.8013  0.7651
 3837TIP3   OH235705   1.381   5.167   8.603 -0.2286  0.3152 -0.4970
 3837TIP3    H135706   1.326   5.140   8.677  1.3470 -1.3714  0.1296
 3837TIP3    H235707   1.326   5.152   8.526 -1.0732 -0.1547  0.1803
 3838TIP3   OH235708   2.302   3.968   8.327 -0.2028 -0.0710 -0.7677
 3838TIP3    H135709   2.345   3.948   8.410  1.8542  0.7915 -1.5532
 3838TIP3    H235710   2.264   4.055   8.339 -0.7862 -0.3704 -0.4202
 3839TIP3   OH235711   2.085   0.186   7.219  0.0530 -0.3240 -0.3988
 3839TIP3    H135712   2.110   0.246   7.288 -3.0910  0.4391  0.2612
 3839TIP3    H235713   2.164   0.135   7.200  1.6804  1.1615  1.9502
 3840TIP3   OH235714   3.931   0.107   7.061  0.1734  0.0407  0.0714
 3840TIP3    H135715   3.897   0.193   7.037  1.1469  0.3543 -0.2390
 3840TIP3    H235716   3.864   0.069   7.118 -0.9239  0.4055 -0.9410
 3841TIP3   OH235717   1.275   3.290   8.966 -0.1623  0.0531 -0.4406
 3841TIP3    H135718   1.363   3.282   9.004  0.1812  0.2821 -1.1757
 3841TIP3    H235719   1.285   3.353   8.895 -0.3654 -1.7670 -2.1897
 3842TIP3   OH235720   1.925   5.649   8.071 -0.3535 -0.2116 -0.2771
 3842TIP3    H135721   1.855   5.672   8.010  1.5108  1.7638 -1.8221
 3842TIP3    H235722   1.939   5.555   8.058 -1.2056 -0.1700 -1.5856
 3843TIP3   OH235723   5.804   5.448   7.546 -0.3047  0.2540  0.4509
 3843TIP3    H135724   5.735   5.447   7.480 -0.7757  0.3808  0.9235
 3843TIP3    H235725   5.769   5.393   7.617 -0.4043  1.1935  1.1564
 3844TIP3   OH235726   2.551   1.488   8.996 -0.9898  0.4553  0.4186
 3844TIP3    H135727   2.627   1.460   9.047  1.0309 -2.7621 -3.7225
 3844TIP3    H235728   2.476   1.450   9.042  0.3935 -0.3513  2.1228
 3845TIP3   OH235729   1.576   7.122   9.441  0.6550 -0.0092 -0.1523
 3845TIP3    H135730   1.642   7.188   9.422  2.2145 -1.1899  0.9345
 3845TIP3    H235731   1.608   7.078   9.520 -0.9877 -1.2044 -0.1054
 3846TIP3   OH235732   1.438   0.757   7.171  0.1893 -0.3445  0.4675
 3846TIP3    H135733   1.359   0.795   7.133  1.5308  1.3691 -0.8109
 3846TIP3    H235734   1.410   0.674   7.208 -2.4918  0.9225  1.4985
 3847TIP3   OH235735   7.113   0.149   7.994  0.7945 -0.2487  0.4105
 3847TIP3    H135736   7.147   0.061   8.008 -1.4535 -1.0400  1.3577
 3847TIP3    H235737   7.129   0.194   8.078  0.3144 -0.3597  0.5670
 3848TIP3   OH235738   4.742   6.772   7.221 -0.5660  0.5814 -0.4891
 3848TIP3    H135739   4.743   6.711   7.148 -0.2118  1.3476 -1.1399
 3848TIP3    H235740   4.834   6.793   7.236 -0.1462 -2.5731  2.8053
 3849TIP3   OH235741   3.758   4.967   7.738 -0.1142  0.3634  0.1203
 3849TIP3    H135742   3.734   4.896   7.797  0.2830  0.3597  0.2846
 3849TIP3    H235743   3.678   5.019   7.728 -0.0813  0.5996  0.9958
 3850TIP3   OH235744   0.342   4.945   8.401 -0.5371  0.3302  0.1129
 3850TIP3    H135745   0.387   4.975   8.323 -2.3647 -0.0361 -1.1538
 3850TIP3    H235746   0.407   4.893   8.448  0.7527  0.9789 -0.8853
 3851TIP3   OH235747   6.044   2.597   8.964  1.1400  0.3828  0.0062
 3851TIP3    H135748   5.964   2.552   8.990  1.3885  0.1756  0.4072
 3851TIP3    H235749   6.084   2.539   8.899  1.2518  0.2228  0.2196
 3852TIP3   OH235750   5.437   2.966   7.377  0.2038  0.3385 -0.4201
 3852TIP3    H135751   5.373   3.016   7.426 -0.5708 -1.1876  0.1936
 3852TIP3    H235752   5.386   2.910   7.318  0.9675 -0.4700 -0.3528
 3853TIP3   OH235753   0.770   5.649   7.149 -0.2379  0.0269 -0.1352
 3853TIP3    H135754   0.815   5.645   7.233  1.0886 -0.7016 -0.8569
 3853TIP3    H235755   0.791   5.736   7.114 -0.4056  0.1498  0.0657
 3854TIP3   OH235756   4.206   0.601   7.751 -0.2105  0.4470  0.0702
 3854TIP3    H135757   4.211   0.675   7.811  0.8276 -1.1435  2.0978
 3854TIP3    H235758   4.298   0.577   7.736 -0.4786 -2.0290  1.7047
 3855TIP3   OH235759   6.650   1.965   8.829 -0.0882 -0.2284  0.1690
 3855TIP3    H135760   6.699   2.008   8.899 -0.8679 -0.1554  0.6796
 3855TIP3    H235761   6.560   1.962   8.861 -0.6341  0.5965 -1.1888
 3856TIP3   OH235762   6.454   3.770   7.249 -0.0272  0.6242 -1.2823
 3856TIP3    H135763   6.404   3.804   7.174 -2.6469 -1.1706 -0.4690
 3856TIP3    H235764   6.463   3.845   7.308 -2.4770  0.8763 -1.1435
 3857TIP3   OH235765   3.529   1.967   8.311 -0.4744  0.5131  0.1859
 3857TIP3    H135766   3.434   1.964   8.320 -0.3660 -0.7586  1.1646
 3857TIP3    H235767   3.543   1.989   8.219 -1.7356 -0.5454 -0.2983
 3858TIP3   OH235768   2.392   2.543   8.763 -0.5277  0.4369 -0.3230
 3858TIP3    H135769   2.361   2.454   8.776  1.7998 -0.3695  0.1969
 3858TIP3    H235770   2.377   2.561   8.670  1.1697 -1.4578 -1.0265
 3859TIP3   OH235771   6.482   0.469   7.729  0.1893 -0.3223 -0.3947
 3859TIP3    H135772   6.437   0.522   7.664 -1.5077 -0.4696  0.6087
 3859TIP3    H235773   6.557   0.522   7.757 -1.1797  1.3791  0.2286
 3860TIP3   OH235774   5.742   5.461   8.791  0.3632  0.1065 -0.3615
 3860TIP3    H135775   5.832   5.493   8.787  0.4645 -0.2515 -1.1733
 3860TIP3    H235776   5.742   5.395   8.860  1.1149 -1.0347 -1.3980
 3861TIP3   OH235777   2.173   0.766   8.557 -0.4750  0.2347 -0.3148
 3861TIP3    H135778   2.206   0.676   8.553 -0.9746  0.0307  0.0202
 3861TIP3    H235779   2.166   0.793   8.466 -1.2336 -0.4154 -0.4637
 3862TIP3   OH235780   0.241   7.482   9.343  0.3120 -0.0335 -0.4953
 3862TIP3    H135781   0.235   7.424   9.267 -1.6272 -0.1792 -0.2833
 3862TIP3    H235782   0.181   7.443   9.407  0.3189  1.2274  0.3119
 3863TIP3   OH235783   0.302   3.569   7.805  0.2326 -0.0493  0.0713
 3863TIP3    H135784   0.247   3.490   7.810 -1.2077  0.8782 -0.5263
 3863TIP3    H235785   0.264   3.629   7.869 -0.4311  1.1638 -1.3863
 3864TIP3   OH235786   3.709   4.170   8.208 -0.0479 -0.2018  1.1104
 3864TIP3    H135787   3.673   4.236   8.149  1.6537 -0.0645  0.1718
 3864TIP3    H235788   3.776   4.217   8.258  0.8164 -1.0772  0.8039
 3865TIP3   OH235789   7.222   3.252   7.816  0.1849 -0.1031 -0.2659
 3865TIP3    H135790   7.146   3.223   7.866  0.1794 -0.0962 -0.2705
 3865TIP3    H235791   7.232   3.345   7.840  0.0429 -0.0382 -0.4515
 3866TIP3   OH235792   4.094   6.412   9.464  0.0027 -0.5361  0.6630
 3866TIP3    H135793   4.108   6.506   9.453  2.2035 -0.8425  0.2648
 3866TIP3    H235794   4.001   6.403   9.483 -0.2136  1.7396  0.9538
 3867TIP3   OH235795   5.178   6.836   8.115 -0.4464  0.4260 -0.0312
 3867TIP3    H135796   5.230   6.851   8.036  1.6935  1.4507  1.4774
 3867TIP3    H235797   5.101   6.892   8.104  0.6376  1.8542 -0.6581
 3868TIP3   OH235798   1.681   4.324   9.180  0.2488  0.3861 -0.2312
 3868TIP3    H135799   1.697   4.411   9.216 -0.5874  0.6797 -0.5537
 3868TIP3    H235800   1.641   4.339   9.094  0.0888 -0.3122 -0.2927
 3869TIP3   OH235801   6.622   0.778   7.990 -0.0547 -0.2926 -0.0822
 3869TIP3    H135802   6.684   0.819   8.050  0.0699  0.2666 -0.5927
 3869TIP3    H235803   6.562   0.730   8.047  1.1273 -1.2624  0.4036
 3870TIP3   OH235804   1.062   4.771   8.182  0.3251  0.3621 -0.3689
 3870TIP3    H135805   1.084   4.788   8.091 -0.1308 -2.6301 -1.1241
 3870TIP3    H235806   0.967   4.771   8.184  0.2968  1.9343  0.5086
 3871TIP3   OH235807   0.830   7.393   8.046  0.0412 -0.0873 -0.3332
 3871TIP3    H135808   0.753   7.356   8.003 -0.4601  1.1931 -0.5881
 3871TIP3    H235809   0.798   7.419   8.133  0.3531 -0.1349 -0.2035
 3872TIP3   OH235810   1.940   6.093   8.992  0.2763 -0.0109 -0.2248
 3872TIP3    H135811   1.943   6.187   9.011  1.2444 -0.3637  1.5957
 3872TIP3    H235812   1.852   6.078   8.958  0.0112  1.5088 -0.2770
 3873TIP3   OH235813   7.017   3.729   7.491 -0.1806  0.0208 -0.2686
 3873TIP3    H135814   7.036   3.733   7.397 -0.3839  1.7421 -0.2697
 3873TIP3    H235815   6.979   3.814   7.511  2.3668  0.7597  1.9083
 3874TIP3   OH235816   1.233   7.373   9.028  0.6239 -0.3037 -0.1117
 3874TIP3    H135817   1.262   7.296   8.978 -0.3446 -0.1834 -0.9036
 3874TIP3    H235818   1.195   7.431   8.961  0.4319  0.4174  0.6133
 3875TIP3   OH235819   4.801   7.060   9.699 -0.1539  0.1871 -0.2487
 3875TIP3    H135820   4.837   6.980   9.661 -0.0116  1.2177 -2.4444
 3875TIP3    H235821   4.706   7.047   9.699 -0.0579 -0.6964  1.1941
 3876TIP3   OH235822   6.502   4.875   9.396 -0.4155  0.3557  0.2430
 3876TIP3    H135823   6.514   4.812   9.324 -1.2323 -1.4100  1.5600
 3876TIP3    H235824   6.452   4.826   9.461 -0.8298  2.3263  1.4755
 3877TIP3   OH235825   3.670   4.140   8.907 -0.1315 -0.2778  0.5357
 3877TIP3    H135826   3.635   4.228   8.894  1.5034  0.3986  0.3935
 3877TIP3    H235827   3.617   4.084   8.850  0.5858  1.0967 -1.6086
 3878TIP3   OH235828   5.353   3.435   7.610  0.1597 -0.0018  0.2813
 3878TIP3    H135829   5.266   3.468   7.631 -0.3561 -1.1654  0.0120
 3878TIP3    H235830   5.343   3.392   7.525  0.7835 -0.9460  0.6668
 3879TIP3   OH235831   5.531   0.985   7.977 -0.2717 -0.3139 -0.0174
 3879TIP3    H135832   5.620   1.020   7.983 -0.3919  0.1478 -0.8456
 3879TIP3    H235833   5.542   0.890   7.980  0.4295 -0.3444 -2.0252
 3880TIP3   OH235834   6.084   5.649   8.316  0.3301  0.4241  0.1020
 3880TIP3    H135835   6.097   5.662   8.410 -0.1636 -0.5692  0.3248
 3880TIP3    H235836   6.020   5.578   8.310  0.7883  0.0738 -0.9912
 3881TIP3   OH235837   3.223   3.133   9.145  0.0152 -0.1000 -0.4593
 3881TIP3    H135838   3.136   3.173   9.138 -1.6595 -3.3087 -0.1461
 3881TIP3    H235839   3.246   3.111   9.055 -1.3373 -2.5423 -0.3026
 3882TIP3   OH235840   3.709   1.495   9.060 -0.3564 -0.0532 -0.3644
 3882TIP3    H135841   3.717   1.546   9.141 -1.0683  0.9229 -0.8912
 3882TIP3    H235842   3.696   1.561   8.992 -0.1942 -0.8913 -1.2183
 3883TIP3   OH235843   0.834   6.880   8.866  0.4749  0.9945  0.3592
 3883TIP3    H135844   0.868   6.861   8.778 -0.8681  0.1994 -0.0195
 3883TIP3    H235845   0.905   6.856   8.925  0.2902 -1.5591 -0.3433
 3884TIP3   OH235846   7.668   3.181   6.750 -0.3758  0.1099 -0.0346
 3884TIP3    H135847   7.682   3.225   6.667 -0.4497  0.0336 -0.0893
 3884TIP3    H235848   7.687   3.089   6.731 -0.7315  0.0393 -0.0574
 3885TIP3   OH235849   1.041   6.479   7.317 -0.2261 -0.2118  0.3241
 3885TIP3    H135850   0.993   6.404   7.281  1.3315 -1.4294  0.6574
 3885TIP3    H235851   1.078   6.522   7.240 -0.1884 -0.4531  0.2059
 3886TIP3   OH235852   1.208   4.645   9.407 -0.0430  0.0494  0.3240
 3886TIP3    H135853   1.245   4.728   9.376 -0.1587 -0.1294 -0.3097
 3886TIP3    H235854   1.113   4.658   9.402 -0.0607 -0.0419  0.4401
 3887TIP3   OH235855   6.546   4.854   8.960  1.0609  0.6209  0.0780
 3887TIP3    H135856   6.518   4.914   8.891 -0.2947 -0.2192 -0.1459
 3887TIP3    H235857   6.583   4.911   9.027 -0.4353  1.7635 -0.0028
 3888TIP3   OH235858   1.534   1.870   9.144 -0.1219  0.3793  0.8907
 3888TIP3    H135859   1.561   1.911   9.227 -0.8618  0.3899  1.1292
 3888TIP3    H235860   1.466   1.808   9.169 -0.7030  0.7377  0.2324
 3889TIP3   OH235861   5.215   6.639   9.218 -0.3945  0.6776 -0.2031
 3889TIP3    H135862   5.183   6.550   9.204 -1.2811  1.1601 -1.2756
 3889TIP3    H235863   5.303   6.626   9.256 -0.9719 -0.6358  0.7792
 3890TIP3   OH235864   4.446   4.400   7.272 -0.4200 -0.4149  0.1486
 3890TIP3    H135865   4.460   4.491   7.244 -2.1267 -0.2816 -0.4428
 3890TIP3    H235866   4.534   4.363   7.281  0.2973  1.1750 -0.0004
 3891TIP3   OH235867   4.956   1.918   6.977  0.6389 -0.2322 -0.1666
 3891TIP3    H135868   4.870   1.917   7.019  1.1236 -0.8725  0.8346
 3891TIP3    H235869   4.938   1.947   6.887 -0.6405 -0.5196 -0.0237
 3892TIP3   OH235870   7.626   0.078   9.128 -0.1358 -0.4181  0.4528
 3892TIP3    H135871   7.648  -0.007   9.167  0.1176 -0.3442  0.4739
 3892TIP3    H235872   7.709   0.126   9.128  0.2831 -1.0164 -1.6994
 3893TIP3   OH235873   1.102   0.702   8.982  0.4763  0.2366 -0.7812
 3893TIP3    H135874   1.032   0.766   8.998 -0.2696 -0.6148 -0.5762
 3893TIP3    H235875   1.172   0.726   9.042  0.0879  0.6827 -0.5048
 3894TIP3   OH235876   3.794   7.294   8.167 -0.0708 -0.0892  0.4754
 3894TIP3    H135877   3.758   7.315   8.254 -0.2635 -0.1557  0.4122
 3894TIP3    H235878   3.743   7.348   8.107 -0.2302 -0.3647  0.3610
 3895TIP3   OH235879   5.448   7.317   7.819 -0.0016 -0.4181  0.4068
 3895TIP3    H135880   5.446   7.410   7.797  0.8020 -0.3738  0.4932
 3895TIP3    H235881   5.541   7.296   7.824 -0.1759 -0.9602  1.5332
 3896TIP3   OH235882   4.802   4.567   9.521 -0.5120 -0.0451  0.3679
 3896TIP3    H135883   4.716   4.548   9.557 -0.0263 -1.0263  1.0765
 3896TIP3    H235884   4.861   4.505   9.565  0.5547  0.5961 -0.0960
 3897TIP3   OH235885   1.729   0.983   7.143 -0.0908 -0.5770 -0.0877
 3897TIP3    H135886   1.817   0.997   7.176 -0.4602 -1.1024  1.1462
 3897TIP3    H235887   1.672   0.999   7.218 -1.0205 -0.6813 -0.7546
 3898TIP3   OH235888   4.836   3.916   8.389  0.5541  0.1075 -0.7879
 3898TIP3    H135889   4.926   3.925   8.359  0.8543  1.5394  0.4303
 3898TIP3    H235890   4.836   3.951   8.478 -1.3188  0.6741 -0.9540
 3899TIP3   OH235891   3.463   7.280   8.123  0.0895 -0.1919  0.3647
 3899TIP3    H135892   3.525   7.289   8.051  2.2252 -1.6231  1.9103
 3899TIP3    H235893   3.441   7.371   8.146  0.6855  0.3151 -0.9461
 3900TIP3   OH235894   1.763   5.197   9.296 -0.1433 -0.4549 -0.2141
 3900TIP3    H135895   1.820   5.272   9.278 -0.7950 -0.4113 -2.4432
 3900TIP3    H235896   1.681   5.219   9.251 -1.2222 -1.4210  1.2015
 3901TIP3   OH235897   5.411   6.108   8.589 -0.0199  0.2220  0.3524
 3901TIP3    H135898   5.492   6.062   8.607  0.2200  0.1498 -0.8142
 3901TIP3    H235899   5.397   6.096   8.495 -1.5438 -0.0280  0.5871
 3902TIP3   OH235900   3.832   7.505   7.616 -0.0559 -0.1629 -0.0512
 3902TIP3    H135901   3.903   7.487   7.678 -1.1802 -1.5623  0.8903
 3902TIP3    H235902   3.865   7.474   7.532  1.3110  1.3243 -0.1172
 3903TIP3   OH235903   1.162   7.537   8.815 -0.2449  0.0418 -0.5504
 3903TIP3    H135904   1.087   7.506   8.763  0.9918 -1.4616 -1.5341
 3903TIP3    H235905   1.234   7.541   8.752  0.9428 -0.4161  0.7497
 3904TIP3   OH235906   4.699   0.337   8.877 -0.1596  0.2561  0.9296
 3904TIP3    H135907   4.718   0.424   8.842 -0.3295  0.1500  0.5662
 3904TIP3    H235908   4.644   0.296   8.810 -0.6417  0.1141  1.4038
 3905TIP3   OH235909   4.041   6.985   6.885  0.3905 -0.5202  0.5045
 3905TIP3    H135910   4.104   6.986   6.814 -1.3276 -0.7712 -1.1101
 3905TIP3    H235911   3.970   6.929   6.854 -1.2372  0.7737  1.6709
 3906TIP3   OH235912   1.901   3.238   7.512  0.1398  0.3231  0.2328
 3906TIP3    H135913   1.887   3.156   7.465  1.8254 -0.2316  0.6516
 3906TIP3    H235914   1.919   3.212   7.602  0.9530  1.1348  0.3218
 3907TIP3   OH235915   4.758   5.782   6.582 -0.1964 -0.4417  0.2865
 3907TIP3    H135916   4.693   5.773   6.651 -0.0735 -0.2671  0.4278
 3907TIP3    H235917   4.709   5.812   6.505 -0.3495 -0.7381  0.2673
 3908TIP3   OH235918   5.946   1.671   6.772 -0.1982  0.5162  0.4474
 3908TIP3    H135919   6.037   1.643   6.769  0.4674  2.5358  0.4507
 3908TIP3    H235920   5.903   1.623   6.701  1.0988  0.3010 -0.2137
 3909TIP3   OH235921   5.047   4.205   9.450  0.0409  0.3184  0.3768
 3909TIP3    H135922   5.041   4.258   9.371  1.7871  1.1364  0.7426
 3909TIP3    H235923   5.126   4.152   9.437 -0.1840 -0.2362  1.1783
 3910TIP3   OH235924   1.245   5.379   8.043  0.9109  1.0747 -0.0032
 3910TIP3    H135925   1.329   5.364   8.000 -1.4408  0.2829 -4.9715
 3910TIP3    H235926   1.212   5.292   8.063 -0.7291  0.9221 -2.8469
 3911TIP3   OH235927   5.708   0.385   8.978 -0.2911 -0.0077 -0.5709
 3911TIP3    H135928   5.752   0.302   8.962 -0.9318 -0.3759 -0.4525
 3911TIP3    H235929   5.732   0.440   8.903  1.8458  0.4449  0.3663
 3912TIP3   OH235930   4.495   2.096   8.794  0.8732  0.6606 -0.1670
 3912TIP3    H135931   4.490   2.160   8.865 -2.5293 -0.6452  0.9495
 3912TIP3    H235932   4.529   2.017   8.835 -0.0687  0.2155 -0.2294
 3913TIP3   OH235933   2.954   1.217   9.028  0.3034  0.1986  0.2126
 3913TIP3    H135934   3.024   1.166   8.988 -0.5738 -0.0189 -1.0832
 3913TIP3    H235935   2.882   1.214   8.965 -1.0364  0.0633  1.6989
 3914TIP3   OH235936   7.641   4.379   7.506  0.1286  0.7304  0.2670
 3914TIP3    H135937   7.691   4.321   7.564 -1.5794 -2.0143 -0.8199
 3914TIP3    H235938   7.697   4.390   7.429  0.3149  0.1746  0.3208
 3915TIP3   OH235939   0.073   7.561   8.676  0.2492  0.4678 -0.0723
 3915TIP3    H135940   0.088   7.502   8.750  2.2088 -0.5131 -1.1620
 3915TIP3    H235941   0.079   7.649   8.714  0.0836 -0.0193  1.1227
 3916TIP3   OH235942   6.995   5.513   9.055  0.1972  0.1176  0.0916
 3916TIP3    H135943   7.051   5.536   8.980  0.6587 -0.5066  0.2324
 3916TIP3    H235944   7.051   5.459   9.111 -0.0733  0.7613  1.0028
 3917TIP3   OH235945   2.036   1.654   7.874 -0.1652 -0.0436  0.0918
 3917TIP3    H135946   2.021   1.723   7.939 -0.5609  0.5657 -0.6210
 3917TIP3    H235947   1.989   1.685   7.796  0.7014 -0.5267 -0.6341
 3918TIP3   OH235948   0.945   0.838   7.994  0.5241 -0.8625 -0.1275
 3918TIP3    H135949   0.961   0.815   7.902 -1.1897  0.6073 -0.8600
 3918TIP3    H235950   0.858   0.802   8.012 -0.4577  1.3935 -0.0666
 3919TIP3   OH235951   4.086   3.996   8.068 -0.0058  0.0690  0.4677
 3919TIP3    H135952   4.179   4.014   8.080  0.0602  0.5397 -0.6290
 3919TIP3    H235953   4.047   4.082   8.052 -0.5017 -0.2189  0.1034
 3920TIP3   OH235954   2.579   0.966   7.972 -0.5578 -0.1293 -0.3293
 3920TIP3    H135955   2.627   1.047   7.991 -0.5047 -0.1219 -0.4920
 3920TIP3    H235956   2.564   0.926   8.057  0.5284 -0.5866 -0.3360
 3921TIP3   OH235957   2.446   2.808   8.854  0.2284 -0.2662 -0.3624
 3921TIP3    H135958   2.421   2.719   8.831 -1.9099  0.4808 -1.1956
 3921TIP3    H235959   2.390   2.830   8.928  1.0488  0.2553  0.1196
 3922TIP3   OH235960   3.613   4.414   7.779  0.3130 -0.2879 -0.0176
 3922TIP3    H135961   3.622   4.324   7.747  0.9757 -0.6193  1.0501
 3922TIP3    H235962   3.694   4.457   7.751  0.4215 -0.2878  0.2950
 3923TIP3   OH235963   6.432   2.830   7.260  0.9449  0.2936  0.2776
 3923TIP3    H135964   6.420   2.751   7.206 -1.0249 -0.9740  2.3929
 3923TIP3    H235965   6.369   2.892   7.224 -1.6079 -1.1253  1.9420
 3924TIP3   OH235966   3.790   6.831   8.158  0.0972  0.6581  0.2255
 3924TIP3    H135967   3.807   6.743   8.125 -4.1701  0.2505 -1.5148
 3924TIP3    H235968   3.774   6.818   8.252  0.0297 -0.3818  0.0911
 3925TIP3   OH235969   5.767   1.052   8.386 -0.4228  0.4546  0.1656
 3925TIP3    H135970   5.710   1.036   8.461 -0.0281 -0.9879  0.1936
 3925TIP3    H235971   5.824   0.974   8.382  0.6458  1.2440 -0.6533
 3926TIP3   OH235972   5.371   7.555   8.161 -0.2614  1.0180 -0.4648
 3926TIP3    H135973   5.353   7.482   8.220  0.0609  0.3153 -1.1976
 3926TIP3    H235974   5.467   7.560   8.157 -0.2756  0.9400 -1.0477
 3927TIP3   OH235975   2.819   4.277   8.874 -0.4099 -0.6827  1.2649
 3927TIP3    H135976   2.828   4.359   8.924  2.8133 -1.1749  1.7605
 3927TIP3    H235977   2.887   4.283   8.807 -1.8880 -1.8780 -0.4308
 3928TIP3   OH235978   0.115   5.485   7.827 -0.3749 -0.2246 -0.0713
 3928TIP3    H135979   0.034   5.504   7.875 -0.0440 -0.6938  0.6881
 3928TIP3    H235980   0.147   5.403   7.865  0.9376  0.4149  0.2737
 3929TIP3   OH235981   2.607   1.169   8.452 -0.5088  0.0021 -0.6200
 3929TIP3    H135982   2.696   1.183   8.486 -0.9418  0.0224  0.5776
 3929TIP3    H235983   2.591   1.244   8.395 -0.2152  0.7062  0.1896
 3930TIP3   OH235984   3.578   3.938   8.110  0.0979  0.2208  0.4116
 3930TIP3    H135985   3.591   4.025   8.148 -0.7135  2.5140 -3.8924
 3930TIP3    H235986   3.666   3.907   8.088  0.2961  1.0483 -0.0167
 3931TIP3   OH235987   3.679   1.958   7.617  0.0690 -0.4720  0.3606
 3931TIP3    H135988   3.664   2.052   7.609 -1.1855 -0.5985  0.9680
 3931TIP3    H235989   3.620   1.919   7.552 -0.6553 -0.8948  1.2462
 3932TIP3   OH235990   6.217   3.310   8.016 -0.0356  0.3541 -0.1704
 3932TIP3    H135991   6.197   3.275   8.104  0.7016  0.6935  0.1403
 3932TIP3    H235992   6.298   3.360   8.028  0.0406  0.4517 -1.0384
 3933TIP3   OH235993   4.793   4.125   9.108  0.0515 -0.0900 -0.3188
 3933TIP3    H135994   4.735   4.115   9.183 -0.2122  0.0663 -0.5033
 3933TIP3    H235995   4.827   4.215   9.116  0.7651 -0.3900  0.1437
 3934TIP3   OH235996   2.474   3.654   7.125  0.6354 -0.1154 -0.3591
 3934TIP3    H135997   2.446   3.720   7.062  0.4071 -1.0358 -1.2470
 3934TIP3    H235998   2.425   3.674   7.204  0.0597  0.3672 -0.8274
 3935TIP3   OH235999   0.632   0.568   7.461 -0.2005  0.6028  0.4283
 3935TIP3    H136000   0.615   0.585   7.368  1.2221  0.6139  0.1524
 3935TIP3    H236001   0.609   0.475   7.472 -0.7327  0.6979  0.1587
 3936TIP3   OH236002   6.633   6.807   9.243 -0.2216  0.0984  0.4821
 3936TIP3    H136003   6.715   6.767   9.213 -1.1137 -0.8035 -0.8456
 3936TIP3    H236004   6.635   6.896   9.208 -0.2060 -0.2162 -0.3370
 3937TIP3   OH236005   3.736   5.607   7.243 -0.0093  0.6067  0.3089
 3937TIP3    H136006   3.725   5.676   7.177 -1.1964  0.6191  0.5037
 3937TIP3    H236007   3.830   5.600   7.255  0.2623  0.4742 -1.5405
 3938TIP3   OH236008   5.015   5.402   8.118  0.4006  0.6652 -0.4856
 3938TIP3    H136009   4.960   5.472   8.154  0.2275  0.0541  0.4611
 3938TIP3    H236010   4.955   5.349   8.067  0.5927  1.3711 -1.4778
 3939TIP3   OH236011   3.457   0.314   7.873  0.0281 -0.2869 -0.3504
 3939TIP3    H136012   3.470   0.409   7.864 -0.0176 -0.1689  0.6914
 3939TIP3    H236013   3.539   0.282   7.911 -0.8917 -0.2412  1.8229
 3940TIP3   OH236014   4.887   6.407   6.954 -0.2956 -0.5502 -0.1969
 3940TIP3    H136015   4.979   6.386   6.970  0.0626  0.4692 -0.7930
 3940TIP3    H236016   4.888   6.460   6.874 -1.4021 -0.5017 -0.2005
 3941TIP3   OH236017   3.305   4.949   8.921  0.0473  0.5442  0.1304
 3941TIP3    H136018   3.303   5.000   8.840 -1.4528 -0.4430 -0.5208
 3941TIP3    H236019   3.328   4.860   8.892  1.1318  0.5166  1.0290
 3942TIP3   OH236020   1.423   1.618   9.245 -0.3593  0.1373  0.1355
 3942TIP3    H136021   1.335   1.590   9.220 -0.4935  0.4248  0.2794
 3942TIP3    H236022   1.480   1.550   9.210 -0.6826 -0.3395  0.5174
 3943TIP3   OH236023   0.075   3.455   6.453  0.1912  0.6093 -0.2840
 3943TIP3    H136024   0.138   3.413   6.511  0.9640  1.2487 -0.6475
 3943TIP3    H236025   0.109   3.543   6.440  0.2376  0.3754 -1.9766
 3944TIP3   OH236026   0.547   3.163   8.097 -0.1100 -0.5267 -0.4772
 3944TIP3    H136027   0.518   3.248   8.132 -1.9451 -1.0310 -0.6785
 3944TIP3    H236028   0.483   3.143   8.028  0.7906 -1.6883 -0.9910
 3945TIP3   OH236029   4.268   0.623   8.879  0.0404  0.4993  0.6460
 3945TIP3    H136030   4.256   0.530   8.863  1.1554  0.2723  1.0695
 3945TIP3    H236031   4.363   0.636   8.881 -0.0842  1.4605  1.6319
 3946TIP3   OH236032   1.611   3.717   8.111  0.5678 -0.2776 -0.1903
 3946TIP3    H136033   1.600   3.708   8.206 -1.2667 -0.6354 -0.3953
 3946TIP3    H236034   1.561   3.795   8.089 -0.1672 -0.9752 -1.0327
 3947TIP3   OH236035   7.340   7.564   7.314 -0.5330  0.2683  0.0961
 3947TIP3    H136036   7.308   7.654   7.301  0.3067  0.7359  1.1277
 3947TIP3    H236037   7.413   7.573   7.375  1.8428 -0.6967 -2.3933
 3948TIP3   OH236038   2.805   0.188   7.854 -0.7156  0.0566  0.5340
 3948TIP3    H136039   2.883   0.150   7.812 -1.2595 -1.6672  1.0192
 3948TIP3    H236040   2.838   0.222   7.938 -0.0050  1.8073 -0.3776
 3949TIP3   OH236041   0.116   3.714   7.969  0.0836 -0.4124 -0.1376
 3949TIP3    H136042   0.113   3.785   7.905  1.7379 -1.1352 -1.0694
 3949TIP3    H236043   0.103   3.758   8.054 -2.0321  0.5753 -0.8845
 3950TIP3   OH236044   6.387   7.001   6.749 -0.3748 -0.5168  0.2553
 3950TIP3    H136045   6.332   6.988   6.672  0.4264 -0.1690 -0.3854
 3950TIP3    H236046   6.436   6.919   6.757 -1.8145 -1.3074  1.5374
 3951TIP3   OH236047   4.559   0.664   8.875 -0.1594  0.8631  0.9334
 3951TIP3    H136048   4.628   0.707   8.826  0.7387 -0.7826  0.6957
 3951TIP3    H236049   4.602   0.633   8.955 -0.0953 -1.7640 -0.0217
 3952TIP3   OH236050   3.761   6.845   9.549  0.6448  0.7357 -0.1771
 3952TIP3    H136051   3.817   6.882   9.481  0.8212  0.4912 -0.1679
 3952TIP3    H236052   3.736   6.759   9.516  1.6927  0.1117  0.5637
 3953TIP3   OH236053   1.763   1.821   8.191  0.0649  0.3984  0.4625
 3953TIP3    H136054   1.838   1.879   8.204 -0.6169  1.5595 -0.5428
 3953TIP3    H236055   1.738   1.834   8.099 -1.3227 -0.0154  0.7506
 3954TIP3   OH236056   1.629   4.010   6.686  0.4123 -0.2223  0.6992
 3954TIP3    H136057   1.594   3.967   6.608  0.0166 -1.3064  1.4494
 3954TIP3    H236058   1.722   4.023   6.666  0.3314 -0.5492  0.0719
 3955TIP3   OH236059   5.041   6.924   8.886  0.1380 -0.0504 -0.1571
 3955TIP3    H136060   5.088   6.911   8.804 -0.6771 -0.4528 -0.5788
 3955TIP3    H236061   5.095   6.985   8.936  1.6323 -1.2869 -0.1828
 3956TIP3   OH236062   1.183   2.362   7.473 -0.4232 -0.0807 -0.3038
 3956TIP3    H136063   1.271   2.399   7.466 -0.3287 -0.0808  0.7399
 3956TIP3    H236064   1.166   2.324   7.386  0.2993  0.5700 -0.7478
 3957TIP3   OH236065   0.220   2.929   8.549  0.0767  0.3084 -0.3694
 3957TIP3    H136066   0.276   2.863   8.506 -2.2416 -3.0051  1.2669
 3957TIP3    H236067   0.209   2.998   8.484  1.1000 -1.8468 -2.9873
 3958TIP3   OH236068   3.796   1.510   7.400  0.5850  0.3063 -0.3016
 3958TIP3    H136069   3.804   1.447   7.472 -0.8769 -0.2596 -0.5971
 3958TIP3    H236070   3.829   1.592   7.436  1.9477 -0.4757  0.2953
 3959TIP3   OH236071   1.349   6.485   7.853 -0.5611 -0.2411  0.2079
 3959TIP3    H136072   1.411   6.557   7.867  0.3635 -0.9399 -0.2047
 3959TIP3    H236073   1.400   6.406   7.865 -1.2349 -0.8444 -0.7290
 3960TIP3   OH236074   0.479   6.424   9.188 -0.0368  0.6873  0.5769
 3960TIP3    H136075   0.552   6.363   9.196 -0.2404  0.3862  0.2111
 3960TIP3    H236076   0.480   6.451   9.096  1.4124  2.9718  1.1804
 3961TIP3   OH236077   3.448   6.915   7.945  0.0589 -0.7086  0.1737
 3961TIP3    H136078   3.519   6.953   7.997  0.3810 -1.6578  0.4368
 3961TIP3    H236079   3.489   6.846   7.894 -0.6057 -1.0193  0.0520
 3962TIP3   OH236080   7.518   6.552   7.200  0.0652  0.0599  0.7395
 3962TIP3    H136081   7.455   6.483   7.182 -1.5573  1.7541 -0.4247
 3962TIP3    H236082   7.583   6.511   7.258 -1.2690 -2.1590  0.7690
 3963TIP3   OH236083   5.991   6.681   8.011  0.0728 -0.2730  0.0082
 3963TIP3    H136084   6.061   6.642   8.063  0.2755  0.3153  0.1798
 3963TIP3    H236085   5.962   6.610   7.953  0.7841 -0.5278 -0.0400
 3964TIP3   OH236086   4.581   7.429   8.593  0.0208  0.2201  0.0132
 3964TIP3    H136087   4.548   7.352   8.639  0.6891  1.9808  3.7665
 3964TIP3    H236088   4.502   7.477   8.568 -0.3704 -0.2066  0.4059
 3965TIP3   OH236089   1.984   0.940   7.220 -0.0303  0.0632 -0.5689
 3965TIP3    H136090   2.024   1.017   7.179 -0.8431  0.9956  0.3220
 3965TIP3    H236091   2.056   0.879   7.233  0.8071  1.0426 -0.4897
 3966TIP3   OH236092   7.229   7.252   8.204  0.4784 -0.1690  0.2112
 3966TIP3    H136093   7.233   7.311   8.280 -1.0637  0.1056  0.1000
 3966TIP3    H236094   7.276   7.299   8.135 -0.0265  0.5782  0.3644
 3967TIP3   OH236095   4.340   6.357   8.584 -0.2133  0.2236  0.7589
 3967TIP3    H136096   4.336   6.262   8.594 -0.4773  0.1820  0.3080
 3967TIP3    H236097   4.389   6.371   8.503 -1.1036  0.4327  0.2431
 3968TIP3   OH236098   7.214   5.867   8.799 -0.6116  0.1258  0.3819
 3968TIP3    H136099   7.170   5.942   8.758 -0.7866 -0.0208  0.3038
 3968TIP3    H236100   7.277   5.907   8.859 -0.4552  0.3400  0.0783
 3969TIP3   OH236101   0.117   1.948   9.420  0.1672 -0.1524  0.7524
 3969TIP3    H136102   0.186   1.898   9.378 -0.8524 -0.4600 -0.6407
 3969TIP3    H236103   0.068   1.883   9.471  0.1778 -0.1566  0.7575
 3970TIP3   OH236104   7.675   6.715   7.843  0.6159  0.5523  0.2475
 3970TIP3    H136105   7.609   6.702   7.774  1.5596  1.9775 -0.9698
 3970TIP3    H236106   7.625   6.747   7.918 -0.6436 -2.3723  0.8109
 3971TIP3   OH236107   4.298   4.706   8.815 -0.5474  0.6911  0.3237
 3971TIP3    H136108   4.333   4.723   8.902  0.3624 -2.0945  0.6106
 3971TIP3    H236109   4.374   4.681   8.762 -1.1742  1.6275 -1.0962
 3972TIP3   OH236110   2.847   0.373   6.994  0.0767 -0.0006  0.4915
 3972TIP3    H136111   2.836   0.326   6.911  1.6294 -1.4567  1.0620
 3972TIP3    H236112   2.924   0.428   6.981 -1.2691  1.9003  0.1008
 3973TIP3   OH236113   0.461   4.278   7.312 -0.0057 -0.3026  0.1211
 3973TIP3    H136114   0.503   4.209   7.260 -1.6698 -0.4290 -1.1503
 3973TIP3    H236115   0.407   4.326   7.249 -2.4212 -0.6826  1.7596
 3974TIP3   OH236116   3.249   5.455   9.175 -0.6728  0.2845 -0.2775
 3974TIP3    H136117   3.235   5.542   9.138 -2.8002 -0.8598 -2.5037
 3974TIP3    H236118   3.314   5.415   9.117 -1.6738 -0.4529 -0.9265
 3975TIP3   OH236119   2.870   3.057   8.923 -0.3125 -0.1094 -0.0238
 3975TIP3    H136120   2.935   2.991   8.898  0.6521  0.5167  0.7587
 3975TIP3    H236121   2.800   3.007   8.965  0.7046 -0.6054  1.1549
 3976TIP3   OH236122   6.142   6.768   8.710  0.3563  0.4830 -0.4291
 3976TIP3    H136123   6.094   6.703   8.658  0.5338 -1.4942  1.7382
 3976TIP3    H236124   6.146   6.730   8.797 -0.0002  3.7014  1.1080
 3977TIP3   OH236125   7.480   2.329   7.517  0.0620  0.4554  0.3571
 3977TIP3    H136126   7.395   2.286   7.504  0.6755 -0.3872 -1.1763
 3977TIP3    H236127   7.482   2.349   7.610 -1.5164 -0.1609  0.5691
 3978TIP3   OH236128   0.275   1.364   7.373 -0.7708  0.3717  0.0317
 3978TIP3    H136129   0.364   1.394   7.354 -0.8018  0.2641 -0.2796
 3978TIP3    H236130   0.228   1.375   7.291 -1.0064  0.2810  0.1540
 3979TIP3   OH236131   1.577   4.603   7.747  0.2950  0.7047 -0.6320
 3979TIP3    H136132   1.616   4.565   7.668  1.5806  0.1348  0.2405
 3979TIP3    H236133   1.647   4.655   7.786  0.6725 -1.3048  1.6136
 3980TIP3   OH236134   7.128   7.573   8.138 -0.8096 -0.4598  0.3046
 3980TIP3    H136135   7.209   7.557   8.187 -0.0686 -0.6026 -0.8970
 3980TIP3    H236136   7.059   7.569   8.203  0.0827 -1.0682  1.2560
 3981TIP3   OH236137   5.579   4.003   7.714 -0.2042  0.2386 -0.2348
 3981TIP3    H136138   5.659   3.953   7.731 -1.2469 -2.0548 -1.6169
 3981TIP3    H236139   5.579   4.071   7.781  1.6441 -1.2299  1.3923
 3982TIP3   OH236140   1.062   3.947   8.651  0.4867 -0.5304 -0.3541
 3982TIP3    H136141   1.144   3.945   8.701  0.0497 -0.4983  0.3844
 3982TIP3    H236142   1.004   4.005   8.702 -0.0682 -0.7347 -0.7395
 3983TIP3   OH236143   3.269   1.427   9.143 -0.4161  0.1843  0.1289
 3983TIP3    H136144   3.324   1.396   9.215 -0.0706  1.6709  0.5396
 3983TIP3    H236145   3.302   1.381   9.066 -0.0533 -0.5827  0.7205
 3984TIP3   OH236146   6.520   0.269   6.862 -0.1853 -0.0459  0.5561
 3984TIP3    H136147   6.472   0.189   6.883 -0.0564 -0.5205 -0.8864
 3984TIP3    H236148   6.610   0.240   6.847  0.0297  0.4862  0.7810
 3985TIP3   OH236149   2.682   2.593   8.399 -0.7329  0.1178  0.3927
 3985TIP3    H136150   2.596   2.552   8.400 -1.9040  2.4099 -0.0949
 3985TIP3    H236151   2.721   2.569   8.483 -1.1386 -2.2344 -0.0112
 3986TIP3   OH236152   2.607   6.428   8.139  0.4685  0.5759  0.0738
 3986TIP3    H136153   2.558   6.395   8.214  0.7148 -0.7294 -0.3167
 3986TIP3    H236154   2.541   6.455   8.076  0.2567  0.0654  0.0788
 3987TIP3   OH236155   4.134   6.458   9.040 -0.1070 -0.2752  0.0389
 3987TIP3    H136156   4.210   6.510   9.067 -0.1377  0.0858 -0.5644
 3987TIP3    H236157   4.134   6.463   8.945 -2.7334  2.4626  0.0118
 3988TIP3   OH236158   3.671   1.018   7.785  0.3679  0.4530 -0.1294
 3988TIP3    H136159   3.653   1.022   7.879 -1.4709 -0.7059 -0.3869
 3988TIP3    H236160   3.766   1.023   7.778  0.4942  1.3040  1.7383
 3989TIP3   OH236161   5.485   4.960   8.621 -0.3911 -0.2261 -0.3152
 3989TIP3    H136162   5.432   4.993   8.549 -2.7490  0.8200  1.7342
 3989TIP3    H236163   5.551   5.028   8.634 -2.4710  1.7200  0.9944
 3990TIP3   OH236164   7.053   6.397   7.792  0.0104 -0.7320 -0.2386
 3990TIP3    H136165   7.095   6.345   7.861  0.9275 -0.6396 -0.7144
 3990TIP3    H236166   7.091   6.484   7.800 -1.6678 -0.0478  0.6781
 3991TIP3   OH236167   4.910   5.338   7.361  0.1383  0.1484 -1.1617
 3991TIP3    H136168   4.975   5.317   7.294 -1.6271  1.4006 -3.4378
 3991TIP3    H236169   4.838   5.277   7.345 -0.0202 -0.0255  0.1155
 3992TIP3   OH236170   0.250   3.617   6.975  0.8786 -0.2778  0.4701
 3992TIP3    H136171   0.315   3.566   7.024 -0.0247 -1.1141  0.8352
 3992TIP3    H236172   0.199   3.551   6.927 -0.2163  0.2899  0.8177
 3993TIP3   OH236173   0.428   5.608   8.128 -0.2156  0.2947  0.1896
 3993TIP3    H136174   0.485   5.547   8.080 -0.6564 -0.2748  0.3789
 3993TIP3    H236175   0.362   5.552   8.169 -1.3118  0.9923 -0.5565
 3994TIP3   OH236176   5.812   2.854   9.017  0.1372  0.0786  0.6549
 3994TIP3    H136177   5.821   2.838   8.924 -1.3577 -1.3021  0.7012
 3994TIP3    H236178   5.895   2.893   9.044  0.1807  1.5828 -1.4460
 3995TIP3   OH236179   7.402   3.973   9.187  0.2096 -0.0231  0.0672
 3995TIP3    H136180   7.455   3.921   9.126  1.4568  0.6056  0.5798
 3995TIP3    H236181   7.457   4.049   9.208 -1.1383  0.9712  0.1620
 3996TIP3   OH236182   2.666   2.066   8.955  0.3244 -0.2833 -0.3411
 3996TIP3    H136183   2.594   2.009   8.983  0.5393 -0.3948 -0.0173
 3996TIP3    H236184   2.731   2.006   8.919 -0.0771 -0.1223 -1.3768
 3997TIP3   OH236185   3.844   4.137   7.557 -0.6802  0.0089  0.2255
 3997TIP3    H136186   3.893   4.208   7.515  1.0870 -1.0479  0.3704
 3997TIP3    H236187   3.866   4.059   7.506 -2.3387 -0.5128  0.2528
 3998TIP3   OH236188   7.412   0.729   7.956 -0.3006  0.4410  0.0657
 3998TIP3    H136189   7.342   0.792   7.936 -0.1576  0.7065  0.3781
 3998TIP3    H236190   7.390   0.696   8.043 -1.0766 -0.9196 -0.6286
 3999TIP3   OH236191   1.684   6.073   7.175  0.3602 -0.3229 -0.4382
 3999TIP3    H136192   1.741   6.149   7.183 -0.9750  0.6267  0.4042
 3999TIP3    H236193   1.718   6.025   7.099  1.5164  0.8429 -0.6843
 4000TIP3   OH236194   3.652   6.553   9.139 -0.4242  0.2766  0.4478
 4000TIP3    H136195   3.648   6.644   9.108  0.4695  0.8358  1.8635
 4000TIP3    H236196   3.720   6.513   9.085  0.8238  1.1182  1.3275
 4001TIP3   OH236197   6.599   7.068   9.183 -0.1298 -0.3761 -0.2762
 4001TIP3    H136198   6.689   7.083   9.211 -0.9560  1.3614  1.7560
 4001TIP3    H236199   6.593   7.112   9.098  1.2564 -1.7850 -1.1699
 4002TIP3   OH236200   3.921   1.417   8.273 -0.4096  0.0244 -0.1884
 4002TIP3    H136201   4.008   1.447   8.246 -0.8807  0.8091 -0.8794
 4002TIP3    H236202   3.938   1.334   8.317  0.6356 -0.1452 -0.8537
 4003TIP3   OH236203   0.027   5.197   6.371 -0.2042 -0.3068 -0.2650
 4003TIP3    H136204  -0.036   5.209   6.299  0.2517  1.8180 -0.3778
 4003TIP3    H236205   0.112   5.214   6.331  0.2128 -0.6770  0.4462
 4004TIP3   OH236206   5.026   2.672   7.094 -0.6226  0.1137 -0.0780
 4004TIP3    H136207   4.939   2.694   7.059 -0.0351  2.3874 -0.3086
 4004TIP3    H236208   5.060   2.605   7.035 -2.3680 -1.1821  0.2943
 4005TIP3   OH236209   6.281   4.192   9.508  0.3157 -0.1339  0.4115
 4005TIP3    H136210   6.240   4.207   9.593  1.8195  0.8919  1.0185
 4005TIP3    H236211   6.301   4.280   9.475 -0.8590 -0.4836 -1.3498
 4006TIP3   OH236212   1.498   4.476   7.306  0.0972 -0.0815 -0.1920
 4006TIP3    H136213   1.534   4.533   7.239 -1.6049  1.0397 -0.2171
 4006TIP3    H236214   1.416   4.443   7.268 -0.6504  0.1850  1.1341
 4007TIP3   OH236215   4.087   5.571   7.751 -0.7598  0.4251 -0.3977
 4007TIP3    H136216   3.998   5.604   7.742 -0.3914  1.6539  0.2165
 4007TIP3    H236217   4.138   5.647   7.778  0.0600 -0.7031  1.4649
 4008TIP3   OH236218   0.002   4.009   7.595  0.2576 -0.7589  0.0943
 4008TIP3    H136219  -0.084   4.049   7.606  0.3831 -0.2282 -0.7596
 4008TIP3    H236220   0.004   3.982   7.503  0.9020 -0.9913  0.1756
 4009TIP3   OH236221   6.054   6.272   7.368  0.0938 -0.1255 -0.2326
 4009TIP3    H136222   6.143   6.254   7.399 -0.8332 -2.3324  1.4609
 4009TIP3    H236223   6.031   6.355   7.409  1.3030  0.4024 -0.5748
 4010TIP3   OH236224   7.553   6.782   9.252 -0.8348  0.0117  0.2046
 4010TIP3    H136225   7.608   6.718   9.297  0.6294 -0.2458 -1.8150
 4010TIP3    H236226   7.599   6.865   9.262 -0.0921 -0.1720 -1.3438
 4011TIP3   OH236227   6.390   0.812   8.600  0.0031  0.4009  0.2719
 4011TIP3    H136228   6.381   0.905   8.623  1.9570  1.2084 -1.8041
 4011TIP3    H236229   6.454   0.778   8.662  0.6865  0.9490 -0.1229
 4012TIP3   OH236230   5.554   6.572   7.638 -0.5747 -0.2537 -0.0769
 4012TIP3    H136231   5.565   6.601   7.729  0.5551  0.5407 -0.4477
 4012TIP3    H236232   5.553   6.477   7.643  3.2024 -0.3893  0.4540
 4013TIP3   OH236233   5.964   4.201   8.581 -0.2537  0.4414 -0.0100
 4013TIP3    H136234   5.939   4.118   8.621 -1.0790 -1.0501 -3.2988
 4013TIP3    H236235   6.052   4.219   8.615 -0.1740 -1.6028  0.9880
 4014TIP3   OH236236   3.740   3.061   7.244  0.0791 -0.1059  0.5185
 4014TIP3    H136237   3.745   3.052   7.148 -0.6695  1.7036  0.2710
 4014TIP3    H236238   3.808   3.125   7.265 -0.4536  0.2802  1.0756
 4015TIP3   OH236239   0.166   5.420   6.976  0.2077  0.1895 -0.1472
 4015TIP3    H136240   0.137   5.361   6.906 -1.7853  1.8674 -0.8239
 4015TIP3    H236241   0.147   5.373   7.057  2.7016 -1.8567 -0.6118
 4016TIP3   OH236242   5.142   1.218   7.966 -0.5420 -0.2264  0.2252
 4016TIP3    H136243   5.110   1.142   8.015 -0.6985  0.2263  0.8344
 4016TIP3    H236244   5.226   1.191   7.931  0.1677 -0.1465  1.7907
 4017TIP3   OH236245   2.546   7.195   8.706  0.3268 -0.0057  0.0785
 4017TIP3    H136246   2.632   7.227   8.731 -0.9742  1.6533  2.8266
 4017TIP3    H236247   2.495   7.274   8.688 -1.3476 -0.7707  1.1815
 4018TIP3   OH236248   0.124   7.638   6.794  0.3161 -0.4598 -0.6658
 4018TIP3    H136249   0.147   7.685   6.714  1.7915 -0.6550 -0.4015
 4018TIP3    H236250   0.051   7.582   6.770 -0.1153  0.4543 -1.5251
 4019TIP3   OH236251   0.751   5.413   6.744 -0.1048 -0.3392  0.0097
 4019TIP3    H136252   0.717   5.325   6.764 -3.1501 -0.0099 -2.7656
 4019TIP3    H236253   0.683   5.472   6.777  0.0692  0.7145 -1.4522
 4020TIP3   OH236254   1.927   7.328   7.659 -0.3652 -0.1218 -0.0861
 4020TIP3    H136255   1.951   7.420   7.651 -0.4751 -0.1103 -0.3162
 4020TIP3    H236256   1.950   7.290   7.573  0.8540 -0.5838  0.4239
 4021TIP3   OH236257   4.956   4.813   9.490 -0.0016  0.0318 -0.3977
 4021TIP3    H136258   4.933   4.891   9.439 -1.2596  0.0968  0.2315
 4021TIP3    H236259   4.874   4.764   9.497  0.5793 -0.9166 -0.0413
 4022TIP3   OH236260   1.039   5.737   6.816  0.2236 -0.4010  0.3678
 4022TIP3    H136261   1.120   5.788   6.819 -0.3168  0.5038  0.0727
 4022TIP3    H236262   1.028   5.704   6.905  0.2010  0.6366  0.7625
 4023TIP3   OH236263   5.725   2.298   7.453  0.0099 -0.2624  0.4727
 4023TIP3    H136264   5.775   2.348   7.517 -0.8147  1.8969 -0.5035
 4023TIP3    H236265   5.778   2.301   7.373 -0.5041 -0.1273  0.1346
 4024TIP3   OH236266   0.585   0.027   8.089  0.4736  0.0634 -0.0307
 4024TIP3    H136267   0.596  -0.011   8.001 -0.1878 -0.1957 -0.0122
 4024TIP3    H236268   0.531  -0.037   8.135  0.5450  0.3579  0.4617
 4025TIP3   OH236269   5.803   0.094   7.659  0.1164 -0.6922 -0.5222
 4025TIP3    H136270   5.819   0.187   7.644  1.8554 -0.1942  3.1840
 4025TIP3    H236271   5.729   0.093   7.720  0.8873 -1.6126  0.4225
 4026TIP3   OH236272   2.754   5.504   9.173  0.1230  0.5336 -0.1495
 4026TIP3    H136273   2.676   5.484   9.224  1.7756 -0.0465  2.3601
 4026TIP3    H236274   2.731   5.481   9.083 -2.2987 -0.3765  0.6193
 4027TIP3   OH236275   3.834   1.827   8.265 -0.2012  0.3490 -0.0942
 4027TIP3    H136276   3.777   1.856   8.335  1.0343  0.1723  1.0294
 4027TIP3    H236277   3.794   1.862   8.185  0.0043  3.2516  0.9480
 4028TIP3   OH236278   3.591   0.415   8.675 -0.2654 -0.0708  0.7172
 4028TIP3    H136279   3.496   0.429   8.666 -0.5362 -1.7505  0.7861
 4028TIP3    H236280   3.603   0.393   8.768  0.1708 -0.0561  0.6649
 4029TIP3   OH236281   3.289   2.800   7.868 -0.3417 -0.3105 -0.0087
 4029TIP3    H136282   3.290   2.854   7.947  0.8784 -1.1015  0.5334
 4029TIP3    H236283   3.211   2.745   7.878 -1.2851  0.9180 -0.3038
 4030TIP3   OH236284   0.961   6.224   7.535 -0.2406  0.2110 -0.5450
 4030TIP3    H136285   1.050   6.250   7.509  0.2234  1.1605  1.6948
 4030TIP3    H236286   0.968   6.129   7.549  0.5544  0.3220 -0.0647
 4031TIP3   OH236287   6.165   2.273   8.802  0.2418  1.1609  0.4938
 4031TIP3    H136288   6.198   2.276   8.891  1.1581  2.0774  0.1482
 4031TIP3    H236289   6.224   2.215   8.755 -0.1728  0.7655  0.4515
 4032TIP3   OH236290   7.290   6.481   9.054  0.3839  0.4132  0.6828
 4032TIP3    H136291   7.313   6.422   8.982  1.6460  1.3389  0.2844
 4032TIP3    H236292   7.314   6.432   9.133  2.0253  0.5895  0.3350
 4033TIP3   OH236293   2.677   6.736   8.214  0.0632 -0.1201 -0.2061
 4033TIP3    H136294   2.590   6.703   8.235  0.0044 -2.6471 -3.5397
 4033TIP3    H236295   2.737   6.670   8.250  0.3682 -0.2629 -0.9513
 4034TIP3   OH236296   1.937   6.761   7.925  0.3761  0.1018 -0.5177
 4034TIP3    H136297   1.891   6.767   7.841 -1.3291  0.2853  0.3946
 4034TIP3    H236298   1.907   6.837   7.975 -0.8893 -1.4756  1.2906
 4035TIP3   OH236299   5.515   4.349   9.218 -0.4419 -0.0014  0.0639
 4035TIP3    H136300   5.535   4.421   9.278  2.5130 -1.4007  0.9632
 4035TIP3    H236301   5.554   4.272   9.259  0.4267 -1.3195 -2.9493
 4036TIP3   OH236302   3.392   3.135   8.097  0.0377  0.2282 -0.0559
 4036TIP3    H136303   3.441   3.086   8.163  1.4165  1.1827 -0.3260
 4036TIP3    H236304   3.452   3.206   8.070 -0.9567  0.5896 -1.4335
 4037TIP3   OH236305   2.488   3.238   7.573 -0.0766 -0.2182 -0.4646
 4037TIP3    H136306   2.402   3.254   7.613 -0.1027  1.8557 -1.2510
 4037TIP3    H236307   2.467   3.208   7.485  0.0236 -0.8570 -0.2790
 4038TIP3   OH236308   2.138   0.325   8.270  0.2357 -0.2566  0.0733
 4038TIP3    H136309   2.212   0.383   8.290 -0.9951  1.7290 -0.7489
 4038TIP3    H236310   2.111   0.291   8.355  1.5141 -0.3079  0.4905
 4039TIP3   OH236311   1.294   0.755   8.483 -0.2360  0.4349 -0.1842
 4039TIP3    H136312   1.199   0.743   8.476 -0.3410  0.5588  0.7895
 4039TIP3    H236313   1.304   0.849   8.498  0.0596  0.4610 -0.5482
 4040TIP3   OH236314   6.607   4.378   9.361  0.2191 -0.3011 -0.4751
 4040TIP3    H136315   6.588   4.373   9.267 -0.5264  0.0542 -0.3490
 4040TIP3    H236316   6.524   4.404   9.401  0.5812 -0.2638  0.2637
 4041TIP3   OH236317   5.835   0.441   7.626  0.6119  0.0800 -0.5638
 4041TIP3    H136318   5.820   0.454   7.719  1.9053 -0.7522 -0.2168
 4041TIP3    H236319   5.926   0.412   7.620  0.7462  0.7139 -2.1419
 4042TIP3   OH236320   6.851   2.784   7.183 -0.8253 -0.0077 -0.5048
 4042TIP3    H136321   6.835   2.735   7.102  0.4985 -0.8590 -0.2861
 4042TIP3    H236322   6.864   2.716   7.250 -0.1719  0.6578  0.0592
 4043TIP3   OH236323   1.806   3.685   6.565 -0.0411 -0.7946 -0.4173
 4043TIP3    H136324   1.725   3.732   6.546  0.2269 -1.0285 -2.3650
 4043TIP3    H236325   1.778   3.598   6.591 -0.4316 -0.8897 -1.1357
 4044TIP3   OH236326   0.718   4.738   7.723  0.0074  0.4062  0.6748
 4044TIP3    H136327   0.714   4.717   7.630 -0.2639 -0.8834  0.9660
 4044TIP3    H236328   0.806   4.773   7.737  0.7056 -1.1460  0.2864
 4045TIP3   OH236329   2.222   1.271   8.048  0.0604  0.0678  0.7993
 4045TIP3    H136330   2.230   1.324   7.968  0.0583 -0.7115  0.2677
 4045TIP3    H236331   2.243   1.332   8.119  2.1413  0.2979  0.0730
 4046TIP3   OH236332   2.227   1.426   8.274 -0.0250 -0.6878  0.2145
 4046TIP3    H136333   2.242   1.520   8.268  0.2549 -0.8217 -1.9057
 4046TIP3    H236334   2.292   1.395   8.338 -0.2428  0.5545  1.0610
 4047TIP3   OH236335   1.341   0.439   8.572  0.0182 -0.1032 -0.0967
 4047TIP3    H136336   1.288   0.506   8.615 -0.1323  0.3577 -0.9597
 4047TIP3    H236337   1.395   0.402   8.641  0.1771  0.9876  0.3892
 4048TIP3   OH236338   4.166   4.854   7.204  0.1468  0.2673  0.3140
 4048TIP3    H136339   4.182   4.796   7.130  0.3224  0.0481  0.5211
 4048TIP3    H236340   4.254   4.879   7.235  0.1153  2.1071 -0.8890
 4049TIP3   OH236341   4.389   1.530   7.836 -0.4209  0.3274  0.9596
 4049TIP3    H136342   4.376   1.460   7.899  0.9346 -0.3980  0.4608
 4049TIP3    H236343   4.448   1.592   7.879  0.4934 -0.1608  0.4314
 4050TIP3   OH236344   1.078   5.310   7.351 -0.2297  0.0355  0.1469
 4050TIP3    H136345   1.145   5.253   7.387 -0.2460 -1.2745 -1.8179
 4050TIP3    H236346   1.110   5.334   7.264 -1.2313  1.2936  0.0959
 4051TIP3   OH236347   5.381   6.961   8.268 -0.2424 -0.7431 -0.0763
 4051TIP3    H136348   5.315   6.902   8.233 -0.2150 -0.5189 -0.5104
 4051TIP3    H236349   5.391   6.934   8.359 -0.2092 -1.4234 -0.2740
 4052TIP3   OH236350   7.066   3.382   7.516  0.4170  0.3027 -0.5054
 4052TIP3    H136351   7.105   3.295   7.515 -0.4925 -0.1184 -0.6447
 4052TIP3    H236352   7.046   3.399   7.609  0.5865  0.3625 -0.4794
 4053TIP3   OH236353   6.703   2.487   9.189  0.1265  0.0820  0.0509
 4053TIP3    H136354   6.782   2.434   9.181 -0.0216 -0.0437 -0.6621
 4053TIP3    H236355   6.633   2.431   9.157 -0.1495  0.4313  0.0318
 4054TIP3   OH236356   0.831   1.152   8.302 -0.8609  0.0155  0.0584
 4054TIP3    H136357   0.893   1.118   8.366 -1.9432 -1.5289  0.3334
 4054TIP3    H236358   0.767   1.202   8.354  0.5930  2.4557 -0.3188
 4055TIP3   OH236359   7.628   0.660   7.808  0.2013 -0.8083 -0.1049
 4055TIP3    H136360   7.696   0.698   7.865  0.3087 -0.3013 -0.5580
 4055TIP3    H236361   7.546   0.686   7.850  0.2798 -1.3450  0.3957
 4056TIP3   OH236362   7.561   4.296   8.546 -0.3606 -0.2878  0.2196
 4056TIP3    H136363   7.525   4.255   8.467  0.0840 -0.7111  0.2338
 4056TIP3    H236364   7.646   4.254   8.559  0.8098  1.6778 -0.6215
 4057TIP3   OH236365   5.294   5.778   9.321 -0.0335 -0.0091 -0.3819
 4057TIP3    H136366   5.371   5.730   9.351 -0.1483  0.9212  1.5899
 4057TIP3    H236367   5.220   5.722   9.345 -0.0814  0.3102  0.2342
 4058TIP3   OH236368   4.160   2.476   8.435 -0.0260  0.2299  0.3430
 4058TIP3    H136369   4.186   2.467   8.527 -2.5921 -0.0536  1.1083
 4058TIP3    H236370   4.082   2.532   8.438  0.3873  0.9816 -1.7761
 4059TIP3   OH236371   2.694   0.032   8.332 -0.0303  0.6321  0.3783
 4059TIP3    H136372   2.658   0.119   8.313 -0.6300  0.4234  0.5379
 4059TIP3    H236373   2.691  -0.014   8.248 -0.8420  0.3709  0.5350
 4060TIP3   OH236374   6.271   2.938   7.477 -0.2843  0.5614  0.1870
 4060TIP3    H136375   6.350   2.902   7.436  0.2118  1.2373  0.5385
 4060TIP3    H236376   6.245   2.872   7.542  0.1289  0.4500  0.2388
 4061TIP3   OH236377   0.162   1.957   7.507  0.1456  0.6802  0.2495
 4061TIP3    H136378   0.226   1.964   7.578 -0.9130 -2.3397  1.6464
 4061TIP3    H236379   0.128   1.868   7.514 -3.8342  1.9410 -0.7360
 4062TIP3   OH236380   2.605   4.814   9.679  0.2492 -0.0376  0.7018
 4062TIP3    H136381   2.527   4.814   9.624  1.4049  0.0056 -1.0230
 4062TIP3    H236382   2.611   4.725   9.713 -0.7960  0.0908  1.2487
 4063TIP3   OH236383   1.372   3.639   9.036 -0.0732  0.0219 -0.2465
 4063TIP3    H136384   1.466   3.620   9.027 -0.2355 -0.5149 -0.8988
 4063TIP3    H236385   1.366   3.695   9.113  0.5622 -1.5910  1.0392
 4064TIP3   OH236386   6.545   6.206   6.500  0.1998  0.3120 -0.4362
 4064TIP3    H136387   6.565   6.253   6.419  0.2776 -0.5572 -0.9322
 4064TIP3    H236388   6.590   6.122   6.491 -0.3269 -0.0528  0.2279
 4065TIP3   OH236389   3.401   6.968   7.061  0.6782 -0.8578  0.3015
 4065TIP3    H136390   3.469   6.902   7.046  0.8338 -0.5513 -0.3558
 4065TIP3    H236391   3.373   6.993   6.973 -1.8376 -2.5619  0.5181
 4066TIP3   OH236392   0.987   6.278   9.246  0.3773 -0.5546 -0.0924
 4066TIP3    H136393   0.960   6.355   9.196  2.5490  0.3718  0.0567
 4066TIP3    H236394   1.052   6.234   9.191  0.8355 -1.0140  0.7847
 4067TIP3   OH236395   3.267   3.021   6.776 -0.1658 -0.0320  0.5151
 4067TIP3    H136396   3.236   3.106   6.745 -0.0418 -0.3562 -0.5644
 4067TIP3    H236397   3.336   3.042   6.839  1.4512  0.7342 -1.3689
 4068TIP3   OH236398   0.700   3.804   7.342 -0.0234  0.4342 -0.1508
 4068TIP3    H136399   0.705   3.792   7.247 -0.2368 -0.4056 -0.0651
 4068TIP3    H236400   0.761   3.740   7.378 -2.5426 -1.8261  0.4175
 4069TIP3   OH236401   2.608   5.643   7.444  0.2376 -0.1246 -0.0439
 4069TIP3    H136402   2.522   5.601   7.450  0.8005 -1.4311 -0.7974
 4069TIP3    H236403   2.628   5.667   7.535  0.3200 -2.4307  0.6225
 4070TIP3   OH236404   6.548   2.647   8.616  0.1283  0.5968 -0.0419
 4070TIP3    H136405   6.576   2.624   8.527 -2.0529  0.4717 -0.7710
 4070TIP3    H236406   6.468   2.698   8.602 -1.3850 -1.0997  1.8836
 4071TIP3   OH236407   6.341   4.496   8.771  0.8551  0.2046 -0.6955
 4071TIP3    H136408   6.361   4.578   8.815 -0.3853  0.5245 -0.6814
 4071TIP3    H236409   6.337   4.431   8.842  1.8225  0.1259 -0.7072
 4072TIP3   OH236410   1.078   5.227   6.726 -0.3454  0.2160 -0.2314
 4072TIP3    H136411   1.068   5.193   6.637 -3.0928 -0.3071  0.1709
 4072TIP3    H236412   1.078   5.322   6.716 -2.0698  0.2022 -0.7636
 4073TIP3   OH236413   5.872   1.837   7.003  0.2048 -0.4219  0.0994
 4073TIP3    H136414   5.854   1.770   6.936  0.2342  1.5044 -1.9418
 4073TIP3    H236415   5.967   1.850   6.999 -0.0309  1.2586 -1.1385
 4074TIP3   OH236416   4.375   6.929   7.875 -0.3878  0.3558  0.0876
 4074TIP3    H136417   4.425   6.940   7.956 -2.0862  2.0303  0.9851
 4074TIP3    H236418   4.417   6.854   7.831  3.1585  1.8639  0.5314
 4075TIP3   OH236419   1.506   1.299   8.520  0.2795 -0.3601 -0.0118
 4075TIP3    H136420   1.552   1.273   8.600  0.0270 -2.2698 -0.4448
 4075TIP3    H236421   1.438   1.359   8.549  1.3673  0.4535  0.9566
 4076TIP3   OH236422   1.659   3.565   9.421 -0.2779  0.6706  0.2139
 4076TIP3    H136423   1.612   3.504   9.364 -0.8953 -0.3647  1.7529
 4076TIP3    H236424   1.751   3.548   9.403 -0.4509 -0.0653 -0.0504
 4077TIP3   OH236425   5.312   6.055   8.333  0.5706  0.0932  0.1889
 4077TIP3    H136426   5.369   5.988   8.297  0.3526 -0.2683  0.5129
 4077TIP3    H236427   5.318   6.128   8.270 -1.0021 -1.0903 -1.4522
 4078TIP3   OH236428   4.638   3.326   6.833 -0.5283  0.2874 -0.1757
 4078TIP3    H136429   4.597   3.291   6.754 -2.3904  0.5236  0.6256
 4078TIP3    H236430   4.729   3.342   6.808 -1.5135  2.3529 -2.9423
 4079TIP3   OH236431   3.432   7.341   8.979  0.2784 -0.0502 -0.2907
 4079TIP3    H136432   3.389   7.376   8.901  0.4628 -1.2691 -0.9730
 4079TIP3    H236433   3.375   7.365   9.051 -0.9644 -0.6452 -1.0507
 4080TIP3   OH236434   3.426   3.084   9.372  0.5013  0.5853 -0.0904
 4080TIP3    H136435   3.375   3.123   9.302  2.3111  2.3748 -0.5090
 4080TIP3    H236436   3.369   3.017   9.409 -1.2712  0.9927 -1.9144
 4081TIP3   OH236437   6.244   0.644   7.641 -0.2316 -0.1923  0.1304
 4081TIP3    H136438   6.239   0.705   7.568 -0.0435 -1.2304 -0.7694
 4081TIP3    H236439   6.224   0.698   7.718 -1.2247  0.7547 -0.7505
 4082TIP3   OH236440   4.533   7.179   8.766  1.0717  0.2037  0.3313
 4082TIP3    H136441   4.452   7.158   8.720  1.5871  0.1097 -0.5506
 4082TIP3    H236442   4.591   7.105   8.748  1.6517  0.6708  0.2310
 4083TIP3   OH236443   1.482   4.311   6.508  0.0193 -0.7466 -0.0480
 4083TIP3    H136444   1.399   4.345   6.473 -0.4149 -0.5743  1.0977
 4083TIP3    H236445   1.550   4.358   6.460 -0.5560  1.4293  1.1053
 4084TIP3   OH236446   5.718   0.637   9.349 -0.4654  0.3369 -0.5865
 4084TIP3    H136447   5.748   0.728   9.355 -0.7326  0.3751  0.3886
 4084TIP3    H236448   5.776   0.588   9.406 -1.6621  0.2704  0.6266
 4085TIP3   OH236449   6.873   5.081   8.110  0.2273 -0.0716  0.7506
 4085TIP3    H136450   6.947   5.110   8.163 -0.0075 -0.8421  1.5207
 4085TIP3    H236451   6.896   5.105   8.021  0.6868  1.1403  1.1802
 4086TIP3   OH236452   7.657   0.131   7.408 -0.4498 -0.5893 -0.3898
 4086TIP3    H136453   7.583   0.182   7.376 -0.5867 -0.2219  0.4832
 4086TIP3    H236454   7.664   0.058   7.346 -0.3092  0.4254 -1.5978
 4087TIP3   OH236455   7.293   5.502   7.544  0.3542 -0.0367 -0.2684
 4087TIP3    H136456   7.343   5.534   7.469 -1.6904  1.4241 -1.0843
 4087TIP3    H236457   7.209   5.474   7.508  0.2456 -1.7688  1.1546
 4088TIP3   OH236458   2.666   1.321   7.044 -0.5683 -0.5801 -0.1326
 4088TIP3    H136459   2.618   1.239   7.043  0.1536 -1.0258 -2.0414
 4088TIP3    H236460   2.611   1.382   6.995 -0.8388 -0.0540  0.7953
 4089TIP3   OH236461   3.418   3.857   7.141 -0.6124  0.0497  0.3297
 4089TIP3    H136462   3.395   3.796   7.071 -0.9220  1.9940 -1.3954
 4089TIP3    H236463   3.491   3.816   7.186 -0.2286 -1.1916 -1.3162
 4090TIP3   OH236464   2.709   5.417   8.620  0.5903  0.6311  0.1942
 4090TIP3    H136465   2.690   5.340   8.566 -1.0391 -0.4343  2.1711
 4090TIP3    H236466   2.788   5.455   8.580  1.7160 -2.2829 -0.6085
 4091TIP3   OH236467   1.182   7.006   7.813 -0.0929  0.5800  0.2891
 4091TIP3    H136468   1.165   6.940   7.746 -0.4600  0.7377  0.2268
 4091TIP3    H236469   1.219   6.956   7.886 -1.9763  0.0002  0.9263
 4092TIP3   OH236470   7.294   7.250   7.934 -0.3981 -0.1329 -0.5759
 4092TIP3    H136471   7.243   7.258   7.853 -0.5068  0.9135 -0.4145
 4092TIP3    H236472   7.328   7.160   7.932 -3.0246 -1.2290 -0.2364
 4093TIP3   OH236473   5.129   1.801   8.924 -0.2258  0.1450  0.6367
 4093TIP3    H136474   5.034   1.789   8.935 -0.1848 -1.7771 -0.5720
 4093TIP3    H236475   5.147   1.767   8.837  1.5929  0.4921  0.8444
 4094TIP3   OH236476   3.437   5.527   7.771 -0.1574 -0.0973  0.0537
 4094TIP3    H136477   3.515   5.479   7.799  0.2163  0.2204 -0.4072
 4094TIP3    H236478   3.462   5.619   7.781 -0.2263  0.0111 -0.7656
 4095TIP3   OH236479   3.272   1.151   8.627 -0.0084 -0.4333 -0.0109
 4095TIP3    H136480   3.241   1.092   8.558 -1.5302 -0.1113  0.3506
 4095TIP3    H236481   3.354   1.112   8.657  1.2270 -0.0880 -2.6161
 4096TIP3   OH236482   1.233   0.268   8.386 -0.1041  0.3989  0.2877
 4096TIP3    H136483   1.272   0.319   8.457 -0.9250  1.5706 -0.0788
 4096TIP3    H236484   1.139   0.275   8.400 -0.2421 -1.2290  0.3555
 4097TIP3   OH236485   4.184   4.388   9.581 -0.3306  0.1509 -0.7748
 4097TIP3    H136486   4.223   4.335   9.512  0.0472 -2.3418  1.2010
 4097TIP3    H236487   4.121   4.329   9.624 -1.1286  1.8464  0.5120
 4098TIP3   OH236488   7.074   3.396   8.957 -0.1813 -0.1081  0.1730
 4098TIP3    H136489   7.108   3.423   9.042 -3.3177  1.9507  0.9501
 4098TIP3    H236490   7.135   3.433   8.894  1.1567 -0.0041  1.4680
 4099TIP3   OH236491   0.258   6.042   8.280 -0.1887  0.8430 -0.2950
 4099TIP3    H136492   0.313   6.055   8.203  0.1377 -0.3692 -0.2850
 4099TIP3    H236493   0.253   5.947   8.290 -1.1256  0.9661  0.5410
 4100TIP3   OH236494   5.630   5.621   7.266  0.0645  0.1307  0.0976
 4100TIP3    H136495   5.665   5.705   7.294 -1.3448  0.9192 -0.4412
 4100TIP3    H236496   5.595   5.637   7.178 -0.0157 -1.0890 -0.1222
 4101TIP3   OH236497   5.734   6.653   8.713  0.0079  0.6299 -0.2681
 4101TIP3    H136498   5.705   6.727   8.767 -0.8482  0.2024 -0.1198
 4101TIP3    H236499   5.684   6.579   8.747  1.0949 -0.0833 -0.2017
 4102TIP3   OH236500   3.341   0.501   7.021  0.4548 -0.0253  0.1278
 4102TIP3    H136501   3.397   0.442   7.071  1.5007  0.8769  0.0558
 4102TIP3    H236502   3.333   0.458   6.935 -0.8307 -1.2587  0.8227
 4103TIP3   OH236503   3.067   3.956   8.134  0.4277 -0.4612 -0.0853
 4103TIP3    H136504   3.045   3.970   8.042 -0.9217 -0.7608  0.1657
 4103TIP3    H236505   3.135   3.889   8.133 -0.6819 -1.6034 -0.8097
 4104TIP3   OH236506   5.913   0.216   8.828  0.1199 -0.2289 -0.2955
 4104TIP3    H136507   5.881   0.190   8.742  0.9920 -0.2991 -0.6150
 4104TIP3    H236508   5.883   0.148   8.888  0.6055 -0.8635 -0.7663
 4105TIP3   OH236509   6.780   2.241   8.596  0.3767  0.2318  0.7416
 4105TIP3    H136510   6.697   2.287   8.592  0.3256  0.0826  0.0965
 4105TIP3    H236511   6.840   2.293   8.543 -0.2598 -1.6154 -2.0350
 4106TIP3   OH236512   4.079   1.780   8.345  0.0234  0.2871  0.3456
 4106TIP3    H136513   4.120   1.862   8.370 -2.3916  1.3720  0.9699
 4106TIP3    H236514   3.994   1.805   8.310 -0.3161 -1.8847 -0.5666
 4107TIP3   OH236515   6.204   2.232   9.078  0.2865  1.0207 -0.0985
 4107TIP3    H136516   6.177   2.296   9.144 -0.1755  0.0298  0.6940
 4107TIP3    H236517   6.153   2.153   9.098  0.3707  0.5940 -1.4497
 4108TIP3   OH236518   2.754   7.538   9.065  0.4475 -0.5424 -0.9255
 4108TIP3    H136519   2.696   7.474   9.106 -1.3761  0.9240 -1.0520
 4108TIP3    H236520   2.744   7.523   8.971 -0.4075  0.1886 -0.9793
 4109TIP3   OH236521   6.278   1.228   8.457 -0.2821  0.5706  0.5799
 4109TIP3    H136522   6.292   1.252   8.366  1.5551  1.6352  1.0922
 4109TIP3    H236523   6.183   1.238   8.470 -0.6775 -0.2432 -1.3447
 4110TIP3   OH236524   5.294   5.451   9.560  0.0503 -0.5325 -0.0472
 4110TIP3    H136525   5.355   5.489   9.496  1.9489 -1.5817  1.0249
 4110TIP3    H236526   5.253   5.526   9.603  1.8289  0.3003  0.2990
 4111TIP3   OH236527   0.985   6.810   7.402 -0.0817 -0.7154 -0.4807
 4111TIP3    H136528   0.965   6.856   7.321  0.0043  1.0157  0.4420
 4111TIP3    H236529   0.907   6.759   7.421 -1.8685  2.1993  0.5554
 4112TIP3   OH236530   5.842   2.745   7.121  0.2300  0.1022 -0.2394
 4112TIP3    H136531   5.852   2.650   7.128  1.8447  0.3435  1.5651
 4112TIP3    H236532   5.931   2.779   7.130 -0.6150  1.9075  2.4224
 4113TIP3   OH236533   7.439   6.213   8.593 -0.4600  0.3145 -0.0828
 4113TIP3    H136534   7.355   6.167   8.586 -0.5021 -0.1041  2.3205
 4113TIP3    H236535   7.501   6.146   8.622  0.7740  0.6096 -1.8766
 4114TIP3   OH236536   6.478   4.312   7.982  0.3004 -0.0635  0.2237
 4114TIP3    H136537   6.509   4.256   7.911  3.0274  1.0827  0.3539
 4114TIP3    H236538   6.482   4.401   7.946 -1.0572  0.3157  0.9333
 4115TIP3   OH236539   3.049   4.798   8.563 -1.1919 -0.3863  0.3744
 4115TIP3    H136540   3.099   4.727   8.524 -0.4466 -0.4711  1.4569
 4115TIP3    H236541   3.066   4.874   8.506  0.0844 -0.4394  0.6556
 4116TIP3   OH236542   6.503   6.530   7.352  0.1526 -0.6503  0.4691
 4116TIP3    H136543   6.491   6.471   7.426 -1.2465  0.1903  0.9486
 4116TIP3    H236544   6.528   6.613   7.392 -0.8756 -0.1204  0.0260
 4117TIP3   OH236545   1.532   3.219   9.012 -0.1111 -0.2196  0.0280
 4117TIP3    H136546   1.487   3.153   8.959 -0.4109 -1.5752  1.8807
 4117TIP3    H236547   1.577   3.169   9.079  2.0885  1.2950 -0.2116
 4118TIP3   OH236548   0.886   0.577   8.303  0.1877  0.5845  0.0216
 4118TIP3    H136549   0.931   0.639   8.245  0.4915  0.6697  0.3453
 4118TIP3    H236550   0.941   0.499   8.303  0.1266  0.5412  0.1016
 4119TIP3   OH236551   3.530   4.780   9.306  0.1356 -0.0793  0.9576
 4119TIP3    H136552   3.510   4.797   9.398 -0.3645 -0.6272  0.9558
 4119TIP3    H236553   3.605   4.721   9.308  3.1645  3.4249  0.9524
 4120TIP3   OH236554   6.180   5.512   7.909  0.0113  0.4648 -0.2135
 4120TIP3    H136555   6.147   5.475   7.990 -1.8455 -0.3525 -1.2869
 4120TIP3    H236556   6.247   5.449   7.879 -0.8232 -0.3641 -0.3782
 4121TIP3   OH236557   0.484   5.143   8.116 -0.0477  0.9637  0.0979
 4121TIP3    H136558   0.460   5.171   8.204 -2.5541  0.8890 -0.4960
 4121TIP3    H236559   0.428   5.068   8.097  1.7399 -0.2103 -0.9203
 4122TIP3   OH236560   6.688   6.950   7.681 -0.1859 -0.2073 -0.4840
 4122TIP3    H136561   6.723   6.972   7.767 -1.9575 -2.4064  0.9096
 4122TIP3    H236562   6.742   7.000   7.620  1.8007  0.6562  1.8048
 4123TIP3   OH236563   4.187   3.568   8.455 -0.4548 -0.0758 -0.0209
 4123TIP3    H136564   4.136   3.629   8.402  0.0456  1.1382  0.8374
 4123TIP3    H236565   4.271   3.560   8.409 -0.7301 -0.5880 -0.4405
 4124TIP3   OH236566   4.498   1.039   8.799  0.6244  0.3806  0.8019
 4124TIP3    H136567   4.506   0.954   8.755 -1.7353 -0.5069  1.8968
 4124TIP3    H236568   4.588   1.071   8.807  1.5967 -2.0651  0.4182
 4125TIP3   OH236569   1.588   1.022   9.288 -0.2746 -0.7135  0.3100
 4125TIP3    H136570   1.535   0.961   9.340 -1.2505  0.0239  0.2069
 4125TIP3    H236571   1.541   1.030   9.205  0.5582 -0.8372 -0.1924
 4126TIP3   OH236572   2.906   5.506   7.372 -0.4706 -0.3368 -0.0861
 4126TIP3    H136573   2.976   5.486   7.434  0.5746  1.3356 -0.6515
 4126TIP3    H236574   2.829   5.519   7.427  0.1862  0.0471  0.7784
 4127TIP3   OH236575   7.638   5.531   7.247  0.2329 -0.5202  0.2071
 4127TIP3    H136576   7.546   5.525   7.275  0.2804 -0.7432  0.3180
 4127TIP3    H236577   7.672   5.442   7.258  0.1249 -0.7243 -1.0296
 4128TIP3   OH236578   0.836   7.673   8.184  0.8756  0.7276  0.1666
 4128TIP3    H136579   0.752   7.720   8.189 -0.0062 -0.4969 -1.8792
 4128TIP3    H236580   0.820   7.591   8.230  0.6456  0.1064 -1.0032
 4129TIP3   OH236581   3.873   5.538   7.991  0.3319 -0.2299 -0.6783
 4129TIP3    H136582   3.827   5.605   7.938 -0.9986  0.5387  1.3261
 4129TIP3    H236583   3.874   5.460   7.935  0.0149  0.8500 -2.2639
 4130TIP3   OH236584   3.173   6.805   6.856  0.2917 -0.3905 -0.7660
 4130TIP3    H136585   3.243   6.861   6.823  0.5111 -1.0937 -1.4996
 4130TIP3    H236586   3.095   6.834   6.808  0.6024 -1.3854 -1.9032
 4131TIP3   OH236587   4.999   1.898   8.417  0.1823  0.4177 -0.4695
 4131TIP3    H136588   5.053   1.973   8.394 -0.5666  1.3137  0.6040
 4131TIP3    H236589   5.025   1.830   8.354  1.3987  1.3186 -0.9857
 4132TIP3   OH236590   0.183   4.013   6.875 -0.5479 -0.2169 -0.2001
 4132TIP3    H136591   0.194   4.077   6.804 -0.4823  0.9095  0.7881
 4132TIP3    H236592   0.152   3.934   6.831  1.4048 -0.2065 -1.7383
 4133TIP3   OH236593   4.198   6.493   8.784 -0.6353 -0.1851  0.4960
 4133TIP3    H136594   4.184   6.587   8.769  0.2658  0.2371  2.0850
 4133TIP3    H236595   4.232   6.460   8.701 -2.2854  0.5853 -0.5328
 4134TIP3   OH236596   7.502   2.497   9.426 -0.0130 -0.3463  0.1439
 4134TIP3    H136597   7.464   2.568   9.478  1.9601  0.9738 -0.1057
 4134TIP3    H236598   7.533   2.434   9.491  1.7536  0.9322  0.6182
 4135TIP3   OH236599   2.764   5.187   9.148  0.6531  0.7237  0.3326
 4135TIP3    H136600   2.729   5.271   9.120  0.2843  0.7681  0.9254
 4135TIP3    H236601   2.859   5.201   9.155  0.5448  1.2063  0.8397
 4136TIP3   OH236602   3.092   5.937   8.818  0.7297 -0.1963  0.2582
 4136TIP3    H136603   3.181   5.904   8.806  0.2817 -1.4161  0.1698
 4136TIP3    H236604   3.042   5.861   8.848  0.5067  1.2374  4.0821
 4137TIP3   OH236605   3.426   1.457   8.794 -0.3839  0.4827 -0.2327
 4137TIP3    H136606   3.432   1.388   8.860 -0.2502  0.0426 -0.6992
 4137TIP3    H236607   3.512   1.460   8.754 -0.6685  0.2538 -0.8749
 4138TIP3   OH236608   7.413   4.839   7.638 -0.4600  0.0498 -0.6801
 4138TIP3    H136609   7.390   4.907   7.702 -1.1092  0.6743 -1.5469
 4138TIP3    H236610   7.458   4.772   7.690 -0.3577  0.8465  0.3083
 4139TIP3   OH236611   4.600   4.655   7.404  0.6806 -0.7537  0.1064
 4139TIP3    H136612   4.641   4.741   7.404 -0.6858 -0.0385  1.8104
 4139TIP3    H236613   4.652   4.603   7.466  1.9797 -1.4571 -1.5019
 4140TIP3   OH236614   4.909   6.130   9.538 -0.7439  0.1799 -0.1182
 4140TIP3    H136615   4.939   6.105   9.626 -0.7012 -0.5628 -0.3348
 4140TIP3    H236616   4.881   6.221   9.547 -0.3458  0.2419  0.5687
 4141TIP3   OH236617   1.267   1.208   7.482 -0.2324 -0.0004  0.0708
 4141TIP3    H136618   1.329   1.261   7.432  0.5124  1.0144  1.9586
 4141TIP3    H236619   1.203   1.271   7.516 -0.3451 -0.5444  0.9114
 4142TIP3   OH236620   1.638   4.652   7.160 -0.2026 -0.0778 -0.4811
 4142TIP3    H136621   1.712   4.711   7.148 -1.0404  0.8383 -1.3291
 4142TIP3    H236622   1.563   4.701   7.127 -1.0923 -1.2198 -0.2084
 4143TIP3   OH236623   6.842   4.103   8.624 -0.3116 -0.4096 -0.7139
 4143TIP3    H136624   6.750   4.127   8.638 -0.3717 -0.3289 -1.1994
 4143TIP3    H236625   6.874   4.168   8.561  0.3713  0.1791  0.2092
 4144TIP3   OH236626   3.078   6.494   7.248  0.1724  0.0539 -0.0582
 4144TIP3    H136627   3.053   6.567   7.193  1.7772  0.8982  0.2666
 4144TIP3    H236628   3.059   6.416   7.196 -0.1648  0.7536 -0.9978
 4145TIP3   OH236629   2.948   4.086   7.012  0.1088  0.3681 -0.5330
 4145TIP3    H136630   3.005   4.020   6.974 -0.0869 -0.3323  0.3308
 4145TIP3    H236631   2.862   4.043   7.016  0.1563  0.3271  0.8141
 4146TIP3   OH236632   0.852   3.660   7.535 -0.7691  0.1130 -0.3409
 4146TIP3    H136633   0.937   3.671   7.492 -0.3842 -0.6192  0.2149
 4146TIP3    H236634   0.870   3.606   7.612 -1.5849  0.7549  0.3197
 4147TIP3   OH236635   6.115   5.421   8.155 -0.4221  0.3328 -0.2621
 4147TIP3    H136636   6.202   5.435   8.193 -0.6338 -1.0984  0.8266
 4147TIP3    H236637   6.089   5.333   8.185 -2.6052  1.0522  0.1447
 4148TIP3   OH236638   7.439   5.226   7.904 -0.1416 -0.3748 -0.1661
 4148TIP3    H136639   7.516   5.170   7.907  0.5134  0.4804 -0.5794
 4148TIP3    H236640   7.454   5.284   7.829 -0.6358  0.5651  0.4402
 4149TIP3   OH236641   3.889   1.060   8.966  0.3219 -0.2103  0.5395
 4149TIP3    H136642   3.899   1.137   9.021 -0.1009  0.6757 -0.5886
 4149TIP3    H236643   3.970   1.011   8.979  1.9043  1.8708 -0.9160
 4150TIP3   OH236644   7.436   0.095   6.433 -0.1880  0.0013 -0.2144
 4150TIP3    H136645   7.346   0.076   6.408  0.0349 -3.3863  1.0504
 4150TIP3    H236646   7.433   0.113   6.527  0.5991 -2.5632  0.3895
 4151TIP3   OH236647   4.146   5.322   7.629  0.3797  0.1339 -0.5551
 4151TIP3    H136648   4.069   5.354   7.677  0.4140  0.5042 -0.7439
 4151TIP3    H236649   4.190   5.402   7.598 -0.0451 -0.1015 -1.8294
 4152TIP3   OH236650   0.414   1.045   9.150 -0.2187 -0.0195  0.2228
 4152TIP3    H136651   0.350   1.117   9.153 -2.7106 -2.1125  2.7893
 4152TIP3    H236652   0.362   0.968   9.127  2.0816 -1.3497 -0.8658
 4153TIP3   OH236653   2.885   5.826   8.582 -0.3718  0.0995  0.1820
 4153TIP3    H136654   2.840   5.781   8.511 -0.2640  1.3656 -0.7372
 4153TIP3    H236655   2.939   5.759   8.623 -1.1914 -0.8788 -0.3027
 4154TIP3   OH236656   3.442   5.949   8.772 -0.0029  0.3828  0.3477
 4154TIP3    H136657   3.488   5.955   8.856  2.4677 -0.9401 -0.8076
 4154TIP3    H236658   3.432   6.040   8.743 -1.4653  0.9109  2.2764
 4155TIP3   OH236659   3.422   6.810   6.548  0.1529 -0.2179 -0.5235
 4155TIP3    H136660   3.357   6.740   6.542 -0.4468  0.4165 -1.9095
 4155TIP3    H236661   3.498   6.777   6.501  0.3067 -0.4060 -0.1407
 4156TIP3   OH236662   4.522   5.769   7.993  0.4213  0.1151  0.6481
 4156TIP3    H136663   4.553   5.681   8.012 -2.1242 -1.0546 -0.2080
 4156TIP3    H236664   4.560   5.789   7.907  0.3829 -0.4811  0.4864
 4157TIP3   OH236665   6.737   1.544   6.953 -0.6174  0.2399  0.5334
 4157TIP3    H136666   6.805   1.581   7.010 -1.2363  0.0870  1.3971
 4157TIP3    H236667   6.785   1.506   6.880  0.5143 -2.5444  2.5558
 4158TIP3   OH236668   1.918   6.625   8.307 -0.1396 -0.3553 -0.3489
 4158TIP3    H136669   2.009   6.634   8.282 -0.2022 -0.8962 -0.7949
 4158TIP3    H236670   1.869   6.627   8.225 -0.4466 -0.9626 -0.1931
 4159TIP3   OH236671   5.299   3.941   9.230  0.7015  0.1784  0.0370
 4159TIP3    H136672   5.256   3.975   9.151  1.4876 -0.6407 -0.7625
 4159TIP3    H236673   5.384   3.909   9.200  1.3756  0.6176  1.3714
 4160TIP3   OH236674   4.041   5.877   8.969  0.3506 -0.6592  0.1620
 4160TIP3    H136675   3.950   5.906   8.977 -0.1602 -1.8934 -0.8738
 4160TIP3    H236676   4.080   5.938   8.906  0.9409  1.3154  2.2910
 4161TIP3   OH236677   3.799   2.339   7.879  0.5194  0.1508  0.2604
 4161TIP3    H136678   3.853   2.269   7.914 -0.0238 -0.2968  0.2083
 4161TIP3    H236679   3.849   2.419   7.896  0.9616 -0.2108  0.6635
 4162TIP3   OH236680   0.655   5.708   8.895 -0.4309  0.2836 -0.3466
 4162TIP3    H136681   0.562   5.694   8.877 -0.7393  2.7264 -1.0419
 4162TIP3    H236682   0.696   5.713   8.809  0.5833 -1.7748 -0.0475
 4163TIP3   OH236683   7.600   1.676   8.220  0.2016  0.4430  0.2175
 4163TIP3    H136684   7.512   1.639   8.218 -0.6834  2.4510  0.0168
 4163TIP3    H236685   7.637   1.644   8.302 -0.2227 -1.4223 -0.2615
 4164TIP3   OH236686   3.997   0.622   8.153  0.1013  0.2520 -0.7081
 4164TIP3    H136687   3.944   0.570   8.093  1.3121  0.3968 -1.9422
 4164TIP3    H236688   3.944   0.629   8.233 -0.8623 -1.2751 -1.1908
 4165TIP3   OH236689   1.648   0.180   7.128 -0.0706 -0.2775 -0.0880
 4165TIP3    H136690   1.635   0.205   7.037  0.9205 -0.6197 -0.3411
 4165TIP3    H236691   1.601   0.247   7.178  0.0883  0.4036 -0.8216
 4166TIP3   OH236692   3.278   4.611   8.078 -0.5054 -0.0430  0.3087
 4166TIP3    H136693   3.334   4.577   8.148 -0.3520 -0.2366  0.0936
 4166TIP3    H236694   3.313   4.572   7.998 -1.3388 -0.6663  0.2376
 4167TIP3   OH236695   1.987   5.984   7.225 -0.4588  0.5081 -0.0168
 4167TIP3    H136696   1.945   5.923   7.164 -0.1348  1.2047 -0.9608
 4167TIP3    H236697   2.041   6.040   7.169 -0.1568  1.1674  0.9172
 4168TIP3   OH236698   6.277   2.802   7.800  0.0405  0.1226 -0.2438
 4168TIP3    H136699   6.195   2.827   7.757  1.2947  1.5409 -1.9409
 4168TIP3    H236700   6.311   2.883   7.837 -0.2569 -0.8116  2.2206
 4169TIP3   OH236701   5.349   0.204   7.386 -0.0896  0.3163  0.2956
 4169TIP3    H136702   5.394   0.154   7.317  0.0838 -1.0558  1.3514
 4169TIP3    H236703   5.416   0.264   7.419  1.1761 -1.8825  2.0318
 4170TIP3   OH236704   4.290   0.325   8.364  0.5516  0.1450  0.5221
 4170TIP3    H136705   4.360   0.383   8.334  1.1596 -0.2780  1.0795
 4170TIP3    H236706   4.269   0.271   8.289  0.5263  0.5589  0.2282
 4171TIP3   OH236707   4.740   1.567   7.715 -0.7481  0.0672 -0.0162
 4171TIP3    H136708   4.710   1.598   7.801  1.4424  1.7738  0.2265
 4171TIP3    H236709   4.674   1.502   7.689 -3.1622  1.7028  1.5410
 4172TIP3   OH236710   4.044   0.207   8.626  0.4970 -0.2243 -0.5342
 4172TIP3    H136711   3.952   0.191   8.647  0.9213 -1.2414  0.6802
 4172TIP3    H236712   4.084   0.120   8.624  1.7551  0.2870  0.6489
 4173TIP3   OH236713   7.245   3.340   6.755 -0.2457  0.3239  0.1903
 4173TIP3    H136714   7.289   3.309   6.834  0.3904  0.3268 -0.1604
 4173TIP3    H236715   7.312   3.339   6.688 -0.2470  2.2594  0.1140
 4174TIP3   OH236716   4.575   5.098   7.975 -0.0434  0.3074  0.0212
 4174TIP3    H136717   4.650   5.148   8.009  0.6784 -0.4659 -0.4256
 4174TIP3    H236718   4.548   5.146   7.898 -0.6375  1.1372  0.7241
 4175TIP3   OH236719   6.582   6.831   8.856  0.3254  0.3165  0.0616
 4175TIP3    H136720   6.540   6.824   8.770  0.7407  1.5090 -0.2689
 4175TIP3    H236721   6.668   6.869   8.837  0.0355  1.5636  1.0747
 4176TIP3   OH236722   6.328   6.248   7.444  0.1211  0.0652  0.1137
 4176TIP3    H136723   6.422   6.248   7.427  0.3718 -0.5558  1.3398
 4176TIP3    H236724   6.318   6.306   7.520 -0.3099 -0.8171  0.7442
 4177TIP3   OH236725   3.823   6.410   9.531 -0.4240 -0.6082  0.1257
 4177TIP3    H136726   3.747   6.381   9.582 -1.7927  1.2582 -0.7494
 4177TIP3    H236727   3.799   6.497   9.499  2.8268  0.8493  1.2885
 4178TIP3   OH236728   2.553   5.785   9.247  0.1837 -0.0538 -0.6691
 4178TIP3    H136729   2.546   5.785   9.343 -0.6058  0.2043 -0.7197
 4178TIP3    H236730   2.540   5.876   9.222 -0.0132 -0.1848 -1.0462
 4179TIP3   OH236731   5.584   3.918   9.215  0.5171 -0.1493 -0.1746
 4179TIP3    H136732   5.667   3.874   9.198  0.5702 -0.3977  0.7066
 4179TIP3    H236733   5.607   4.000   9.257  0.2672 -0.9296  1.5471
 4180TIP3   OH236734   6.927   5.422   8.759  0.5629 -0.1480  0.2474
 4180TIP3    H136735   7.000   5.474   8.725 -0.6967 -0.2762 -2.9126
 4180TIP3    H236736   6.903   5.466   8.841  3.4155  0.5244  0.8559
 4181TIP3   OH236737   4.183   1.321   9.095  0.5638 -0.4482  0.0643
 4181TIP3    H136738   4.164   1.256   9.027 -0.5295 -0.8330  0.7005
 4181TIP3    H236739   4.256   1.372   9.060  1.0582 -1.6287 -0.7174
 4182TIP3   OH236740   3.988   6.045   8.017 -0.1051 -0.0100  0.2106
 4182TIP3    H136741   4.038   5.969   8.045  0.6504  0.4274  0.0617
 4182TIP3    H236742   3.958   6.022   7.928  0.2275 -0.0815  0.1159
 4183TIP3   OH236743   0.411   4.670   8.839  0.3005  0.2877 -0.1392
 4183TIP3    H136744   0.341   4.726   8.874  0.6931 -0.0517  1.2505
 4183TIP3    H236745   0.365   4.599   8.794 -0.2573  0.2493  0.4759
 4184TIP3   OH236746   6.758   6.755   6.434 -0.0755 -0.3143 -0.1008
 4184TIP3    H136747   6.830   6.738   6.373  0.6930 -0.3847  0.8127
 4184TIP3    H236748   6.680   6.722   6.389  0.6497 -1.4931 -0.5266
 4185TIP3   OH236749   7.280   1.457   8.927 -0.2350  0.0220 -0.4325
 4185TIP3    H136750   7.202   1.511   8.945  0.2990  0.8708 -0.5782
 4185TIP3    H236751   7.341   1.479   8.998 -0.7781 -2.0254  0.7543
 4186TIP3   OH236752   0.930   0.597   6.858  0.5323 -0.2737  0.4565
 4186TIP3    H136753   0.889   0.600   6.772  1.3098 -0.5376  0.0663
 4186TIP3    H236754   0.897   0.516   6.897 -0.1805  0.0795  0.6003
 4187TIP3   OH236755   5.304   6.076   9.534  0.1785  0.5477  0.0188
 4187TIP3    H136756   5.221   6.113   9.505 -1.0284 -1.6912  0.3262
 4187TIP3    H236757   5.279   6.000   9.587  2.4315 -0.5322 -0.3246
 4188TIP3   OH236758   0.276   1.264   6.728  0.0386 -0.7490 -0.0070
 4188TIP3    H136759   0.270   1.346   6.678  0.3946 -0.9038 -0.3089
 4188TIP3    H236760   0.318   1.202   6.667  2.0113 -0.5018  1.0124
 4189TIP3   OH236761   6.889   7.540   8.021  0.3337  0.3734  0.3763
 4189TIP3    H136762   6.975   7.553   7.981 -0.8672 -0.9975 -2.9934
 4189TIP3    H236763   6.844   7.624   8.008  0.8093  0.7787  1.2766
 4190TIP3   OH236764   7.225   5.298   7.244 -0.7376  0.2468  0.1576
 4190TIP3    H136765   7.169   5.346   7.183 -1.1189  0.6747  0.8252
 4190TIP3    H236766   7.209   5.206   7.224 -0.5233  0.3768 -0.6721
 4191TIP3   OH236767   4.300   0.752   8.337 -0.0704 -0.5816  0.1171
 4191TIP3    H136768   4.248   0.736   8.416 -1.3498  0.2183 -0.5352
 4191TIP3    H236769   4.253   0.707   8.267  0.4226 -0.3154 -0.4002
 4192TIP3   OH236770   2.878   4.237   7.832 -0.7337 -0.2009  0.2107
 4192TIP3    H136771   2.829   4.174   7.779  1.0583 -0.8334 -0.7658
 4192TIP3    H236772   2.969   4.206   7.829 -0.2722  0.8088  2.1378
 4193TIP3   OH236773   5.927   0.475   9.129  0.5864 -0.5312 -0.4965
 4193TIP3    H136774   5.975   0.531   9.190  0.0935  0.2544 -0.8214
 4193TIP3    H236775   5.879   0.536   9.073 -0.4759 -1.2853 -0.4371
 4194TIP3   OH236776   0.067   3.755   6.792 -0.0476  0.2737  0.1301
 4194TIP3    H136777   0.156   3.719   6.793  0.7063  2.0474 -0.2613
 4194TIP3    H236778   0.026   3.713   6.716  0.8224  0.2480 -0.3429
 4195TIP3   OH236779   6.467   7.508   7.229  0.3677 -0.0919  0.0917
 4195TIP3    H136780   6.414   7.444   7.181  0.3362  0.1956 -0.2611
 4195TIP3    H236781   6.436   7.593   7.197 -0.5424  0.1576  1.5364
 4196TIP3   OH236782   1.842   3.154   9.532  0.0548 -0.7306 -0.1350
 4196TIP3    H136783   1.909   3.188   9.590  0.0505  2.2717 -1.6688
 4196TIP3    H236784   1.759   3.187   9.569 -0.0042  0.5687 -1.3129
 4197TIP3   OH236785   5.315   5.428   8.271 -0.2596 -0.1618 -0.3688
 4197TIP3    H136786   5.235   5.444   8.222  0.1478 -1.2280 -1.4507
 4197TIP3    H236787   5.304   5.341   8.308  0.4898 -0.4389 -0.7618
 4198TIP3   OH236788   2.232   4.404   7.389 -0.6124 -0.3925  0.4503
 4198TIP3    H136789   2.243   4.479   7.448  1.0210 -0.8961  0.8300
 4198TIP3    H236790   2.258   4.328   7.441  0.0677 -0.9420 -0.6458
 4199TIP3   OH236791   5.568   6.314   9.213  0.0799  0.0255  0.7119
 4199TIP3    H136792   5.528   6.284   9.295  0.2452  1.0394  1.1753
 4199TIP3    H236793   5.661   6.321   9.233 -0.0746  1.8687  0.9674
 4200TIP3   OH236794   4.486   6.270   9.473  0.3211  0.2293  0.2664
 4200TIP3    H136795   4.512   6.319   9.396 -1.0522 -1.1031 -1.1034
 4200TIP3    H236796   4.423   6.326   9.518 -0.8525 -0.0333 -1.0060
 4201TIP3   OH236797   3.986   2.254   8.483  0.0948 -0.2758 -0.3705
 4201TIP3    H136798   4.045   2.315   8.440  0.3205 -0.7661 -0.7601
 4201TIP3    H236799   3.933   2.309   8.541  0.8089  0.1879 -0.1494
 4202TIP3   OH236800   7.395   5.385   8.828  0.1526 -0.3441 -0.3731
 4202TIP3    H136801   7.440   5.305   8.801 -1.4736 -1.0476 -1.1235
 4202TIP3    H236802   7.386   5.375   8.923 -1.7794 -2.0656 -0.6608
 4203TIP3   OH236803   0.273   2.941   7.708 -0.0520  0.2716  0.0405
 4203TIP3    H136804   0.314   2.964   7.625 -0.8335  0.2010 -0.3791
 4203TIP3    H236805   0.297   2.849   7.722 -1.5548 -0.3443 -1.1422
 4204TIP3   OH236806   4.201   6.096   8.787  0.3715  0.4261 -0.4838
 4204TIP3    H136807   4.234   6.150   8.858  1.0080  0.6892 -0.9652
 4204TIP3    H236808   4.277   6.084   8.729 -0.2564  0.6625 -1.3832
 4205TIP3   OH236809   3.014   5.276   7.201  0.2648 -0.0017 -0.4274
 4205TIP3    H136810   2.962   5.200   7.227 -0.0858  0.5648  0.6002
 4205TIP3    H236811   2.973   5.350   7.247  0.3215  0.8797 -1.7498
 4206TIP3   OH236812   0.986   2.059   7.057 -0.1836 -0.0558  0.0542
 4206TIP3    H136813   1.043   2.080   7.131 -0.7529 -1.0550  0.8013
 4206TIP3    H236814   0.898   2.076   7.090 -0.4949 -1.2332 -0.1310
 4207TIP3   OH236815   3.445   4.465   7.538 -0.6298  0.6307  0.2168
 4207TIP3    H136816   3.500   4.392   7.508 -2.3706  0.2300 -2.2712
 4207TIP3    H236817   3.400   4.495   7.460 -3.0387  1.7463  1.9134
 4208TIP3   OH236818   6.648   2.449   7.216 -0.3878  0.1414 -0.0089
 4208TIP3    H136819   6.568   2.465   7.165 -0.0336  0.8669 -0.3567
 4208TIP3    H236820   6.627   2.481   7.303 -0.4380  0.4396 -0.1294
 4209TIP3   OH236821   2.808   3.815   8.025  0.1827  0.1944  0.0287
 4209TIP3    H136822   2.852   3.881   8.078  0.5538 -1.8920  2.4822
 4209TIP3    H236823   2.837   3.731   8.061 -1.3220 -1.3317 -2.0614
 4210TIP3   OH236824   4.308   3.257   8.874 -0.0485  0.3821  0.6132
 4210TIP3    H136825   4.245   3.296   8.935 -0.1134  0.0069  0.7920
 4210TIP3    H236826   4.339   3.178   8.919 -0.3054 -0.0517  0.0411
 4211TIP3   OH236827   1.444   3.651   7.499 -0.6787  0.3255 -0.9403
 4211TIP3    H136828   1.509   3.605   7.446  0.7931  0.4395  0.6713
 4211TIP3    H236829   1.454   3.744   7.475  0.0338  0.3856 -0.4415
 4212TIP3   OH236830   0.544   6.505   8.285 -0.5038 -0.1567  0.3924
 4212TIP3    H136831   0.526   6.597   8.267 -0.1786  0.0528  1.0912
 4212TIP3    H236832   0.634   6.504   8.318  0.0453 -0.9157 -1.0222
 4213TIP3   OH236833   7.555   2.929   9.038  0.0966 -0.7923  0.3383
 4213TIP3    H136834   7.629   2.989   9.044  0.4860 -1.1595 -0.5743
 4213TIP3    H236835   7.510   2.938   9.122  0.7263  0.0141  0.6043
 4214TIP3   OH236836   7.030   4.269   7.200  0.0079 -0.0822 -0.0173
 4214TIP3    H136837   7.110   4.280   7.251 -0.0762 -0.5628  0.2262
 4214TIP3    H236838   7.029   4.344   7.140  0.2605  0.3240  0.4814
 4215TIP3   OH236839   3.034   2.777   7.109  0.1862 -0.3159 -0.3868
 4215TIP3    H136840   3.008   2.791   7.018 -0.2127 -1.5069 -0.4644
 4215TIP3    H236841   3.113   2.723   7.103  1.6932  1.7159 -0.0906
 4216TIP3   OH236842   2.179   3.249   7.168  0.5628 -0.2803 -0.0088
 4216TIP3    H136843   2.228   3.217   7.243  1.2994  0.6640 -0.0685
 4216TIP3    H236844   2.236   3.233   7.093  0.3587 -0.0855 -0.2077
 4217TIP3   OH236845   4.412   4.230   8.819  0.1824  0.1286  0.6439
 4217TIP3    H136846   4.449   4.161   8.874  3.3283  0.6798 -0.5363
 4217TIP3    H236847   4.348   4.185   8.764  1.4394 -1.6884  0.5627
 4218TIP3   OH236848   4.793   7.419   7.381  0.1500 -0.3292  0.5528
 4218TIP3    H136849   4.774   7.511   7.366  3.0931  0.7141  2.4203
 4218TIP3    H236850   4.793   7.409   7.476  1.8276 -1.7511  0.4615
 4219TIP3   OH236851   1.811   0.730   9.188 -0.2506 -0.2465  0.0457
 4219TIP3    H136852   1.728   0.778   9.186 -0.0165  0.1378 -1.6647
 4219TIP3    H236853   1.860   0.771   9.259 -1.2246  0.0233  0.5880
 4220TIP3   OH236854   0.636   6.341   6.815 -0.1925  0.5186  0.0487
 4220TIP3    H136855   0.573   6.414   6.816 -0.2431  0.5060  2.0784
 4220TIP3    H236856   0.697   6.361   6.886  0.7326 -0.6487 -0.3807
 4221TIP3   OH236857   7.019   7.482   6.471  0.1219  0.0652 -0.6924
 4221TIP3    H136858   6.988   7.510   6.558  1.1499  1.0605 -0.6196
 4221TIP3    H236859   7.038   7.564   6.425 -0.7350 -0.4362 -2.0034
 4222TIP3   OH236860   1.518   5.280   7.175 -0.4321  0.5362 -0.0233
 4222TIP3    H136861   1.526   5.272   7.270 -1.8048 -0.0443  0.0602
 4222TIP3    H236862   1.519   5.375   7.159  2.5727  0.6536  0.2574
 4223TIP3   OH236863   6.166   3.432   7.521 -0.6470  0.0172  0.7866
 4223TIP3    H136864   6.071   3.443   7.515 -0.7946  0.5181  3.0634
 4223TIP3    H236865   6.199   3.519   7.544  0.2364 -0.3889  1.1018
 4224TIP3   OH236866   6.400   5.684   8.951 -0.3975  0.2787  0.7160
 4224TIP3    H136867   6.350   5.687   9.033 -0.2361  0.6545  0.8007
 4224TIP3    H236868   6.469   5.749   8.962  0.6392 -0.8215  0.9337
 4225TIP3   OH236869   4.708   7.204   9.451  0.5517  0.2563  0.0209
 4225TIP3    H136870   4.728   7.111   9.444  1.3330  0.2440  1.9027
 4225TIP3    H236871   4.788   7.244   9.484 -0.2706  1.3114  0.8380
 4226TIP3   OH236872   2.458   3.711   9.101  0.0128  0.5872 -0.0682
 4226TIP3    H136873   2.520   3.691   9.031  1.7390  0.9850  1.2585
 4226TIP3    H236874   2.440   3.804   9.091  0.3326  0.6647  0.0550
 4227TIP3   OH236875   6.135   4.930   8.996 -0.2219 -0.4769 -0.4025
 4227TIP3    H136876   6.046   4.945   8.966 -0.5453  0.8013  1.0268
 4227TIP3    H236877   6.180   5.013   8.981  0.3993 -0.7350 -0.0309
 4228TIP3   OH236878   2.357   1.216   7.488 -0.0132  0.1156  0.2816
 4228TIP3    H136879   2.445   1.245   7.512  0.4639  1.1242 -2.3411
 4228TIP3    H236880   2.368   1.175   7.402 -2.1817  0.8197 -0.3961
 4229TIP3   OH236881   2.862   1.204   8.531  0.2747  0.1042  0.3808
 4229TIP3    H136882   2.893   1.146   8.600  1.8158  1.8799  1.2923
 4229TIP3    H236883   2.915   1.180   8.454  0.9784  0.3363  0.7802
 4230TIP3   OH236884   0.689   0.011   8.450 -0.3510  0.0939 -0.1902
 4230TIP3    H136885   0.675   0.085   8.391  0.6069  0.2821 -0.2035
 4230TIP3    H236886   0.782   0.016   8.472 -0.4847 -0.5525  0.5574
 4231TIP3   OH236887   6.102   4.055   7.072  0.7318 -0.3007 -0.0501
 4231TIP3    H136888   6.193   4.084   7.070  0.4501  0.5764 -1.1239
 4231TIP3    H236889   6.102   3.975   7.018  0.9568 -0.6054  0.3968
 4232TIP3   OH236890   3.221   3.134   8.417  0.2784 -0.1595  0.3112
 4232TIP3    H136891   3.291   3.145   8.353  1.7768 -0.5891  1.7989
 4232TIP3    H236892   3.208   3.221   8.454  1.1797 -0.3641  1.1486
 4233TIP3   OH236893   4.648   2.750   7.834 -0.4499  0.1275  0.5700
 4233TIP3    H136894   4.686   2.664   7.847  0.9773  1.1587  4.9433
 4233TIP3    H236895   4.723   2.808   7.818 -1.2505  0.8061 -0.9504
 4234TIP3   OH236896   5.502   1.401   7.872 -0.2224 -0.0185  0.1213
 4234TIP3    H136897   5.489   1.462   7.800 -0.7398  0.5179  0.6507
 4234TIP3    H236898   5.473   1.316   7.839  0.4505  0.0205 -0.6042
 4235TIP3   OH236899   6.265   6.977   7.001  0.1503 -0.0020  0.4545
 4235TIP3    H136900   6.307   6.998   6.918 -0.4801  1.0524  0.3848
 4235TIP3    H236901   6.200   6.911   6.980  0.8639 -0.6818  0.3393
 4236TIP3   OH236902   1.116   3.743   8.491  0.0507 -0.1819  0.0909
 4236TIP3    H136903   1.107   3.803   8.564  0.9687  0.0143  0.0479
 4236TIP3    H236904   1.095   3.795   8.414 -1.2098 -0.4637  0.2237
 4237TIP3   OH236905   6.707   0.799   7.222 -0.2303 -0.3193 -0.8830
 4237TIP3    H136906   6.751   0.815   7.139 -0.3313 -0.4632 -0.9658
 4237TIP3    H236907   6.764   0.737   7.268  0.4208  0.6487 -0.3459
 4238TIP3   OH236908   5.460   2.170   8.394  0.2515  0.7495 -0.4550
 4238TIP3    H136909   5.457   2.169   8.298  1.5618  0.9887 -0.5192
 4238TIP3    H236910   5.535   2.115   8.416 -1.3116 -1.0755  0.5462
 4239TIP3   OH236911   5.938   6.613   7.001 -0.0778 -0.1852  0.6635
 4239TIP3    H136912   6.009   6.549   6.997 -1.0778 -1.2309 -0.9509
 4239TIP3    H236913   5.892   6.605   6.918 -0.4172  2.4537  0.4994
 4240TIP3   OH236914   1.378   3.435   8.737  0.2791  0.1708 -0.0994
 4240TIP3    H136915   1.454   3.470   8.783  1.2308 -0.7222 -0.9399
 4240TIP3    H236916   1.408   3.421   8.647 -1.5420  1.9720 -1.0783
 4241TIP3   OH236917   1.815   7.577   7.889 -0.1761 -0.0639 -0.0556
 4241TIP3    H136918   1.831   7.663   7.851 -0.3505  0.2756  0.6174
 4241TIP3    H236919   1.731   7.586   7.934  0.3558 -0.2379  1.0132
 4242TIP3   OH236920   3.026   4.577   8.165 -0.0634 -0.6135 -0.1776
 4242TIP3    H136921   3.110   4.574   8.121  0.5616  1.1953  0.7877
 4242TIP3    H236922   2.980   4.651   8.125 -0.9858 -1.2405 -0.3186
 4243TIP3   OH236923   4.113   5.157   8.912 -1.0174  0.2995 -0.7010
 4243TIP3    H136924   4.160   5.238   8.931 -0.2998 -0.2430 -0.1148
 4243TIP3    H236925   4.069   5.174   8.829 -1.2926  1.4644 -0.3392
 4244TIP3   OH236926   2.220   5.331   8.264 -0.3430  0.5066  0.0892
 4244TIP3    H136927   2.157   5.374   8.321  0.7504  1.6313  0.5140
 4244TIP3    H236928   2.184   5.340   8.176 -1.1804  0.3527  0.4146
 4245TIP3   OH236929   1.715   5.111   7.006 -0.2588 -0.5094  0.0707
 4245TIP3    H136930   1.628   5.119   7.046 -0.6030 -1.0660 -0.5472
 4245TIP3    H236931   1.713   5.026   6.961  0.8481 -0.8553  0.6333
 4246TIP3   OH236932   2.299   3.112   7.363 -0.0924 -0.2037 -0.6354
 4246TIP3    H136933   2.301   3.017   7.352  0.5298 -0.3234  0.3618
 4246TIP3    H236934   2.260   3.126   7.449  0.0132  0.4332 -0.6813
 4247TIP3   OH236935   0.997   2.405   9.040 -0.1745  0.2820 -0.0824
 4247TIP3    H136936   1.066   2.446   9.092 -0.0304  0.5725 -0.4908
 4247TIP3    H236937   1.037   2.325   9.005  0.8238  1.6444 -2.3243
 4248TIP3   OH236938   7.561   3.310   7.928 -0.1045  0.0170  0.0190
 4248TIP3    H136939   7.482   3.335   7.975  0.9256  1.5949  1.0016
 4248TIP3    H236940   7.623   3.284   7.996  0.4842 -0.4373 -0.6711
 4249TIP3   OH236941   7.311   4.582   7.955  0.4884  0.3396 -0.4460
 4249TIP3    H136942   7.310   4.511   8.020 -2.0080  1.7437  1.1888
 4249TIP3    H236943   7.341   4.659   8.004 -2.4197  1.6640 -0.5427
 4250TIP3   OH236944   0.772   1.147   7.170 -0.3074  0.2508  0.0306
 4250TIP3    H136945   0.785   1.130   7.077 -1.5688  1.4665 -0.3938
 4250TIP3    H236946   0.857   1.128   7.210 -0.0648 -1.3754 -1.1867
 4251TIP3   OH236947   4.282   4.853   8.406 -0.4171  1.1827 -0.5500
 4251TIP3    H136948   4.284   4.887   8.495 -0.8088  0.3530 -0.2099
 4251TIP3    H236949   4.199   4.805   8.401  0.5459 -0.5508 -0.6802
 4252TIP3   OH236950   3.569   5.688   8.435  0.3305  0.3802 -0.1633
 4252TIP3    H136951   3.663   5.668   8.432  0.4442  0.8003  0.3712
 4252TIP3    H236952   3.528   5.616   8.388  0.9677  0.4869 -0.9037
 4253TIP3   OH236953   6.329   3.584   6.804  0.0793  0.3675 -0.0805
 4253TIP3    H136954   6.372   3.500   6.784 -0.6864  0.2293 -1.2344
 4253TIP3    H236955   6.395   3.650   6.780  0.4137  0.1181  0.1355
 4254TIP3   OH236956   2.895   6.545   7.470  0.2710  0.8713  0.0716
 4254TIP3    H136957   2.947   6.615   7.511  1.2286  0.9121 -1.1551
 4254TIP3    H236958   2.951   6.512   7.400 -1.1607  0.5642 -0.9706
 4255TIP3   OH236959   5.516   6.475   8.745 -0.3226  0.0111 -0.2022
 4255TIP3    H136960   5.575   6.404   8.721  0.5246  0.9402 -0.9239
 4255TIP3    H236961   5.448   6.432   8.798 -1.2573 -1.8043 -2.6775
 4256TIP3   OH236962   7.366   5.580   6.776 -0.4953  0.4047  0.1968
 4256TIP3    H136963   7.286   5.529   6.760 -0.0157 -0.3878  0.2508
 4256TIP3    H236964   7.400   5.600   6.689 -1.5424  2.0621  0.1316
 4257TIP3   OH236965   0.910   4.081   9.104  0.7069 -0.4424 -0.4543
 4257TIP3    H136966   0.994   4.121   9.128  0.3624  0.2253 -0.3221
 4257TIP3    H236967   0.934   3.997   9.066  1.3979 -0.6044  0.2917
 4258TIP3   OH236968   4.758   1.148   8.795  0.7689 -0.0604 -0.4032
 4258TIP3    H136969   4.800   1.164   8.711 -0.0640  0.1619 -0.7953
 4258TIP3    H236970   4.824   1.172   8.860  0.8508  1.4464 -0.9887
 4259TIP3   OH236971   5.084   4.311   7.369 -0.4690 -0.0985  0.0769
 4259TIP3    H136972   5.060   4.221   7.346 -0.5432 -0.4491  1.4306
 4259TIP3    H236973   5.001   4.357   7.377 -0.4578 -0.0570 -0.0458
 4260TIP3   OH236974   2.905   1.619   9.085  0.7516 -0.0293  0.3820
 4260TIP3    H136975   2.829   1.670   9.059  0.2418 -1.1972 -0.4917
 4260TIP3    H236976   2.877   1.573   9.165  0.1707 -1.2208 -0.4803
 4261TIP3   OH236977   5.064   5.432   9.239 -0.4088 -0.0667 -0.0261
 4261TIP3    H136978   5.120   5.488   9.293 -1.2363 -0.3721  1.1690
 4261TIP3    H236979   5.068   5.471   9.152  0.4363  0.8046  0.3902
 4262TIP3   OH236980   0.852   5.858   7.016  0.4997 -0.2018  0.1564
 4262TIP3    H136981   0.847   5.953   7.016  1.7025 -0.1023  1.3367
 4262TIP3    H236982   0.898   5.836   6.935 -1.2956  0.0702 -0.9883
 4263TIP3   OH236983   5.516   5.930   9.015  0.1736 -0.2082  0.1298
 4263TIP3    H136984   5.539   5.948   9.106 -0.0167 -1.0498  0.3612
 4263TIP3    H236985   5.531   6.012   8.969 -1.4636  0.7969  1.2566
 4264TIP3   OH236986   4.567   4.424   9.610 -0.3606 -0.5644 -0.1663
 4264TIP3    H136987   4.500   4.473   9.658 -1.2148 -1.0312 -0.8426
 4264TIP3    H236988   4.621   4.384   9.679  0.1473  1.0033  0.3979
 4265TIP3   OH236989   3.010   6.081   8.439 -0.0488 -0.2035 -0.4415
 4265TIP3    H136990   2.938   6.027   8.472 -0.7805  0.1232 -1.4609
 4265TIP3    H236991   3.043   6.126   8.517 -0.5163 -0.8475  0.1464
 4266TIP3   OH236992   6.477   1.423   8.906  0.1574  0.1076  0.6266
 4266TIP3    H136993   6.556   1.463   8.870  0.5787 -0.0769  1.3178
 4266TIP3    H236994   6.413   1.494   8.907  0.2075  0.1745 -0.2441
 4267TIP3   OH236995   3.566   3.148   7.415  0.1312 -0.3047 -0.2177
 4267TIP3    H136996   3.607   3.101   7.342 -0.2685 -2.4906  0.8618
 4267TIP3    H236997   3.473   3.150   7.391  0.2312  0.5530 -0.5582
 4268TIP3   OH236998   5.609   2.637   7.247 -0.2203  0.7101  0.0499
 4268TIP3    H136999   5.664   2.715   7.254  2.2314 -0.8503 -0.3435
 4268TIP3    H237000   5.592   2.628   7.153 -0.8603  0.9743  0.1343
 4269TIP3   OH237001   3.704   4.573   9.246 -0.3405  0.3859  0.0073
 4269TIP3    H137002   3.739   4.510   9.309  0.8561  1.2325  0.2054
 4269TIP3    H237003   3.703   4.526   9.163 -0.3942 -0.2112  0.3405
 4270TIP3   OH237004   4.422   3.562   8.004  0.2103 -0.1798 -0.2391
 4270TIP3    H137005   4.406   3.483   8.054 -1.5273 -0.7789 -1.6211
 4270TIP3    H237006   4.373   3.549   7.922  0.0509  2.2017 -0.6048
 4271TIP3   OH237007   6.143   1.749   8.546  0.5295  0.0163 -0.1670
 4271TIP3    H137008   6.129   1.727   8.638 -0.2642  1.9632  0.2345
 4271TIP3    H237009   6.224   1.704   8.522  0.8189 -0.4223  1.5126
 4272TIP3   OH237010   6.864   0.611   8.861 -0.1626  0.1271 -0.0530
 4272TIP3    H137011   6.909   0.688   8.897 -0.5247 -0.0097  0.7283
 4272TIP3    H237012   6.778   0.612   8.905 -0.9695  0.4462 -1.5679
 4273TIP3   OH237013   4.343   0.395   8.048  0.4361 -0.1774 -0.5835
 4273TIP3    H137014   4.281   0.329   8.016 -0.0992 -0.2362  0.5472
 4273TIP3    H237015   4.429   0.362   8.019  0.0135 -0.3890 -1.6592
 4274TIP3   OH237016   2.422   6.756   8.425 -0.1890  0.5282 -0.1912
 4274TIP3    H137017   2.511   6.729   8.446  0.4397  2.5867  0.0490
 4274TIP3    H237018   2.403   6.826   8.487 -1.5432  0.8989 -0.9751
 4275TIP3   OH237019   7.565   1.119   8.437 -0.3114  0.3562 -0.7108
 4275TIP3    H137020   7.481   1.114   8.482  0.3274  1.0300  0.6153
 4275TIP3    H237021   7.582   1.030   8.408 -0.9763  0.0114 -0.0616
 4276TIP3   OH237022   7.436   3.462   9.276  0.0179  0.0076 -0.2766
 4276TIP3    H137023   7.384   3.528   9.322 -0.3408  0.4045 -1.2214
 4276TIP3    H237024   7.508   3.442   9.336 -0.1039  0.9384  0.1987
 4277TIP3   OH237025   3.204   0.945   8.392 -0.2245  0.3752 -0.1481
 4277TIP3    H137026   3.118   0.930   8.430 -1.2925  1.1402 -2.1523
 4277TIP3    H237027   3.188   1.002   8.317  2.2698  2.3205  0.6305
 4278TIP3   OH237028   6.128   4.099   8.331  0.2109 -0.1690  0.6965
 4278TIP3    H137029   6.136   4.114   8.237  3.6619 -0.1591  0.8802
 4278TIP3    H237030   6.083   4.177   8.364 -1.7763 -0.5237 -0.9484
 4279TIP3   OH237031   6.386   3.867   6.995  0.1118 -0.2775 -0.5314
 4279TIP3    H137032   6.306   3.839   6.950 -0.2362  0.9613 -0.7196
 4279TIP3    H237033   6.380   3.963   6.998  0.9871 -0.2301  0.5748
 4280TIP3   OH237034   3.245   6.127   7.116  0.0183 -0.1773 -0.3583
 4280TIP3    H137035   3.227   6.078   7.036  0.1908  0.1689 -0.6167
 4280TIP3    H237036   3.340   6.137   7.117 -0.0726  1.0003 -0.8431
 4281TIP3   OH237037   4.072   5.312   9.270  0.0982 -0.4014  0.2297
 4281TIP3    H137038   4.159   5.352   9.271 -0.2102  0.2947  1.6144
 4281TIP3    H237039   4.074   5.249   9.342 -0.6998 -0.0103  0.6048
 4282TIP3   OH237040   0.395   3.434   9.079  0.1912 -0.0100 -0.7017
 4282TIP3    H137041   0.335   3.421   9.153  1.5027 -1.4286  0.1774
 4282TIP3    H237042   0.355   3.504   9.028 -1.4813  0.0540  0.5982
 4283TIP3   OH237043   5.078   6.401   8.851  0.0047  0.1231 -0.3044
 4283TIP3    H137044   5.004   6.341   8.858  0.0915 -0.0691 -0.9524
 4283TIP3    H237045   5.090   6.435   8.939 -0.1824 -0.6475  0.0236
 4284TIP3   OH237046   1.912   6.477   7.921 -0.2434  0.2861  0.3686
 4284TIP3    H137047   1.869   6.445   8.001 -0.7702  1.3679  0.5319
 4284TIP3    H237048   1.895   6.571   7.920 -0.3877  0.2725 -1.1071
 4285TIP3   OH237049   3.418   7.175   8.565 -0.3018 -0.5078 -0.2003
 4285TIP3    H137050   3.480   7.246   8.578 -1.4801  0.4572  0.2711
 4285TIP3    H237051   3.472   7.102   8.534  1.2587 -0.0972  1.3925
 4286TIP3   OH237052   1.033   2.274   8.698 -0.6417 -0.1320 -0.4855
 4286TIP3    H137053   0.970   2.310   8.635 -1.1714  1.3810  0.8540
 4286TIP3    H237054   0.978   2.238   8.768 -0.0329 -0.2580 -0.0690
 4287TIP3   OH237055   2.070   2.707   8.357 -0.3993  0.6476 -0.1950
 4287TIP3    H137056   2.015   2.776   8.320 -0.5206  1.0851  0.7941
 4287TIP3    H237057   2.036   2.626   8.317  0.6430  1.2441 -2.4542
 4288TIP3   OH237058   3.885   4.318   8.418  0.0262  0.0944  0.2086
 4288TIP3    H137059   3.977   4.347   8.423  0.2243 -0.0984 -1.5469
 4288TIP3    H237060   3.875   4.256   8.490  1.1380  0.4460  0.6971
 4289TIP3   OH237061   4.727   5.421   7.523 -0.1247  0.4731  0.0136
 4289TIP3    H137062   4.794   5.401   7.459  0.2231  0.2424  0.4398
 4289TIP3    H237063   4.773   5.423   7.607 -0.3893  1.7435  0.1523
 4290TIP3   OH237064   2.003   4.036   8.306 -0.1115 -0.1879  0.5631
 4290TIP3    H137065   2.007   4.007   8.215 -1.6286  1.1894  0.0182
 4290TIP3    H237066   2.078   4.095   8.315  1.7284 -2.4442  1.0844
 4291TIP3   OH237067   3.422   1.739   9.505 -0.3441 -0.2988 -0.2373
 4291TIP3    H137068   3.492   1.777   9.557 -0.7174 -1.5146  1.2616
 4291TIP3    H237069   3.458   1.657   9.472 -0.2897  0.2135 -1.5077
 4292TIP3   OH237070   5.644   6.138   8.927  0.2456 -0.6032  0.2387
 4292TIP3    H137071   5.700   6.207   8.891 -2.9958  1.2021 -1.7408
 4292TIP3    H237072   5.607   6.176   9.007 -0.3820 -0.6367 -0.0306
 4293TIP3   OH237073   0.262   5.682   9.426 -0.2325  0.0179 -0.4561
 4293TIP3    H137074   0.232   5.593   9.446 -2.1906  0.5512 -0.7675
 4293TIP3    H237075   0.354   5.683   9.452 -0.1521 -2.0996 -0.4906
 4294TIP3   OH237076   4.599   4.614   7.997  0.2255 -0.2803  0.3166
 4294TIP3    H137077   4.590   4.685   7.934  1.7693 -0.6662 -0.3795
 4294TIP3    H237078   4.509   4.581   8.009 -0.0362 -0.9280 -2.5563
 4295TIP3   OH237079   3.717   6.949   8.894 -0.0971  0.4723 -0.2346
 4295TIP3    H137080   3.722   7.040   8.924 -0.4107  0.9502 -1.5245
 4295TIP3    H237081   3.734   6.955   8.800 -1.2621 -0.6523 -0.5503
 4296TIP3   OH237082   5.935   3.352   8.038  0.5142  0.3578  0.5393
 4296TIP3    H137083   5.931   3.434   8.088 -0.1134  1.3827 -1.0989
 4296TIP3    H237084   6.028   3.342   8.017  0.4261  1.4868 -0.5097
 4297TIP3   OH237085   6.576   4.118   8.674 -0.2773 -0.1171  0.3999
 4297TIP3    H137086   6.511   4.141   8.740 -1.8056 -2.2385 -0.2503
 4297TIP3    H237087   6.525   4.092   8.597  1.2779 -2.1909 -0.0209
 4298TIP3   OH237088   6.842   1.875   7.618  0.1362 -0.4415  0.0645
 4298TIP3    H137089   6.828   1.782   7.597 -0.8333 -0.1540 -0.6429
 4298TIP3    H237090   6.869   1.875   7.709 -0.7147 -1.3663  0.3346
 4299TIP3   OH237091   0.808   5.426   8.077  0.2779 -0.2508 -0.0394
 4299TIP3    H137092   0.835   5.507   8.032  1.3468  0.4951  1.8566
 4299TIP3    H237093   0.854   5.357   8.030 -1.7930 -0.0270 -2.6583
 4300TIP3   OH237094   6.495   3.537   7.389 -0.1988  0.0281  0.2209
 4300TIP3    H137095   6.495   3.619   7.339 -0.5137  0.5157  1.0031
 4300TIP3    H237096   6.587   3.511   7.393  0.0564  1.0164  1.0357
 4301TIP3   OH237097   6.595   4.769   7.190 -0.6739  0.5604  0.9374
 4301TIP3    H137098   6.558   4.797   7.274  1.6677  1.0410  1.9160
 4301TIP3    H237099   6.599   4.673   7.196 -0.4247  0.5973  1.4530
 4302TIP3   OH237100   4.353   4.583   9.682 -0.7536 -0.5615 -0.4951
 4302TIP3    H137101   4.294   4.526   9.633 -1.6074 -0.7340  0.6972
 4302TIP3    H237102   4.343   4.556   9.773  1.6779 -1.0444 -0.2988
 4303TIP3   OH237103   5.146   2.033   8.066 -0.3151 -0.0047 -0.5670
 4303TIP3    H137104   5.136   1.992   7.980 -0.5490  3.5636 -2.4346
 4303TIP3    H237105   5.240   2.049   8.074 -0.3143 -0.1688 -0.2140
 4304TIP3   OH237106   5.141   4.840   8.020  0.0405 -0.5939  0.0361
 4304TIP3    H137107   5.113   4.754   7.991 -0.0051 -0.3864 -0.5369
 4304TIP3    H237108   5.227   4.826   8.060  0.5940 -0.7072 -1.1752
 4305TIP3   OH237109   0.307   2.859   7.331 -0.3845  0.2771  0.1008
 4305TIP3    H137110   0.367   2.891   7.399 -0.7671 -0.8327  0.9870
 4305TIP3    H237111   0.236   2.922   7.331  0.6026  1.4478 -0.7556
 4306TIP3   OH237112   3.902   6.137   8.371 -0.0791 -0.8816 -0.2204
 4306TIP3    H137113   3.817   6.145   8.327  0.4303 -2.3292 -1.5768
 4306TIP3    H237114   3.896   6.055   8.420 -0.2604  0.1877  1.6448
 4307TIP3   OH237115   5.915   5.474   6.653 -0.3849 -0.3706  0.5414
 4307TIP3    H137116   5.819   5.475   6.661 -0.4645  1.9593  0.0343
 4307TIP3    H237117   5.931   5.481   6.559  0.3453 -1.9111  0.5114
 4308TIP3   OH237118   5.050   0.055   6.766  0.5265 -0.8624 -0.0769
 4308TIP3    H137119   5.027   0.144   6.792  0.9295 -0.0568 -2.2826
 4308TIP3    H237120   5.120   0.030   6.827  1.3221  0.8454 -0.2127
 4309TIP3   OH237121   6.029   5.396   9.485 -0.5246  0.3647 -0.2431
 4309TIP3    H137122   6.123   5.409   9.500 -0.5815  0.4245  0.0651
 4309TIP3    H237123   6.005   5.325   9.545 -0.6500  0.2581 -0.4171
 4310TIP3   OH237124   0.152   3.144   9.430  0.1296 -0.0927  0.1901
 4310TIP3    H137125   0.148   3.058   9.388 -0.5409 -0.1350  0.3354
 4310TIP3    H237126   0.246   3.161   9.441  0.2653 -1.4264  1.4146
 4311TIP3   OH237127   4.419   6.113   7.482 -0.3507 -0.5044 -0.1281
 4311TIP3    H137128   4.472   6.138   7.557 -3.4383  0.4206  1.9531
 4311TIP3    H237129   4.430   6.018   7.475  3.1251 -0.1500 -1.2333
 4312TIP3   OH237130   2.905   3.788   6.569 -0.8011  0.3752 -0.2910
 4312TIP3    H137131   2.894   3.865   6.626  0.3988  2.4281 -2.6276
 4312TIP3    H237132   2.996   3.761   6.582 -0.4514  0.9952 -1.3168
 4313TIP3   OH237133   4.879   2.778   7.325 -0.0937  0.1753  0.1793
 4313TIP3    H137134   4.925   2.743   7.248 -0.2372 -0.3571  0.3304
 4313TIP3    H237135   4.937   2.847   7.358 -0.0423  0.4256 -0.4192
 4314TIP3   OH237136   3.156   6.398   8.087 -0.1141  0.0785 -0.3959
 4314TIP3    H137137   3.218   6.326   8.101 -1.0782 -0.5380  0.9603
 4314TIP3    H237138   3.076   6.370   8.133 -0.6784  1.7900 -0.2734
 4315TIP3   OH237139   0.756   1.465   8.235  0.8521 -0.5849  0.1603
 4315TIP3    H137140   0.817   1.395   8.213  0.2277 -1.6748  1.6626
 4315TIP3    H237141   0.696   1.425   8.298  0.1255  1.1519  0.6362
 4316TIP3   OH237142   2.939   3.186   8.276 -0.0991 -0.2704 -0.1929
 4316TIP3    H137143   2.981   3.125   8.336  0.9643  0.7503  0.1555
 4316TIP3    H237144   2.892   3.247   8.333 -1.2219 -0.7953 -0.5388
 4317TIP3   OH237145   4.419   5.345   9.079 -0.6187 -0.4292 -0.5191
 4317TIP3    H137146   4.390   5.413   9.141  0.6086 -0.9720  0.7103
 4317TIP3    H237147   4.409   5.263   9.128  0.6433 -0.8477 -0.9223
 4318TIP3   OH237148   2.250   1.566   8.730  0.1225  0.2436 -0.2785
 4318TIP3    H137149   2.178   1.518   8.771  1.0538 -0.5359  0.5068
 4318TIP3    H237150   2.219   1.656   8.725 -0.6398  0.0576  0.6975
 4319TIP3   OH237151   2.342   3.446   9.558 -0.9377 -0.1150  0.2252
 4319TIP3    H137152   2.276   3.441   9.488  2.4185  1.3661 -3.3845
 4319TIP3    H237153   2.361   3.539   9.566  1.5538 -0.5703  0.2128
 4320TIP3   OH237154   4.944   3.768   7.144  0.3847  0.2473  0.1972
 4320TIP3    H137155   4.935   3.811   7.058  1.0113 -0.7367 -0.3825
 4320TIP3    H237156   5.034   3.786   7.170  0.5173 -0.3614  0.1523
 4321TIP3   OH237157   1.022   4.292   7.471  0.1918  0.2311  0.1139
 4321TIP3    H137158   0.945   4.338   7.505 -0.2832 -0.9950  0.7748
 4321TIP3    H237159   1.007   4.200   7.495  1.1247 -0.2670 -1.1093
 4322TIP3   OH237160   6.816   6.867   8.711  0.0580  0.6370  0.0463
 4322TIP3    H137161   6.879   6.840   8.778 -0.9954 -0.7122  0.5405
 4322TIP3    H237162   6.867   6.868   8.630  0.8187 -0.0247  0.4969
 4323TIP3   OH237163   0.028   2.660   7.306 -0.5141  0.2207 -0.1193
 4323TIP3    H137164   0.086   2.663   7.382 -0.1162  0.2182 -0.4167
 4323TIP3    H237165  -0.060   2.646   7.342 -0.2129 -0.7065  0.2898
 4324TIP3   OH237166   0.024   1.716   7.019 -0.9851 -0.1021 -0.0603
 4324TIP3    H137167   0.086   1.694   6.949 -1.6203 -2.5752  0.0438
 4324TIP3    H237168  -0.061   1.689   6.984 -1.4880 -0.1281  1.1450
 4325TIP3   OH237169   5.966   4.024   9.464 -0.1400  0.9472  0.0375
 4325TIP3    H137170   6.055   4.057   9.473 -0.3406  1.2837  0.8655
 4325TIP3    H237171   5.976   3.929   9.458  0.1256  0.6687  3.2315
 4326TIP3   OH237172   2.027   1.303   8.425 -0.4394 -0.1805  0.0701
 4326TIP3    H137173   1.940   1.342   8.428  0.0561  0.9678  0.2367
 4326TIP3    H237174   2.084   1.374   8.393  0.8527 -0.0910  2.3551
 4327TIP3   OH237175   3.817   3.169   9.244  0.2501 -0.0459  0.4972
 4327TIP3    H137176   3.903   3.204   9.269  0.8345 -1.0096 -0.1022
 4327TIP3    H237177   3.763   3.247   9.230  1.7548  0.7184 -1.6699
 4328TIP3   OH237178   0.346   4.454   7.695 -0.0833  0.5040  0.8531
 4328TIP3    H137179   0.340   4.393   7.621  3.4966  1.4295 -0.4481
 4328TIP3    H237180   0.266   4.505   7.690 -0.6267 -0.4278 -1.5358
 4329TIP3   OH237181   7.336   7.344   8.515  0.3987  0.5773  0.3762
 4329TIP3    H137182   7.396   7.395   8.570  0.9206 -1.1634  1.4880
 4329TIP3    H237183   7.381   7.261   8.499 -1.6384 -0.7719  1.1846
 4330TIP3   OH237184   3.915   5.889   9.284  0.3180  0.2097 -0.2219
 4330TIP3    H137185   3.999   5.896   9.238 -0.0519  0.1091 -0.9315
 4330TIP3    H237186   3.937   5.848   9.368  1.0988  0.9376 -0.0515
 4331TIP3   OH237187   6.880   1.344   7.166  0.1084 -0.4970 -0.8036
 4331TIP3    H137188   6.953   1.362   7.225 -0.6954  1.2580 -0.2956
 4331TIP3    H237189   6.919   1.350   7.078  0.4802  0.9639 -0.5605
 4332TIP3   OH237190   0.039   6.150   8.395 -0.4214 -0.1322 -0.3728
 4332TIP3    H137191   0.125   6.133   8.356 -1.6792 -1.7648 -2.6878
 4332TIP3    H237192   0.002   6.063   8.408 -1.4897  0.5319  1.2128
 4333TIP3   OH237193   6.680   1.572   9.159 -0.1755 -0.1446  0.2592
 4333TIP3    H137194   6.610   1.636   9.142  0.3929  0.6609  0.8837
 4333TIP3    H237195   6.642   1.512   9.223 -0.0287  0.7779  1.2309
 4334TIP3   OH237196   5.286   6.988   9.531 -0.2161  0.0885  0.3398
 4334TIP3    H137197   5.316   6.905   9.566 -2.6982 -0.9208  0.2645
 4334TIP3    H237198   5.350   7.010   9.464  0.0548 -2.2157 -0.2380
 4335TIP3   OH237199   2.430   6.675   8.029 -0.1031 -0.9682  0.3012
 4335TIP3    H137200   2.388   6.596   7.995 -1.3169 -0.7771  1.2896
 4335TIP3    H237201   2.518   6.673   7.992 -0.6052 -1.9872 -0.9012
 4336TIP3   OH237202   4.998   0.941   8.572 -0.0609 -0.2395  0.4199
 4336TIP3    H137203   4.990   0.919   8.665  0.7056 -2.3805  0.0527
 4336TIP3    H237204   5.092   0.958   8.560 -0.3556  1.3774  0.2747
 4337TIP3   OH237205   7.344   5.984   9.030 -0.3360 -0.0744  0.7148
 4337TIP3    H137206   7.352   5.890   9.047 -0.8023 -0.5479 -1.4223
 4337TIP3    H237207   7.432   6.011   9.003 -0.4547 -0.1564  0.2339
 4338TIP3   OH237208   5.022   0.428   7.641 -0.4186 -0.1570  1.0803
 4338TIP3    H137209   4.950   0.370   7.666 -1.0623 -0.1077 -0.5304
 4338TIP3    H237210   5.011   0.440   7.547  2.1160 -0.6923  0.6553
 4339TIP3   OH237211   3.333   6.660   8.022  0.4018  0.2263  0.3378
 4339TIP3    H137212   3.300   6.672   8.111  1.6205  0.8681  0.7238
 4339TIP3    H237213   3.394   6.733   8.009  0.2640  0.1291 -1.0172
 4340TIP3   OH237214   4.433   3.021   6.500  0.4687 -0.7990  0.9960
 4340TIP3    H137215   4.518   3.008   6.543  1.9307  1.0993 -1.1009
 4340TIP3    H237216   4.390   2.936   6.506  2.9451 -2.1293  1.2627
 4341TIP3   OH237217   7.439   3.533   8.367 -0.0261 -0.1007  0.1503
 4341TIP3    H137218   7.526   3.499   8.389  0.0700  0.7547  1.1976
 4341TIP3    H237219   7.444   3.626   8.386 -1.3586 -0.1435  0.8827
 4342TIP3   OH237220   2.768   1.393   7.871  0.1891 -0.7698  0.1319
 4342TIP3    H137221   2.772   1.467   7.931  2.4179 -0.8267  0.1340
 4342TIP3    H237222   2.840   1.408   7.809  0.2721 -2.5764 -0.2626
 4343TIP3   OH237223   3.789   4.850   7.992  0.7915  0.1479 -0.1978
 4343TIP3    H137224   3.729   4.878   8.062  0.9484  1.1627 -0.4589
 4343TIP3    H237225   3.876   4.876   8.023  0.9471 -0.0626 -0.4504
 4344TIP3   OH237226   5.390   6.092   7.936 -0.5139 -0.1366 -0.2462
 4344TIP3    H137227   5.381   6.010   7.984 -1.4317  0.8677  1.3972
 4344TIP3    H237228   5.473   6.084   7.888  0.0142 -1.5251  0.8485
 4345TIP3   OH237229   6.887   6.353   8.728 -0.5316 -0.3558 -0.1222
 4345TIP3    H137230   6.895   6.412   8.653  1.4135  1.5134  1.4095
 4345TIP3    H237231   6.798   6.368   8.761  0.2996  2.9057  1.0073
 4346TIP3   OH237232   7.459   1.884   8.875 -0.1164  0.2059  0.0739
 4346TIP3    H137233   7.443   1.799   8.915 -0.6844  0.8282  1.2155
 4346TIP3    H237234   7.493   1.938   8.946  0.2140  0.9505 -0.6272
 4347TIP3   OH237235   1.352   2.036   7.841  0.3561  0.0180  0.3581
 4347TIP3    H137236   1.271   2.026   7.790 -0.7562  3.6145  1.1420
 4347TIP3    H237237   1.330   2.001   7.927  0.8964 -2.2749 -0.3676
 4348TIP3   OH237238   2.681   1.157   8.942 -0.1489 -0.4076 -0.6856
 4348TIP3    H137239   2.698   1.199   9.026 -0.0788  0.3266 -1.0596
 4348TIP3    H237240   2.699   1.064   8.958 -1.3921 -0.4894  0.4571
 4349TIP3   OH237241   7.585   3.642   6.974 -0.1120 -0.6655  0.1079
 4349TIP3    H137242   7.639   3.703   6.925 -0.4491  0.9545  1.6485
 4349TIP3    H237243   7.508   3.629   6.918 -0.3693  0.9144  0.0345
 4350TIP3   OH237244   3.214   6.895   9.469 -0.2135 -0.3585 -0.3165
 4350TIP3    H137245   3.294   6.943   9.493  0.6890  0.0563 -3.6871
 4350TIP3    H237246   3.145   6.961   9.471 -0.1767 -0.3318  0.9354
 4351TIP3   OH237247   0.216   2.233   8.966 -0.3313 -0.1011  0.9279
 4351TIP3    H137248   0.233   2.184   9.046  1.2925  0.7621  1.1617
 4351TIP3    H237249   0.303   2.249   8.929 -0.6146  3.4270  1.4007
 4352TIP3   OH237250   5.778   7.026   7.387  0.1394  0.0463  0.2574
 4352TIP3    H137251   5.709   7.000   7.326  1.9264 -0.3001 -1.7271
 4352TIP3    H237252   5.773   6.961   7.457 -0.4829 -0.9664 -0.6830
 4353TIP3   OH237253   4.588   5.812   9.804 -0.2713 -0.1593 -0.2760
 4353TIP3    H137254   4.494   5.821   9.820 -0.3209  1.3121 -1.2526
 4353TIP3    H237255   4.594   5.796   9.709  0.5005  0.6645 -0.3764
 4354TIP3   OH237256   6.080   6.382   8.747  0.0983  0.2519  0.1035
 4354TIP3    H137257   6.048   6.453   8.692 -1.0172  0.9481  1.5749
 4354TIP3    H237258   6.134   6.329   8.689  1.4528  2.5965 -0.9127
 4355TIP3   OH237259   6.108   5.373   8.853 -0.5105 -0.2248  0.5347
 4355TIP3    H137260   6.065   5.447   8.810  0.2562  0.3195  0.6827
 4355TIP3    H237261   6.071   5.372   8.941 -1.1634 -0.5692  0.2677
 4356TIP3   OH237262   1.699   7.227   8.798  0.4318  0.0861  0.5134
 4356TIP3    H137263   1.683   7.135   8.818  3.2780 -0.3944  1.0177
 4356TIP3    H237264   1.675   7.273   8.879  1.4744 -0.5598  1.2190
 4357TIP3   OH237265   4.840   5.214   8.310 -0.6803  0.5580 -0.8504
 4357TIP3    H137266   4.771   5.169   8.359 -0.4005 -1.4912 -2.1850
 4357TIP3    H237267   4.917   5.160   8.323  0.0878  1.5318 -1.2802
 4358TIP3   OH237268   1.026   0.155   7.739 -0.8447 -0.9429 -0.2360
 4358TIP3    H137269   1.121   0.152   7.739 -0.8227 -1.9352 -2.2188
 4358TIP3    H237270   1.000   0.085   7.799 -0.3800  0.3022  1.4948
 4359TIP3   OH237271   5.765   1.749   8.661 -0.7538  0.2211  0.1285
 4359TIP3    H137272   5.748   1.814   8.593 -3.2272 -1.7644 -1.3431
 4359TIP3    H237273   5.712   1.777   8.736 -1.0691  0.4035 -0.1622
 4360TIP3   OH237274   4.649   3.606   9.069  0.1934 -0.4095  0.1687
 4360TIP3    H137275   4.712   3.620   8.998  0.2993  0.1838  0.3704
 4360TIP3    H237276   4.580   3.552   9.030  1.1716 -1.6797  0.1547
 4361TIP3   OH237277   1.246   2.325   7.184  0.5323  0.2890  0.2004
 4361TIP3    H137278   1.240   2.346   7.091  1.6615  1.7127  0.4141
 4361TIP3    H237279   1.254   2.230   7.187  1.6928  0.3165 -1.2231
 4362TIP3   OH237280   6.814   1.205   8.245 -0.5458  0.3306  0.7272
 4362TIP3    H137281   6.867   1.282   8.225 -1.0308  0.6585  0.6790
 4362TIP3    H237282   6.728   1.227   8.210 -1.2545  0.6422  2.5533
 4363TIP3   OH237283   4.174   6.548   8.362  0.0198  0.6442  0.3901
 4363TIP3    H137284   4.184   6.642   8.350 -1.6066  0.7193 -0.6645
 4363TIP3    H237285   4.235   6.510   8.299 -1.1984  1.0433 -1.1055
 4364TIP3   OH237286   1.367   3.389   7.321 -0.0057  0.1544 -0.4906
 4364TIP3    H137287   1.399   3.422   7.405 -1.1456  0.1514 -0.0278
 4364TIP3    H237288   1.275   3.367   7.338 -0.2251  0.0538 -1.7205
 4365TIP3   OH237289   5.199   4.749   7.545 -0.4355  0.2731  0.6919
 4365TIP3    H137290   5.118   4.729   7.498  0.2391 -0.3485 -0.2270
 4365TIP3    H237291   5.235   4.824   7.497  0.1181 -0.1898  0.3842
 4366TIP3   OH237292   2.986   3.263   7.800 -0.2069  0.7008 -0.4692
 4366TIP3    H137293   2.899   3.237   7.770 -0.0426 -1.5067  0.7128
 4366TIP3    H237294   3.043   3.243   7.726 -0.4520  0.0829 -0.5028
 4367TIP3   OH237295   1.653   6.521   7.534 -0.0685 -0.2351  0.1037
 4367TIP3    H137296   1.590   6.592   7.538 -2.7755 -2.5477  2.2644
 4367TIP3    H237297   1.648   6.490   7.444 -1.1118  0.3754 -0.0629
 4368TIP3   OH237298   0.785   2.166   8.801 -0.1502  0.5899  0.6104
 4368TIP3    H137299   0.776   2.208   8.716  0.8886  0.2894  0.3386
 4368TIP3    H237300   0.761   2.075   8.785  1.2447  0.2542  0.3475
 4369TIP3   OH237301   3.292   3.160   7.085 -0.0558 -0.5198 -0.0246
 4369TIP3    H137302   3.363   3.137   7.024  0.9013  0.2419  0.7604
 4369TIP3    H237303   3.240   3.225   7.038  2.2599  2.1919  0.8533
 4370TIP3   OH237304   7.117   5.343   7.746 -0.1964 -0.0218  0.0636
 4370TIP3    H137305   7.191   5.396   7.775 -0.0866 -0.2226  0.1532
 4370TIP3    H237306   7.106   5.365   7.654  0.1216 -0.1591 -0.0096
 4371TIP3   OH237307   6.705   3.331   8.796 -0.0895  0.5598 -0.1575
 4371TIP3    H137308   6.682   3.261   8.735 -0.0848  0.5307 -0.1257
 4371TIP3    H237309   6.742   3.400   8.741  0.2301  0.3978 -0.1494
 4372TIP3   OH237310   2.983   6.924   9.012  1.1292 -0.1300 -0.2182
 4372TIP3    H137311   3.023   6.989   8.954  0.0077  0.0115 -0.8636
 4372TIP3    H237312   3.057   6.874   9.046  1.8172 -0.3594 -1.9570
 4373TIP3   OH237313   6.826   0.601   7.357 -0.1096  0.0254 -0.3825
 4373TIP3    H137314   6.743   0.585   7.402 -0.1454 -0.4865 -0.6244
 4373TIP3    H237315   6.886   0.627   7.427 -0.2195 -0.5505 -0.0674
 4374TIP3   OH237316   5.819   0.205   8.010 -0.0665  0.1169  0.7677
 4374TIP3    H137317   5.822   0.111   8.028  2.2801 -0.1967 -0.8376
 4374TIP3    H237318   5.732   0.219   7.974 -0.6350 -1.3434  1.4640
 4375TIP3   OH237319   4.415   5.262   9.360  0.2042  0.3924 -0.5155
 4375TIP3    H137320   4.462   5.181   9.375  0.3874  0.7031  0.6277
 4375TIP3    H237321   4.475   5.331   9.387 -0.2578  0.8735 -0.6882
 4376TIP3   OH237322   6.360   2.155   7.239 -0.6176  0.0866  0.1109
 4376TIP3    H137323   6.318   2.226   7.190 -0.3608 -0.6193 -1.1998
 4376TIP3    H237324   6.388   2.093   7.171  1.0154 -0.2749  1.0570
 4377TIP3   OH237325   6.157   7.013   8.136  0.1062 -0.1958 -0.0495
 4377TIP3    H137326   6.245   6.978   8.118  0.5671  0.0592  1.4949
 4377TIP3    H237327   6.174   7.097   8.180 -0.9183  0.0440 -0.0957
 4378TIP3   OH237328   3.755   7.107   9.451  0.3705 -0.4011 -0.0220
 4378TIP3    H137329   3.749   7.053   9.373 -0.6856 -1.1989  0.5861
 4378TIP3    H237330   3.828   7.166   9.434 -0.4182  0.0681 -1.9763
 4379TIP3   OH237331   5.011   0.507   8.991  0.0134 -0.3943 -0.5004
 4379TIP3    H137332   5.055   0.466   9.066 -0.3657  0.0870  0.0008
 4379TIP3    H237333   4.924   0.529   9.024  0.3956  1.3626 -0.5173
 4380TIP3   OH237334   2.768   2.198   9.346 -0.3502  0.1420  0.4845
 4380TIP3    H137335   2.836   2.135   9.369 -1.6889 -1.8586 -0.6755
 4380TIP3    H237336   2.710   2.199   9.422 -0.9871 -1.0221  0.0337
 4381TIP3   OH237337   3.346   3.736   9.391  0.7498  0.1315  0.3052
 4381TIP3    H137338   3.265   3.742   9.339  2.2691  0.2519 -2.2358
 4381TIP3    H237339   3.366   3.827   9.412 -0.5800 -0.0021  2.4125
 4382TIP3   OH237340   5.780   1.717   9.279 -0.2203 -0.8229  0.2687
 4382TIP3    H137341   5.718   1.645   9.265 -0.0534 -1.0288  0.5768
 4382TIP3    H237342   5.736   1.775   9.341 -0.4491 -0.5412 -0.1535
 4383TIP3   OH237343   0.397   3.443   7.121  0.0090  0.4792 -0.6549
 4383TIP3    H137344   0.405   3.484   7.207 -2.1482  3.1521 -1.5774
 4383TIP3    H237345   0.481   3.460   7.079 -0.5868  3.6622 -0.7770
 4384TIP3   OH237346   4.572   5.045   9.389  0.0391  0.3937  0.4835
 4384TIP3    H137347   4.557   5.007   9.476 -2.1763 -1.1371 -0.4585
 4384TIP3    H237348   4.621   4.977   9.342  2.0131  1.5749  0.7185
 4385TIP3   OH237349   0.523   6.582   6.903 -0.5560 -0.3718 -0.1114
 4385TIP3    H137350   0.454   6.611   6.843 -1.4995 -1.9887  0.1263
 4385TIP3    H237351   0.593   6.646   6.892 -2.4436  1.9316  0.3454
 4386TIP3   OH237352   6.222   1.417   9.240 -0.3214  0.0861  0.1113
 4386TIP3    H137353   6.152   1.427   9.175  0.6424  1.0924 -0.8420
 4386TIP3    H237354   6.223   1.500   9.287 -1.0375 -0.6557  1.4779
 4387TIP3   OH237355   7.055   6.012   8.415  0.1172 -0.3348  0.8108
 4387TIP3    H137356   7.003   5.953   8.470  0.4409 -1.2502  0.1573
 4387TIP3    H237357   7.078   5.960   8.338  1.1088  0.3897  0.5916
 4388TIP3   OH237358   2.068   3.704   8.188  0.4765 -0.3327  0.1882
 4388TIP3    H137359   2.151   3.659   8.203  1.4164  1.3405  0.2107
 4388TIP3    H237360   2.002   3.641   8.216  1.7208 -1.7162  0.1401
 4389TIP3   OH237361   2.391   1.771   7.116 -0.2376  0.5668 -0.2450
 4389TIP3    H137362   2.483   1.778   7.093 -0.0184  0.3839  0.5311
 4389TIP3    H237363   2.344   1.797   7.037  0.4631 -1.0153 -1.2424
 4390TIP3   OH237364   4.622   5.104   8.476  0.5152  0.5253 -0.1096
 4390TIP3    H137365   4.547   5.096   8.418  0.0608  0.0103  0.5402
 4390TIP3    H237366   4.590   5.077   8.562  1.3883  0.4830  0.2180
 4391TIP3   OH237367   1.261   2.547   7.758 -0.4109  0.3929  0.5060
 4391TIP3    H137368   1.290   2.632   7.725 -2.2624  0.2503 -1.7932
 4391TIP3    H237369   1.327   2.485   7.726  0.0540  0.7704  0.7310
 4392TIP3   OH237370   2.127   7.623   8.910  0.4355 -0.5041  0.2521
 4392TIP3    H137371   2.155   7.705   8.869  0.8089 -0.1870  1.1156
 4392TIP3    H237372   2.043   7.645   8.951  0.0521 -0.8274 -0.3284
 4393TIP3   OH237373   5.725   1.552   6.901 -0.2488  0.1967 -0.2641
 4393TIP3    H137374   5.818   1.536   6.889 -0.4465  0.1118 -2.0047
 4393TIP3    H237375   5.701   1.610   6.828 -1.8084 -0.9245 -0.7120
 4394TIP3   OH237376   7.309   2.476   7.977  0.2715 -0.0920  0.1539
 4394TIP3    H137377   7.239   2.411   7.979  0.5038 -0.3344  1.4002
 4394TIP3    H237378   7.323   2.499   8.069  1.2206  0.6098 -0.1480
 4395TIP3   OH237379   4.246   7.455   7.651  0.4237 -0.0850 -0.0551
 4395TIP3    H137380   4.333   7.469   7.688 -0.0032 -0.9054  1.3788
 4395TIP3    H237381   4.243   7.510   7.573  1.9164  0.6102  0.3432
 4396TIP3   OH237382   1.845   0.116   8.078  0.0789 -0.5664  0.5043
 4396TIP3    H137383   1.893   0.196   8.096  0.2129 -0.9398  1.8711
 4396TIP3    H237384   1.758   0.145   8.053  0.0222 -0.0114  1.3395
 4397TIP3   OH237385   5.085   7.200   8.974  0.5106  0.1514 -0.4921
 4397TIP3    H137386   5.097   7.248   8.892  1.3187  1.0630  0.1415
 4397TIP3    H237387   5.118   7.259   9.041  1.9069 -1.4463  0.2813
 4398TIP3   OH237388   0.873   6.134   9.550 -0.1382 -0.1147 -0.3366
 4398TIP3    H137389   0.957   6.179   9.546  0.3343 -0.9518 -0.2055
 4398TIP3    H237390   0.894   6.046   9.583 -1.1547 -0.1131  0.3848
 4399TIP3   OH237391   6.052   6.003   7.971 -0.2955  0.0110  0.4297
 4399TIP3    H137392   6.131   5.983   7.921  1.1170  1.3164  2.0170
 4399TIP3    H237393   6.026   5.919   8.009  0.6487 -0.3310  0.3450
 4400TIP3   OH237394   5.197   2.938   7.517 -0.1783  0.5893 -0.8703
 4400TIP3    H137395   5.137   2.990   7.463 -0.0561  1.4768 -0.1738
 4400TIP3    H237396   5.205   2.855   7.470 -3.2115 -0.2077 -0.1763
 4401TIP3   OH237397   7.657   1.337   9.146  0.5875  0.6326  0.3027
 4401TIP3    H137398   7.720   1.273   9.113 -0.2766 -0.4135  0.6303
 4401TIP3    H237399   7.586   1.336   9.081  0.1030  0.5139  0.8288
 4402TIP3   OH237400   1.430   1.455   8.724  0.3085 -0.1577  0.3023
 4402TIP3    H137401   1.483   1.461   8.803  0.2692 -0.6094  0.3696
 4402TIP3    H237402   1.407   1.545   8.703  0.8847  0.0253  0.4213
 4403TIP3   OH237403   5.836   2.152   8.946  0.3395  0.2749 -0.1990
 4403TIP3    H137404   5.754   2.118   8.983 -0.1171  3.0021  1.5975
 4403TIP3    H237405   5.904   2.120   9.006  0.2930  0.0143 -0.2841
 4404TIP3   OH237406   5.213   7.602   7.233 -0.2063 -0.0750 -0.3595
 4404TIP3    H137407   5.169   7.620   7.150  0.7202 -1.4359 -1.1813
 4404TIP3    H237408   5.301   7.638   7.222 -0.3329  0.4995  0.3811
 4405TIP3   OH237409   7.315   4.306   7.072 -0.3103  0.1161  0.0524
 4405TIP3    H137410   7.271   4.301   6.987 -3.0853 -2.2732  1.4492
 4405TIP3    H237411   7.371   4.229   7.075  0.5566  0.7306  0.0540
 4406TIP3   OH237412   3.319   7.592   9.173  0.4838  0.5735  0.5441
 4406TIP3    H137413   3.309   7.640   9.091  1.0952  0.1635  0.2261
 4406TIP3    H237414   3.388   7.639   9.220 -0.0690  0.9863  0.9683
 4407TIP3   OH237415   0.439   1.985   8.739  0.9324  0.2267  0.2357
 4407TIP3    H137416   0.382   1.938   8.678  0.8418  1.5756 -0.7609
 4407TIP3    H237417   0.404   1.964   8.825  0.5481 -1.0517 -0.1976
 4408TIP3   OH237418   1.057   2.324   6.595 -0.8022  0.5548 -0.2536
 4408TIP3    H137419   1.098   2.277   6.667 -0.8399 -0.8255 -1.1014
 4408TIP3    H237420   0.983   2.369   6.635 -1.6946 -1.3619  0.3454
 4409TIP3   OH237421   3.591   0.034   9.213 -0.1811  0.5468 -0.3221
 4409TIP3    H137422   3.616   0.124   9.235  1.0564  0.4459 -1.2105
 4409TIP3    H237423   3.648   0.011   9.139 -0.7731 -0.8231 -0.3743
 4410TIP3   OH237424   1.236   7.066   9.011  0.1021  0.0692 -0.3354
 4410TIP3    H137425   1.238   7.038   8.920  1.1540 -0.8773 -0.0492
 4410TIP3    H237426   1.144   7.083   9.029 -0.3844 -1.6432 -1.0174
 4411TIP3   OH237427   3.568   2.824   7.340  0.1248  0.1265  0.0023
 4411TIP3    H137428   3.621   2.903   7.330 -1.2756  1.1450  0.2305
 4411TIP3    H237429   3.493   2.838   7.282  0.3841 -1.5552 -0.8000
 4412TIP3   OH237430   6.310   4.722   8.991  0.0139 -0.6618  0.8141
 4412TIP3    H137431   6.395   4.765   8.988  0.8086 -2.1220  1.5691
 4412TIP3    H237432   6.247   4.792   8.975  1.2867  0.6822  1.4803
 4413TIP3   OH237433   7.352   3.037   7.982  0.0158 -0.6385  0.1263
 4413TIP3    H137434   7.371   3.126   8.011  0.6130 -1.0040  0.8993
 4413TIP3    H237435   7.417   2.983   8.027 -1.8695 -1.7613  1.6733
 4414TIP3   OH237436   6.929   1.175   7.440 -0.0454  0.1532  0.2668
 4414TIP3    H137437   6.899   1.235   7.508  3.3975 -0.4808  2.6233
 4414TIP3    H237438   7.016   1.207   7.416 -0.3381 -0.8231 -2.4590
 4415TIP3   OH237439   3.258   4.684   8.798  0.4499 -0.0844  0.3449
 4415TIP3    H137440   3.176   4.730   8.811  0.4565  0.0746 -0.1703
 4415TIP3    H237441   3.286   4.659   8.886  0.6170  1.1843  0.6647
 4416TIP3   OH237442   0.348   7.089   9.261  0.1022 -0.2129  0.4628
 4416TIP3    H137443   0.441   7.100   9.285  0.4509 -0.7392 -0.6042
 4416TIP3    H237444   0.349   7.031   9.186 -1.1262 -0.3736  0.5521
 4417TIP3   OH237445   1.773   4.221   8.437  0.3152 -0.5196 -0.3050
 4417TIP3    H137446   1.767   4.288   8.368  0.8300 -0.6276 -0.4623
 4417TIP3    H237447   1.834   4.156   8.401  0.4795 -0.6445  0.1941
 4418TIP3   OH237448   3.759   4.570   7.996  0.0584 -0.3241  0.8714
 4418TIP3    H137449   3.793   4.659   7.999 -1.2894  0.2011  2.8966
 4418TIP3    H237450   3.786   4.536   7.910  1.8956  1.4758  0.6733
 4419TIP3   OH237451   7.429   2.033   7.559  0.7109 -0.1637  0.9912
 4419TIP3    H137452   7.334   2.035   7.575  0.9799  1.2894  2.6578
 4419TIP3    H237453   7.461   1.965   7.618  0.5784 -1.9103 -0.8158
 4420TIP3   OH237454   2.412   5.123   7.250 -0.0208  0.7283  0.0063
 4420TIP3    H137455   2.495   5.105   7.295 -0.6609 -0.2528  0.8259
 4420TIP3    H237456   2.397   5.046   7.196  0.0455  1.3038 -0.8501
 4421TIP3   OH237457   4.235   0.112   8.220  0.2993 -0.0484  0.2484
 4421TIP3    H137458   4.321   0.080   8.248 -0.3515  0.8126  3.7123
 4421TIP3    H237459   4.199   0.039   8.169  2.0015 -1.5452  1.0417
 4422TIP3   OH237460   5.972   1.877   7.924  0.3503 -0.5192 -0.5814
 4422TIP3    H137461   6.034   1.887   7.852 -1.1647 -2.6248 -2.3312
 4422TIP3    H237462   5.897   1.832   7.885 -0.5346 -1.8462  2.3172
 4423TIP3   OH237463   2.809   0.513   7.646  0.8362  0.3556 -0.5188
 4423TIP3    H137464   2.729   0.473   7.615 -0.0896  1.9628 -0.3223
 4423TIP3    H237465   2.782   0.599   7.678  2.5017  0.6051  0.3412
 4424TIP3   OH237466   5.287   1.541   9.336  0.0807 -0.0511 -0.0413
 4424TIP3    H137467   5.233   1.619   9.327  0.6557  0.3429 -0.1462
 4424TIP3    H237468   5.228   1.468   9.317 -0.5133  0.3406  0.2782
 4425TIP3   OH237469   1.106   5.942   9.399  0.2682 -0.0635 -0.1727
 4425TIP3    H137470   1.171   6.011   9.388  1.2098 -0.9737 -0.4325
 4425TIP3    H237471   1.059   5.940   9.316  0.9733 -0.4641 -0.5685
 4426TIP3   OH237472   6.382   7.321   7.060 -0.8281  0.2053 -0.4272
 4426TIP3    H137473   6.303   7.355   7.017 -2.0068 -1.3691  0.3948
 4426TIP3    H237474   6.349   7.261   7.127  1.0239  0.9793  1.2705
 4427TIP3   OH237475   2.893   6.866   9.295 -0.1211 -0.2793  0.3188
 4427TIP3    H137476   2.920   6.949   9.255  1.6146 -0.3821  1.1978
 4427TIP3    H237477   2.808   6.847   9.255  0.6835  0.5412 -1.9617
 4428TIP3   OH237478   6.071   0.611   8.539 -0.0679 -0.4876 -0.2638
 4428TIP3    H137479   6.052   0.541   8.602 -0.4408  0.2558  0.4751
 4428TIP3    H237480   6.078   0.690   8.593  0.5984  0.0042 -1.0579
 4429TIP3   OH237481   3.393   7.128   7.274  0.7203  0.2744 -0.3175
 4429TIP3    H137482   3.379   7.056   7.334 -0.2824  0.7640  0.0658
 4429TIP3    H237483   3.372   7.093   7.188 -1.5723  0.5704  0.0729
 4430TIP3   OH237484   1.321   3.348   8.165  0.0606  0.2367  0.3525
 4430TIP3    H137485   1.322   3.299   8.247 -0.3504  1.6375  1.2330
 4430TIP3    H237486   1.241   3.321   8.121 -0.8837  1.1193  1.4850
 4431TIP3   OH237487   3.407   5.544   8.241 -0.4983 -0.0648  0.1791
 4431TIP3    H137488   3.338   5.492   8.283  0.8748 -0.4182  2.1222
 4431TIP3    H237489   3.441   5.488   8.171 -1.3748 -0.3427 -0.0393
 4432TIP3   OH237490   6.874   3.395   6.095 -0.0819  0.3002 -0.1046
 4432TIP3    H137491   6.807   3.462   6.107  0.4031  0.5837  1.0823
 4432TIP3    H237492   6.825   3.312   6.093 -0.4716  0.4939  0.8764
 4433TIP3   OH237493   3.391   7.402   8.364 -0.1706 -0.2551  0.0135
 4433TIP3    H137494   3.315   7.456   8.383 -0.3924 -0.2974 -0.7283
 4433TIP3    H237495   3.375   7.320   8.411 -1.9437 -1.3529 -2.3419
 4434TIP3   OH237496   3.467   3.002   8.599 -0.2560 -0.5275  0.7551
 4434TIP3    H137497   3.418   2.923   8.625 -0.9295 -0.7883 -1.1005
 4434TIP3    H237498   3.402   3.072   8.603 -0.4439 -0.6157 -0.3232
 4435TIP3   OH237499   5.571   4.536   9.398  0.2458  0.7521 -0.1743
 4435TIP3    H137500   5.541   4.502   9.483  3.2913 -0.1286  0.6838
 4435TIP3    H237501   5.635   4.603   9.421  3.5370 -1.6261 -1.5394
 4436TIP3   OH237502   3.990   7.250   8.911 -0.2381  0.1992 -0.4114
 4436TIP3    H137503   3.927   7.233   8.841 -0.7311 -0.6783  0.2389
 4436TIP3    H237504   3.937   7.270   8.988  0.2361 -1.2667  0.3282
 4437TIP3   OH237505   7.402   4.506   7.484  0.0487  0.1496 -0.3516
 4437TIP3    H137506   7.492   4.495   7.516 -0.6950 -0.3830  1.6632
 4437TIP3    H237507   7.413   4.547   7.398  2.1755  1.4479  0.4450
 4438TIP3   OH237508   5.969   3.590   8.698  0.1912  0.3763  0.0736
 4438TIP3    H137509   6.027   3.539   8.641 -1.0712 -0.9212 -0.1244
 4438TIP3    H237510   5.901   3.622   8.639 -1.0898 -0.9105  0.7666
 4439TIP3   OH237511   4.659   3.952   9.447 -0.4019  0.3496  0.0317
 4439TIP3    H137512   4.677   3.917   9.359 -0.5666 -0.2128  0.2158
 4439TIP3    H237513   4.602   3.887   9.487 -1.1840  1.1175  0.1939
 4440TIP3   OH237514   6.211   0.791   9.555  0.1049  0.0766  0.3714
 4440TIP3    H137515   6.130   0.838   9.574  0.0891  0.2508 -0.1136
 4440TIP3    H237516   6.246   0.833   9.476 -0.0352 -0.8793 -0.2152
 4441TIP3   OH237517   1.173   6.798   7.581  0.4542 -0.0249 -0.0617
 4441TIP3    H137518   1.172   6.703   7.587  0.2282 -0.1076 -1.1455
 4441TIP3    H237519   1.098   6.819   7.524 -0.7201  0.9328  1.7240
 4442TIP3   OH237520   3.751   0.037   8.921  0.4590  0.3854  0.5902
 4442TIP3    H137521   3.720   0.123   8.951  2.1163  1.0579  0.4613
 4442TIP3    H237522   3.844   0.036   8.943  0.7325 -0.8976 -0.5163
 4443TIP3   OH237523   5.362   1.749   8.086  0.2804  0.4602 -0.0972
 4443TIP3    H137524   5.393   1.662   8.108 -0.5593  0.5863  1.8260
 4443TIP3    H237525   5.381   1.760   7.993 -1.5740 -2.6187 -0.9743
 4444TIP3   OH237526   1.504   4.977   7.273  0.2920 -0.0944 -0.3897
 4444TIP3    H137527   1.497   5.063   7.232 -0.3921 -0.8228 -1.8654
 4444TIP3    H237528   1.420   4.963   7.316  1.1008  0.7812  1.5870
 4445TIP3   OH237529   7.150   6.284   8.338  0.1274  0.3352  0.1684
 4445TIP3    H137530   7.246   6.279   8.333  0.1933  1.2191  0.3941
 4445TIP3    H237531   7.123   6.197   8.369  0.8605  0.1243  0.2329
 4446TIP3   OH237532   4.279   7.610   9.147  0.1767  0.4131 -0.1497
 4446TIP3    H137533   4.242   7.629   9.233  0.4230 -1.0543  0.3075
 4446TIP3    H237534   4.256   7.518   9.130  0.5008  0.5475 -1.4560
 4447TIP3   OH237535   3.104   4.568   8.422  0.6558 -0.4762  0.1626
 4447TIP3    H137536   3.134   4.479   8.440 -0.8550 -0.7664  1.3811
 4447TIP3    H237537   3.069   4.564   8.333  0.1259 -1.2319  0.3996
 4448TIP3   OH237538   0.464   2.221   8.579  0.3405  0.4935 -0.0092
 4448TIP3    H137539   0.438   2.160   8.648  0.4496 -0.6785 -0.9836
 4448TIP3    H237540   0.399   2.209   8.510  0.7223  1.0268 -0.4764
 4449TIP3   OH237541   5.705   4.135   9.372  0.1137  0.2692 -0.0472
 4449TIP3    H137542   5.673   4.155   9.460 -2.0054  0.0393 -0.7155
 4449TIP3    H237543   5.785   4.085   9.387  0.6303  1.5219  1.7202
 4450TIP3   OH237544   3.832   1.870   7.844  0.1056 -0.1764 -0.6500
 4450TIP3    H137545   3.772   1.905   7.777 -0.3807 -0.7594 -0.5319
 4450TIP3    H237546   3.884   1.945   7.872 -1.0078  0.4863 -0.3029
 4451TIP3   OH237547   5.439   1.579   8.458  0.1761 -0.1093  0.5586
 4451TIP3    H137548   5.465   1.647   8.396  0.5286  1.0245  1.8962
 4451TIP3    H237549   5.344   1.585   8.462  0.1961  0.2112  0.5598
 4452TIP3   OH237550   2.655   6.495   9.300  0.3051  0.1481 -0.0008
 4452TIP3    H137551   2.680   6.403   9.298  0.7189  0.2634 -0.3433
 4452TIP3    H237552   2.563   6.495   9.326  0.2126 -0.3810 -0.3201
 4453TIP3   OH237553   4.844   4.941   8.030  0.4083 -0.3378 -0.4155
 4453TIP3    H137554   4.773   4.887   7.995  1.0995 -2.1692  0.8290
 4453TIP3    H237555   4.922   4.885   8.022  1.4904  1.1576 -0.6409
 4454TIP3   OH237556   2.378   3.657   6.633  0.0205  0.3232 -0.6779
 4454TIP3    H137557   2.298   3.702   6.659  1.1289  2.6208 -0.9544
 4454TIP3    H237558   2.391   3.590   6.700 -2.1541 -0.1990 -0.7035
 4455TIP3   OH237559   1.466   3.496   7.948  0.3920  0.1455 -0.0884
 4455TIP3    H137560   1.403   3.479   8.018  1.2447  0.1137  0.6932
 4455TIP3    H237561   1.536   3.547   7.990  1.0632 -0.1215 -0.8477
 4456TIP3   OH237562   2.271   5.629   6.846 -0.6709 -0.3812 -0.2797
 4456TIP3    H137563   2.314   5.553   6.805  1.0567 -0.2589  1.1745
 4456TIP3    H237564   2.197   5.593   6.894  1.4068 -1.5612  2.2457
 4457TIP3   OH237565   6.914   1.185   9.079 -0.0919  0.1634 -0.5699
 4457TIP3    H137566   6.906   1.090   9.092  0.7719  0.3256  1.7024
 4457TIP3    H237567   6.826   1.214   9.057 -0.7132 -0.9824  0.2962
 4458TIP3   OH237568   1.148   5.418   7.706 -0.5102  0.4980 -0.1795
 4458TIP3    H137569   1.237   5.398   7.676 -0.8096  0.3936 -1.0150
 4458TIP3    H237570   1.094   5.347   7.672 -0.6458 -0.5065  1.9598
 4459TIP3   OH237571   5.240   4.936   8.983  0.2853  0.2602  0.2684
 4459TIP3    H137572   5.150   4.944   9.014  0.3695  2.8255  0.0982
 4459TIP3    H237573   5.294   4.941   9.062  0.3394  2.2424  0.1615
 4460TIP3   OH237574   6.825   3.536   7.408 -0.3225 -0.8135  0.8027
 4460TIP3    H137575   6.919   3.544   7.426  0.2245  2.2780 -2.3436
 4460TIP3    H237576   6.785   3.602   7.464 -0.2507 -0.3691  0.3436
 4461TIP3   OH237577   6.976   6.668   7.296 -0.5277  0.2812  0.3590
 4461TIP3    H137578   6.966   6.632   7.384  1.6972 -0.7107  0.2697
 4461TIP3    H237579   6.887   6.680   7.264 -1.4509 -3.2029  1.2100
 4462TIP3   OH237580   6.182   6.848   7.772 -0.7378 -0.2742 -0.1861
 4462TIP3    H137581   6.183   6.827   7.865 -0.4921  1.0514  0.1348
 4462TIP3    H237582   6.092   6.829   7.744 -0.5788 -1.5013  0.1068
 4463TIP3   OH237583   3.710   1.916   8.505  0.2533  0.1297 -0.6566
 4463TIP3    H137584   3.658   1.851   8.552  0.6563  1.7353  2.3321
 4463TIP3    H237585   3.646   1.964   8.452 -0.4800 -0.9847 -0.8061
 4464TIP3   OH237586   2.513   1.463   9.414  0.4405 -0.0695  0.0384
 4464TIP3    H137587   2.530   1.372   9.437 -0.6980 -0.8589 -1.9828
 4464TIP3    H237588   2.598   1.497   9.387  0.9587 -0.3734  1.2229
 4465TIP3   OH237589   4.187   3.712   9.124  0.1775  0.2267 -0.0557
 4465TIP3    H137590   4.148   3.659   9.054 -1.3786 -0.6848  1.3934
 4465TIP3    H237591   4.115   3.767   9.155  0.9399  0.9053  0.5496
 4466TIP3   OH237592   3.726   7.677   7.207 -0.6091 -0.1627  0.4895
 4466TIP3    H137593   3.689   7.625   7.278 -0.8591 -1.4067 -0.5133
 4466TIP3    H237594   3.694   7.635   7.127  0.5981  0.4939 -0.3757
 4467TIP3   OH237595   1.934   4.039   6.911  0.6751 -0.1938 -0.9245
 4467TIP3    H137596   1.893   3.960   6.877  1.7430 -1.0194 -0.3844
 4467TIP3    H237597   1.966   4.085   6.833 -2.1644  1.0477 -1.4488
 4468TIP3   OH237598   1.108   0.914   8.323 -0.2531  0.2748  0.1330
 4468TIP3    H137599   1.090   0.986   8.383 -0.0805  0.5577 -0.1525
 4468TIP3    H237600   1.097   0.952   8.236 -1.3989 -0.3448 -0.0282
 4469TIP3   OH237601   7.459   7.124   6.686  0.6681 -0.9388 -0.3371
 4469TIP3    H137602   7.429   7.190   6.748  0.4685 -0.5159 -0.8678
 4469TIP3    H237603   7.381   7.105   6.632  1.2479 -0.0489 -1.5418
 4470TIP3   OH237604   2.203   0.445   7.902  0.7902 -0.3009 -0.5709
 4470TIP3    H137605   2.129   0.403   7.947 -0.1568  1.6710 -0.2030
 4470TIP3    H237606   2.279   0.418   7.953 -0.0839  0.5394  1.3046
 4471TIP3   OH237607   7.273   2.104   7.901  0.0941  0.1375  0.1057
 4471TIP3    H137608   7.235   2.190   7.920 -0.1474 -0.3366  1.9234
 4471TIP3    H237609   7.210   2.042   7.937  2.3752 -0.6884  3.0548
 4472TIP3   OH237610   1.222   4.977   7.367  0.0443 -0.6856 -0.2717
 4472TIP3    H137611   1.151   4.947   7.424  1.0752  0.1497  1.5143
 4472TIP3    H237612   1.237   5.068   7.393  0.6976 -0.3426 -1.7550
 4473TIP3   OH237613   7.038   2.793   8.635 -0.4779 -0.4418  0.1687
 4473TIP3    H137614   7.055   2.709   8.593  0.0495 -0.7436  0.9704
 4473TIP3    H237615   7.024   2.772   8.727 -2.9434  0.0623 -0.0335
 4474TIP3   OH237616   4.830   3.251   7.341  0.5259 -0.0303  0.8953
 4474TIP3    H137617   4.849   3.342   7.365  1.2799 -0.3985  1.7311
 4474TIP3    H237618   4.776   3.258   7.261 -0.0689  1.1605  1.3796
 4475TIP3   OH237619   7.399   4.763   8.165  0.1516 -0.3476  0.0758
 4475TIP3    H137620   7.396   4.672   8.193 -4.0926 -0.4583 -0.0392
 4475TIP3    H237621   7.492   4.786   8.167  1.8172 -5.3076 -2.2239
 4476TIP3   OH237622   5.629   6.495   7.016  0.2129 -0.1160 -0.2475
 4476TIP3    H137623   5.625   6.401   7.035 -0.9633 -0.4640 -1.9587
 4476TIP3    H237624   5.695   6.503   6.947  2.7629  0.8248  2.1060
 4477TIP3   OH237625   3.763   0.921   9.521 -0.3349 -0.6171  0.4729
 4477TIP3    H137626   3.684   0.962   9.556 -2.1800 -1.3451 -2.5254
 4477TIP3    H237627   3.802   0.987   9.465 -0.4910 -1.2083 -0.3553
 4478TIP3   OH237628   2.550   2.223   7.274  0.1287 -0.0635  0.2658
 4478TIP3    H137629   2.455   2.225   7.274  0.1125  0.4028  1.8691
 4478TIP3    H237630   2.576   2.315   7.266  0.4298 -0.1153  0.6099
 4479TIP3   OH237631   5.777   5.848   7.977 -0.6994 -0.0348  0.5607
 4479TIP3    H137632   5.802   5.786   7.908 -2.3573  0.5542 -0.6018
 4479TIP3    H237633   5.842   5.833   8.046  1.3304 -0.2767 -1.2979
 4480TIP3   OH237634   0.404   5.523   8.908 -0.3659  0.1445  0.2648
 4480TIP3    H137635   0.334   5.587   8.894  1.0979  1.4491 -1.6590
 4480TIP3    H237636   0.371   5.442   8.869 -0.5453  0.9598 -1.3698
 4481TIP3   OH237637   1.142   2.112   7.608  0.2899  0.4741 -0.1547
 4481TIP3    H137638   1.084   2.124   7.683 -0.1244 -0.0698 -0.3806
 4481TIP3    H237639   1.162   2.201   7.579 -2.4336  0.7403 -1.5779
 4482TIP3   OH237640   3.944   1.499   6.700 -0.4703 -0.2476  0.2735
 4482TIP3    H137641   3.949   1.409   6.735  0.9352 -0.9035 -1.4413
 4482TIP3    H237642   3.884   1.493   6.626 -1.6767  0.6329  1.1442
 4483TIP3   OH237643   1.205   4.024   7.364 -0.6887 -0.3050  0.1066
 4483TIP3    H137644   1.226   4.079   7.439  1.2065  1.0867 -1.3388
 4483TIP3    H237645   1.145   4.077   7.311 -1.3186 -0.9195  0.1903
 4484TIP3   OH237646   1.510   5.633   8.557  0.0279 -0.2220 -0.5855
 4484TIP3    H137647   1.577   5.674   8.612 -0.1509 -0.0856 -0.4690
 4484TIP3    H237648   1.510   5.541   8.584 -0.6116 -0.0034  0.2130
 4485TIP3   OH237649   3.248   3.413   8.168 -0.1896 -0.5597  0.4288
 4485TIP3    H137650   3.298   3.334   8.146 -0.4726 -0.2938 -1.3359
 4485TIP3    H237651   3.232   3.455   8.084  0.0134  1.4368  1.3196
 4486TIP3   OH237652   1.287   5.059   6.607 -0.4197 -0.4379 -0.0051
 4486TIP3    H137653   1.196   5.031   6.596 -0.3770 -0.3804 -0.4983
 4486TIP3    H237654   1.280   5.154   6.622 -0.6281 -0.7852  2.4751
 4487TIP3   OH237655   4.867   5.940   9.363 -0.3050 -0.0024 -0.1975
 4487TIP3    H137656   4.774   5.934   9.341 -0.5584  0.3864  0.7095
 4487TIP3    H237657   4.871   6.007   9.432  0.5566 -0.4758  0.2265
 4488TIP3   OH237658   4.320   1.612   8.576 -0.1748  0.4412  0.0015
 4488TIP3    H137659   4.389   1.667   8.613 -0.4816  2.1019 -1.7189
 4488TIP3    H237660   4.346   1.523   8.600  0.6220  1.2415  2.4349
 4489TIP3   OH237661   3.731   1.696   8.863  0.8434 -0.0168  0.1916
 4489TIP3    H137662   3.674   1.691   8.786  3.5555 -0.8586 -1.9015
 4489TIP3    H237663   3.747   1.790   8.875  0.5298  0.1156 -0.3842
 4490TIP3   OH237664   5.111   5.470   7.847 -0.0357 -0.3350 -0.2896
 4490TIP3    H137665   5.196   5.514   7.845 -1.6860  3.2346 -0.6809
 4490TIP3    H237666   5.094   5.455   7.940  0.7093 -0.3714 -0.1545
 4491TIP3   OH237667   1.356   7.291   8.480 -0.3273 -0.5848 -0.2274
 4491TIP3    H137668   1.416   7.314   8.409 -2.0436 -0.7632 -1.8275
 4491TIP3    H237669   1.287   7.358   8.475 -0.6117 -0.7512  1.1377
 4492TIP3   OH237670   6.765   4.543   8.329 -0.3403  0.1667  0.0479
 4492TIP3    H137671   6.818   4.503   8.260 -0.9707  0.6638 -0.7363
 4492TIP3    H237672   6.675   4.525   8.303 -0.5931  0.8767  0.4346
 4493TIP3   OH237673   6.803   3.804   9.329  0.3949  0.0397  0.1095
 4493TIP3    H137674   6.832   3.859   9.402  1.0064 -1.1536  0.8069
 4493TIP3    H237675   6.873   3.739   9.320 -0.1469 -0.4129 -0.9015
 4494TIP3   OH237676   0.272   0.116   7.652  0.2071 -0.0332  0.0722
 4494TIP3    H137677   0.346   0.160   7.692  0.0756 -0.4759  0.8251
 4494TIP3    H237678   0.205   0.183   7.643  0.5236  0.2534 -0.1540
 4495TIP3   OH237679   5.688   4.631   8.605 -0.0049  0.1579  0.0177
 4495TIP3    H137680   5.767   4.620   8.553 -0.0136  1.6496 -0.3624
 4495TIP3    H237681   5.669   4.543   8.640  0.0301 -0.9039 -2.4423
 4496TIP3   OH237682   1.303   0.208   7.689  0.0544  0.3843 -0.0093
 4496TIP3    H137683   1.299   0.253   7.605 -2.0221 -0.9139 -0.6676
 4496TIP3    H237684   1.263   0.269   7.751 -0.6795  0.3734 -0.4587
 4497TIP3   OH237685   0.976   6.670   9.524 -0.2830  0.1265  0.0084
 4497TIP3    H137686   1.047   6.605   9.529 -1.7153 -1.6024 -0.8899
 4497TIP3    H237687   1.021   6.754   9.519  1.6652 -0.7040  1.6865
 4498TIP3   OH237688   7.309   3.849   7.683  0.8377  0.6664 -0.0906
 4498TIP3    H137689   7.376   3.822   7.621  1.6840 -0.0634  1.0926
 4498TIP3    H237690   7.252   3.773   7.692 -0.0653  1.2231 -0.9514
 4499TIP3   OH237691   2.015   0.438   8.733 -0.1842 -0.1930 -0.2637
 4499TIP3    H137692   1.936   0.487   8.759 -1.6540 -1.1937 -2.5245
 4499TIP3    H237693   2.015   0.361   8.789  0.0489  0.5022  0.7346
 4500TIP3   OH237694   7.510   4.273   7.839  0.3615  0.6147  0.1506
 4500TIP3    H137695   7.567   4.315   7.903  0.2881 -0.1070  0.7053
 4500TIP3    H237696   7.447   4.223   7.891  0.2368  0.0955 -0.4816
 4501TIP3   OH237697   0.753   3.496   8.149  0.0607 -0.1160  0.4757
 4501TIP3    H137698   0.678   3.475   8.204  0.3819 -2.7902  0.0622
 4501TIP3    H237699   0.792   3.573   8.189 -1.9565  0.3764  1.6341
 4502TIP3   OH237700   0.683   5.073   7.651  0.1661 -0.2433  0.7296
 4502TIP3    H137701   0.603   5.110   7.612  0.3715 -0.2317  0.3100
 4502TIP3    H237702   0.691   4.986   7.612  0.4572 -0.1732  0.6269
 4503TIP3   OH237703   1.633   5.392   6.877  0.2463 -0.1196  0.6523
 4503TIP3    H137704   1.649   5.329   6.807  0.6158  0.3305  0.3275
 4503TIP3    H237705   1.538   5.391   6.889  0.1874 -0.2447  0.1877
 4504TIP3   OH237706   0.593   5.697   9.434  0.1649  0.1250  0.2452
 4504TIP3    H137707   0.602   5.792   9.425 -1.4595  0.1894 -1.2289
 4504TIP3    H237708   0.662   5.661   9.378 -0.2526  0.4676 -0.5014
 4505TIP3   OH237709   7.137   4.864   8.054 -0.1002  0.7430  0.7523
 4505TIP3    H137710   7.070   4.840   8.117 -0.3501 -0.6067  0.0044
 4505TIP3    H237711   7.220   4.841   8.097 -0.2879 -0.5575  0.4754
 4506TIP3   OH237712   0.114   1.709   7.555  0.2343  0.2015 -0.2240
 4506TIP3    H137713   0.069   1.720   7.639 -0.8907 -0.9284 -0.6490
 4506TIP3    H237714   0.191   1.656   7.576 -1.4550 -2.4080 -0.2631
 4507TIP3   OH237715   4.586   0.086   9.068  0.0326 -0.4333 -0.1925
 4507TIP3    H137716   4.578   0.052   8.979  0.5327 -0.9350 -0.0456
 4507TIP3    H237717   4.553   0.016   9.124 -2.1034  0.5786 -0.0673
 4508TIP3   OH237718   4.571   6.534   9.938 -0.1957  0.3246  0.4634
 4508TIP3    H137719   4.477   6.538   9.921 -0.5186  0.2784  2.0995
 4508TIP3    H237720   4.594   6.622   9.968  1.0087  1.3901 -2.9835
 4509TIP3   OH237721   2.476   6.148   7.627 -0.0246 -0.0279  0.1834
 4509TIP3    H137722   2.549   6.087   7.642  0.8161  0.4246 -1.7342
 4509TIP3    H237723   2.401   6.092   7.609  0.3088 -0.5028  0.2543
 4510TIP3   OH237724   2.969   2.078   8.685  0.3328  0.1538 -0.5794
 4510TIP3    H137725   2.914   2.154   8.701 -2.2989 -1.3646 -1.6710
 4510TIP3    H237726   3.046   2.091   8.741 -0.6683  2.8605  0.3268
 4511TIP3   OH237727   2.376   6.527   8.614 -0.4322  0.5607 -0.4323
 4511TIP3    H137728   2.296   6.573   8.638  0.9777  2.7227  0.4312
 4511TIP3    H237729   2.407   6.571   8.535 -0.6673 -1.0315 -1.4523
 4512TIP3   OH237730   2.941   4.873   8.107  0.1601 -0.4606 -0.0958
 4512TIP3    H137731   2.869   4.834   8.157  1.1372  0.2494  1.9514
 4512TIP3    H237732   2.900   4.901   8.025 -2.5103  1.9479  1.8576
 4513TIP3   OH237733   4.945   6.712   9.102  0.1980 -0.0286  0.5044
 4513TIP3    H137734   4.970   6.755   9.020 -0.0643 -0.2601  0.3055
 4513TIP3    H237735   5.023   6.662   9.128 -0.0978 -0.8598 -0.1889
 4514TIP3   OH237736   2.727   0.009   8.064  0.0679 -0.3577 -0.4872
 4514TIP3    H137737   2.799   0.072   8.055 -0.1237  0.1680  1.2630
 4514TIP3    H237738   2.761  -0.072   8.025  1.4539 -0.0059 -0.0818
 4515TIP3   OH237739   7.361   0.877   9.246 -0.1553 -0.0030 -0.0514
 4515TIP3    H137740   7.310   0.902   9.168 -0.7165 -0.6169  0.1147
 4515TIP3    H237741   7.296   0.861   9.313  0.2677 -0.6604  0.2073
 4516TIP3   OH237742   5.705   2.936   7.323 -0.3246 -0.1666 -0.5208
 4516TIP3    H137743   5.706   3.011   7.263 -2.1415  0.5581  0.2680
 4516TIP3    H237744   5.616   2.936   7.359  0.7442 -0.4678  2.3196
 4517TIP3   OH237745   5.240   3.614   8.034  0.6380 -0.1608  0.2273
 4517TIP3    H137746   5.198   3.536   7.997 -2.0196  0.9849  0.6830
 4517TIP3    H237747   5.327   3.614   7.994 -0.0908 -2.0996 -1.5632
 4518TIP3   OH237748   1.272   1.099   7.935  0.0468  0.2266 -0.6805
 4518TIP3    H137749   1.229   1.172   7.889 -2.2634  0.4392  1.5448
 4518TIP3    H237750   1.311   1.140   8.013  2.4592 -0.3436 -1.5262
 4519TIP3   OH237751   4.909   2.608   8.468 -0.2465 -0.4184  0.7970
 4519TIP3    H137752   4.838   2.555   8.432  0.6154 -0.2295 -1.2927
 4519TIP3    H237753   4.887   2.617   8.561 -1.9261 -1.9683  0.6037
 4520TIP3   OH237754   4.244   4.969   9.537  0.1335 -0.5739  0.2693
 4520TIP3    H137755   4.325   4.937   9.576 -0.5190  0.8127  2.9611
 4520TIP3    H237756   4.239   4.924   9.453  4.5437  0.5608 -0.8747
 4521TIP3   OH237757   3.300   6.176   7.981  0.2948 -0.2785  0.2452
 4521TIP3    H137758   3.323   6.242   7.915  0.1727 -1.3209 -0.8800
 4521TIP3    H237759   3.266   6.103   7.930 -1.6650 -0.3784  1.6015
 4522TIP3   OH237760   1.656   5.679   7.995  0.3322  0.1067 -0.2586
 4522TIP3    H137761   1.667   5.730   7.915  0.5582 -0.2854 -0.4818
 4522TIP3    H237762   1.563   5.657   7.997  0.3124  0.1785 -0.3720
 4523TIP3   OH237763   4.945   3.729   9.049 -0.1841  0.1762  0.2272
 4523TIP3    H137764   4.929   3.649   8.999 -0.7296 -0.1518  0.8977
 4523TIP3    H237765   4.954   3.699   9.140 -1.8734  0.9948  0.7082
 4524TIP3   OH237766   7.413   7.659   8.978 -0.4012 -0.1048  0.0445
 4524TIP3    H137767   7.489   7.710   9.005 -0.4921 -0.3405  0.7734
 4524TIP3    H237768   7.449   7.582   8.934 -0.2395  0.1383 -0.2466
 4525TIP3   OH237769   3.598   0.403   8.314 -0.2315 -0.2933  0.2353
 4525TIP3    H137770   3.620   0.312   8.334 -0.3360 -0.1579  1.0051
 4525TIP3    H237771   3.503   0.403   8.304 -0.0713 -0.6250 -1.7550
 4526TIP3   OH237772   6.403   2.293   8.031  0.2335  0.4915  0.6590
 4526TIP3    H137773   6.374   2.377   7.996  0.4522  1.0438  1.7750
 4526TIP3    H237774   6.416   2.239   7.953 -0.2291  1.3760 -0.0606
 4527TIP3   OH237775   3.019   5.320   9.614 -0.7813  0.0067 -0.2301
 4527TIP3    H137776   3.043   5.400   9.567 -1.1299 -0.5065 -1.3083
 4527TIP3    H237777   2.927   5.332   9.639 -1.0678 -0.3612 -1.0709
 4528TIP3   OH237778   2.855   2.051   7.651 -0.4929  0.2043 -0.6391
 4528TIP3    H137779   2.797   2.101   7.593 -1.1208 -0.1699 -0.3473
 4528TIP3    H237780   2.850   2.096   7.735 -0.8174 -0.1581 -0.4588
 4529TIP3   OH237781   2.780   3.372   8.423  0.0635 -0.7959  0.2106
 4529TIP3    H137782   2.718   3.392   8.493 -0.1301 -2.0540  0.4200
 4529TIP3    H237783   2.854   3.431   8.439 -0.3382 -0.4813  0.9650
 4530TIP3   OH237784   2.159   1.545   7.431  0.5203 -0.2262 -0.1655
 4530TIP3    H137785   2.069   1.565   7.457  0.4174  3.5249 -2.7520
 4530TIP3    H237786   2.153   1.518   7.340  2.0267  0.3979 -0.4796
 4531TIP3   OH237787   7.450   0.599   8.911  0.5998 -0.4659  0.3430
 4531TIP3    H137788   7.531   0.555   8.885  0.1290 -1.4964  0.5499
 4531TIP3    H237789   7.421   0.550   8.988  0.9526  1.2998  1.6680
 4532TIP3   OH237790   3.631   7.653   9.478 -0.1807 -0.1731 -0.0410
 4532TIP3    H137791   3.611   7.689   9.392 -0.3027  0.9784  0.4608
 4532TIP3    H237792   3.678   7.722   9.523  0.1426 -0.8721  0.7279
 4533TIP3   OH237793   5.150   0.571   8.642 -0.0737  0.4589 -0.0232
 4533TIP3    H137794   5.116   0.482   8.649  0.3586  0.3328  0.4552
 4533TIP3    H237795   5.177   0.578   8.550 -2.2393  0.8754 -0.6931
 4534TIP3   OH237796   6.155   7.534   8.498 -0.6422 -0.4029  0.1928
 4534TIP3    H137797   6.222   7.469   8.520  0.4295  0.9337  1.0275
 4534TIP3    H237798   6.080   7.510   8.552  1.1058  1.3237  3.7452
 4535TIP3   OH237799   2.279   1.080   9.043  0.0279  0.2640  0.3342
 4535TIP3    H137800   2.290   1.130   8.963 -0.5119 -0.7110 -0.3743
 4535TIP3    H237801   2.277   1.145   9.113  0.1781  1.1463 -0.4722
 4536TIP3   OH237802   2.414   7.423   8.886  0.2234 -0.3164  0.5217
 4536TIP3    H137803   2.389   7.458   8.972 -0.6099  0.2499  0.0572
 4536TIP3    H237804   2.332   7.395   8.846  0.6165 -0.6661 -0.0614
 4537TIP3   OH237805   4.765   0.832   8.798 -0.1957 -0.0639  0.1013
 4537TIP3    H137806   4.753   0.924   8.821 -0.4584 -0.1242  0.2028
 4537TIP3    H237807   4.856   0.813   8.821 -0.4828 -0.1564  1.2010
 4538TIP3   OH237808   5.863   2.412   8.995  0.5362 -0.2401 -0.0182
 4538TIP3    H137809   5.863   2.326   8.953  1.1675 -0.4772  0.4412
 4538TIP3    H237810   5.773   2.443   8.987  0.7985  0.0685 -2.2094
 4539TIP3   OH237811   5.915   3.823   7.503  0.3907  0.1294  0.5771
 4539TIP3    H137812   5.943   3.912   7.483  1.6509  0.2790  2.7482
 4539TIP3    H237813   5.958   3.802   7.585 -1.3140 -1.8401  1.0510
 4540TIP3   OH237814   2.364   6.763   7.675  0.2830  0.3009  0.2381
 4540TIP3    H137815   2.290   6.708   7.700 -0.8677  0.5754 -2.2207
 4540TIP3    H237816   2.437   6.730   7.727 -1.1865 -1.0779  1.5427
 4541TIP3   OH237817   0.028   6.789   8.471 -0.1197  0.2416  0.0788
 4541TIP3    H137818   0.082   6.840   8.411  0.4910 -0.0900  0.3335
 4541TIP3    H237819  -0.060   6.795   8.435 -0.0477  1.3894  0.0491
 4542TIP3   OH237820   6.755   6.438   7.708 -0.5369  0.3075  0.2067
 4542TIP3    H137821   6.808   6.462   7.632 -0.1095  1.4678  0.8488
 4542TIP3    H237822   6.818   6.401   7.770 -0.6004  0.9578  0.6645
 4543TIP3   OH237823   2.529   2.061   8.643  0.1793  0.2142 -0.4397
 4543TIP3    H137824   2.607   2.044   8.695 -0.9133  1.1649  1.6250
 4543TIP3    H237825   2.518   1.982   8.590  2.8018  0.2765 -1.2286
 4544TIP3   OH237826   6.911   7.303   8.218  0.0979 -0.3659  0.1802
 4544TIP3    H137827   6.890   7.378   8.162 -0.1093  0.7984  1.7357
 4544TIP3    H237828   7.004   7.288   8.204  0.0618 -0.0574 -0.4339
 4545TIP3   OH237829   4.230   6.329   6.912  0.1216 -0.2682 -0.3298
 4545TIP3    H137830   4.240   6.238   6.941 -2.4485 -0.7417 -0.6960
 4545TIP3    H237831   4.142   6.354   6.941  1.2188  2.5952  0.9170
 4546TIP3   OH237832   6.868   4.690   8.562  0.2850  0.2121 -0.4457
 4546TIP3    H137833   6.828   4.652   8.484  1.5106  1.7272 -1.8886
 4546TIP3    H237834   6.940   4.631   8.584  0.5683  0.3181 -1.0821
 4547TIP3   OH237835   6.012   2.029   9.143 -0.8541  0.1007 -0.3466
 4547TIP3    H137836   5.976   2.035   9.231  0.4768 -0.4306  0.2665
 4547TIP3    H237837   5.975   1.949   9.106  0.1640 -0.7818  0.5080
 4548TIP3   OH237838   2.579   6.096   6.935  0.4067 -0.0184 -0.2945
 4548TIP3    H137839   2.499   6.148   6.944  0.8534  1.2487 -2.6694
 4548TIP3    H237840   2.550   6.012   6.899 -0.1046 -0.6369  1.5045
 4549TIP3   OH237841   2.053   4.323   9.230  0.5988 -0.0882 -0.1635
 4549TIP3    H137842   2.001   4.249   9.259 -1.3743  1.1527 -0.3797
 4549TIP3    H237843   2.007   4.356   9.152  0.1860  2.5889  1.0861
 4550TIP3   OH237844   6.632   5.969   9.398  0.1677 -0.4498  0.0846
 4550TIP3    H137845   6.675   6.054   9.411  3.0286 -1.7090 -0.3236
 4550TIP3    H237846   6.689   5.923   9.336 -1.0136 -2.8533  0.6776
 4551TIP3   OH237847   1.502   1.716   7.790  0.4676  0.2791 -0.5697
 4551TIP3    H137848   1.587   1.738   7.829  1.1244 -0.1282 -1.7179
 4551TIP3    H237849   1.521   1.704   7.697 -0.6476 -0.9028 -0.6767
 4552TIP3   OH237850   7.295   3.585   6.869  0.4149  0.0706  0.7603
 4552TIP3    H137851   7.279   3.573   6.775  0.4095  2.0379  0.4623
 4552TIP3    H237852   7.252   3.511   6.911 -3.6150  1.4513 -0.4666
 4553TIP3   OH237853   7.678   0.254   7.640  0.2893  0.1128  0.3270
 4553TIP3    H137854   7.685   0.204   7.558 -1.5192  0.6821 -0.2229
 4553TIP3    H237855   7.623   0.199   7.696  0.8057  0.1270  0.8536
 4554TIP3   OH237856   7.032   5.826   8.218  0.7638  0.2937 -0.0819
 4554TIP3    H137857   6.968   5.756   8.201 -0.0578  1.2230 -0.8803
 4554TIP3    H237858   7.113   5.793   8.181  0.1830  0.1029 -1.2304
 4555TIP3   OH237859   7.644   7.473   9.178 -0.2246 -0.1277 -0.2977
 4555TIP3    H137860   7.739   7.460   9.177 -0.0320  1.1284  0.0419
 4555TIP3    H237861   7.608   7.385   9.175  0.9563 -0.6735  0.5792
 4556TIP3   OH237862   1.597   6.363   8.724 -0.2275  0.7649  0.0413
 4556TIP3    H137863   1.680   6.317   8.737 -0.6400  0.0924  0.3534
 4556TIP3    H237864   1.611   6.415   8.645  0.0461 -0.3963 -0.7034
 4557TIP3   OH237865   2.506   3.746   7.594 -0.2182 -0.0408 -0.1859
 4557TIP3    H137866   2.432   3.785   7.640 -0.0710 -0.9216  0.8069
 4557TIP3    H237867   2.582   3.766   7.649 -0.0027 -0.8618 -0.1818
 4558TIP3   OH237868   7.320   4.372   8.621  0.7351 -0.3034  0.6108
 4558TIP3    H137869   7.408   4.348   8.592 -0.0563 -2.1411 -0.5305
 4558TIP3    H237870   7.298   4.306   8.687  0.2245  0.1217  0.8702
 4559TIP3   OH237871   5.276   4.516   7.364 -0.3678 -0.0295  0.5277
 4559TIP3    H137872   5.232   4.432   7.379 -0.7118 -0.4319 -2.1769
 4559TIP3    H237873   5.206   4.581   7.369 -0.8944 -0.4008 -1.3622
 4560TIP3   OH237874   6.788   6.542   8.464  0.5294 -0.2456 -0.4494
 4560TIP3    H137875   6.872   6.585   8.478  1.2531 -1.6590 -0.2647
 4560TIP3    H237876   6.796   6.500   8.379 -0.5492  0.8020 -1.1040
 4561TIP3   OH237877   1.937   2.925   7.709 -0.3280 -0.0991  0.1985
 4561TIP3    H137878   1.892   2.870   7.645 -1.6109  1.5762 -0.4044
 4561TIP3    H237879   1.866   2.964   7.761  0.6455 -1.1996  2.5279
 4562TIP3   OH237880   5.125   0.022   8.380 -0.0400 -0.0864 -0.1983
 4562TIP3    H137881   5.188  -0.040   8.418  0.9198  1.6526  1.2201
 4562TIP3    H237882   5.179   0.097   8.353 -1.2992  0.7018 -0.6063
 4563TIP3   OH237883   1.000   0.371   8.697 -0.1310 -0.2277  0.0127
 4563TIP3    H137884   1.075   0.320   8.727  0.9204  2.0629  1.6088
 4563TIP3    H237885   0.935   0.362   8.767 -0.2780 -0.1024 -0.1062
 4564TIP3   OH237886   6.301   5.741   9.458 -0.6822  0.1355  0.1221
 4564TIP3    H137887   6.262   5.824   9.487  0.5719  1.3411 -1.4448
 4564TIP3    H237888   6.246   5.713   9.385 -2.3033 -1.5540  1.8557
 4565TIP3   OH237889   5.501   4.183   9.589  0.0731 -0.4151 -0.1598
 4565TIP3    H137890   5.487   4.139   9.673  0.6225  1.2615  0.8500
 4565TIP3    H237891   5.421   4.164   9.539 -0.3526 -1.2674  0.8004
 4566TIP3   OH237892   5.083   4.785   6.664  0.5947 -0.4039  0.3017
 4566TIP3    H137893   5.174   4.801   6.686  0.4722 -1.1955  1.4703
 4566TIP3    H237894   5.073   4.820   6.576  2.1850 -0.8733 -0.0943
 4567TIP3   OH237895   1.439   6.688   8.606  0.4374  0.1906 -0.1133
 4567TIP3    H137896   1.378   6.759   8.622 -1.1628 -1.3383  0.9907
 4567TIP3    H237897   1.525   6.725   8.627 -0.4314  1.5608  1.2551
 4568TIP3   OH237898   4.942   3.926   9.437 -0.3798  0.1894 -0.3769
 4568TIP3    H137899   4.859   3.958   9.472 -0.0528  1.2205 -0.4916
 4568TIP3    H237900   4.999   4.003   9.437  1.0868 -0.8192  1.1650
 4569TIP3   OH237901   2.545   3.895   6.733  0.0682 -0.0199 -0.2214
 4569TIP3    H137902   2.475   3.862   6.676  2.4235 -0.7014 -2.9012
 4569TIP3    H237903   2.526   3.989   6.741 -0.8812 -0.1033 -1.2645
 4570TIP3   OH237904   1.757   1.111   8.976 -0.6240  0.2957 -0.0157
 4570TIP3    H137905   1.772   1.185   9.035  1.6591  0.5931 -0.8991
 4570TIP3    H237906   1.818   1.044   9.006  0.8780  0.5909 -2.1988
 4571TIP3   OH237907   0.275   2.678   7.738  0.2758  0.2272  0.1484
 4571TIP3    H137908   0.346   2.624   7.773  0.9279 -0.2175 -1.7221
 4571TIP3    H237909   0.243   2.628   7.663  0.7046  2.2515 -1.4704
 4572TIP3   OH237910   0.247   4.463   8.738 -0.0755 -0.5684 -0.3053
 4572TIP3    H137911   0.283   4.392   8.790  1.3732  0.1220 -0.3200
 4572TIP3    H237912   0.154   4.467   8.763  0.3480 -0.9450  1.4285
 4573TIP3   OH237913   0.828   4.226   7.836 -0.3973 -0.3251  0.5599
 4573TIP3    H137914   0.864   4.226   7.925 -0.0562  1.0959  0.4502
 4573TIP3    H237915   0.738   4.197   7.846  0.3801 -2.7728  1.0055
 4574TIP3   OH237916   5.088   0.918   7.929  0.0214  0.4843  0.4811
 4574TIP3    H137917   5.142   0.894   7.854 -0.8370 -2.6158  0.7110
 4574TIP3    H237918   5.150   0.924   8.002  0.3826 -1.0436  0.3485
 4575TIP3   OH237919   0.795   0.850   7.577 -0.5010 -0.0657  0.4327
 4575TIP3    H137920   0.796   0.883   7.487  0.0383  1.5018  0.9766
 4575TIP3    H237921   0.702   0.852   7.603 -0.7703 -1.3670 -0.3525
 4576TIP3   OH237922   3.553   6.055   7.669 -0.1316 -0.3687  0.3918
 4576TIP3    H137923   3.611   5.984   7.643 -1.3464 -1.5026  0.7033
 4576TIP3    H237924   3.597   6.096   7.744 -0.0506 -1.6410  1.0650
 4577TIP3   OH237925   2.354   5.174   9.269  0.0747 -0.2262  0.4427
 4577TIP3    H137926   2.338   5.082   9.293  0.1503 -0.1722  0.7037
 4577TIP3    H237927   2.300   5.224   9.330  1.0855 -0.0490  1.2191
 4578TIP3   OH237928   5.260   2.692   6.823  0.0263  0.0107  0.5806
 4578TIP3    H137929   5.189   2.630   6.837 -0.1942 -0.2759 -1.5021
 4578TIP3    H237930   5.331   2.639   6.788  0.1488  0.7792 -0.3600
 4579TIP3   OH237931   3.906   7.032   7.971  0.0229  0.2833  0.4437
 4579TIP3    H137932   3.883   7.120   7.998 -3.0642 -0.1428 -0.3513
 4579TIP3    H237933   3.886   6.977   8.047 -0.2141  0.0441  0.2118
 4580TIP3   OH237934   2.230   4.230   8.256  0.7706  0.0636 -0.2036
 4580TIP3    H137935   2.237   4.252   8.163 -1.6820 -2.2087 -1.0357
 4580TIP3    H237936   2.185   4.306   8.294  1.2969  0.7795 -0.9537
 4581TIP3   OH237937   2.608   1.767   9.390 -0.1163  0.1348 -0.3310
 4581TIP3    H137938   2.667   1.803   9.456 -2.3032  1.2323  1.1748
 4581TIP3    H237939   2.570   1.689   9.431  1.0295 -1.1783 -1.6927
 4582TIP3   OH237940   0.211   4.125   7.125 -0.0534  0.7537 -0.1857
 4582TIP3    H137941   0.150   4.091   7.190  1.1481  0.1535  0.6832
 4582TIP3    H237942   0.196   4.072   7.047  0.6592 -0.7414  0.6358
 4583TIP3   OH237943   1.046   2.835   7.058  0.0457 -0.3316 -0.2796
 4583TIP3    H137944   1.036   2.740   7.048  0.6913 -0.3929 -0.3585
 4583TIP3    H237945   1.124   2.857   7.008 -0.1353  0.2544 -0.3108
 4584TIP3   OH237946   5.549   1.468   9.369 -0.3993 -0.1480  0.2272
 4584TIP3    H137947   5.587   1.381   9.370  0.0443  0.0295  1.6260
 4584TIP3    H237948   5.456   1.455   9.389 -0.5637 -0.3659 -0.6247
 4585TIP3   OH237949   7.506   7.284   8.874 -0.0722 -0.0183  0.1432
 4585TIP3    H137950   7.489   7.292   8.967 -0.8345 -1.3782  0.1550
 4585TIP3    H237951   7.499   7.190   8.856  3.9739 -0.3890 -0.5661
 4586TIP3   OH237952   3.073   4.984   8.331 -0.2746 -0.2777 -0.1581
 4586TIP3    H137953   3.045   4.941   8.250 -2.1759  1.2202 -0.3702
 4586TIP3    H237954   3.119   5.063   8.301 -0.4398 -0.0398  0.2063
 4587TIP3   OH237955   1.885   0.827   9.454  0.3543  0.0563  0.5793
 4587TIP3    H137956   1.970   0.853   9.489  1.3557  0.8030 -2.1298
 4587TIP3    H237957   1.871   0.738   9.487  1.9854  0.0661  1.3812
 4588TIP3   OH237958   5.269   0.581   8.400 -0.7393  0.0948 -0.1839
 4588TIP3    H137959   5.356   0.615   8.380 -0.4122  0.7538  2.0563
 4588TIP3    H237960   5.217   0.601   8.322  0.9788  0.1291 -1.3693
 4589TIP3   OH237961   4.206   7.342   9.112 -0.3886 -0.1037 -0.2890
 4589TIP3    H137962   4.113   7.344   9.093  0.0834 -0.0017 -3.0562
 4589TIP3    H237963   4.237   7.259   9.077  0.5727 -0.1743  0.6570
 4590TIP3   OH237964   7.522   7.280   6.465  0.5929  0.3115  0.0835
 4590TIP3    H137965   7.513   7.375   6.458  0.3646  0.3367  0.6855
 4590TIP3    H237966   7.434   7.249   6.488  0.5919 -0.0784 -0.4341
 4591TIP3   OH237967   2.193   6.203   7.984 -1.1592 -0.0552 -0.2512
 4591TIP3    H137968   2.239   6.139   8.038 -0.5329  1.7758  1.5271
 4591TIP3    H237969   2.104   6.206   8.019 -1.9156 -1.5592 -1.8654
 4592TIP3   OH237970   2.136   3.978   6.356  0.3715  0.1869 -0.5751
 4592TIP3    H137971   2.088   4.060   6.347 -0.1452  0.0142  0.4856
 4592TIP3    H237972   2.226   4.005   6.377 -0.0653  0.5032  1.0309
 4593TIP3   OH237973   4.613   2.536   8.359  0.2477  0.3353  0.0245
 4593TIP3    H137974   4.663   2.457   8.341  0.2462  0.2113  0.5329
 4593TIP3    H237975   4.528   2.521   8.318  0.1706 -0.0247  0.3068
 4594TIP3   OH237976   4.478   0.238   7.557  0.5337 -0.4989 -0.0780
 4594TIP3    H137977   4.551   0.223   7.497  2.0323 -0.1546  1.5823
 4594TIP3    H237978   4.490   0.327   7.589  0.1539 -0.8750  1.1990
 4595TIP3   OH237979   6.159   4.292   7.799  0.5297 -0.5204  0.6885
 4595TIP3    H137980   6.163   4.204   7.761  2.0398 -0.0505 -0.3189
 4595TIP3    H237981   6.087   4.287   7.862 -1.3971 -1.6538 -1.4478
 4596TIP3   OH237982   0.919   4.481   8.585  0.2383 -0.2671 -0.2746
 4596TIP3    H137983   0.979   4.518   8.650  3.0617 -0.0190 -2.7876
 4596TIP3    H237984   0.933   4.387   8.590 -0.2174 -0.3247  0.0295
 4597TIP3   OH237985   6.408   5.688   7.607 -0.0640  0.4582  0.3692
 4597TIP3    H137986   6.441   5.611   7.560 -2.5947  0.0567 -0.8960
 4597TIP3    H237987   6.401   5.756   7.540 -1.5215  0.5849  0.6189
 4598TIP3   OH237988   6.741   6.205   8.088  0.4809 -0.6671  0.3091
 4598TIP3    H137989   6.826   6.162   8.097 -0.0350 -1.8070 -0.1309
 4598TIP3    H237990   6.696   6.156   8.020  0.1534  1.0492 -0.7694
 4599TIP3   OH237991   1.817   2.875   9.014  0.1299 -0.5767 -0.0546
 4599TIP3    H137992   1.888   2.820   8.980  0.0205  0.3532 -1.9614
 4599TIP3    H237993   1.837   2.963   8.980  0.0971  0.5469  2.5772
 4600TIP3   OH237994   2.153   4.964   7.801  0.5489 -0.2405  0.1622
 4600TIP3    H137995   2.173   4.972   7.895  0.1176 -3.0782  0.5871
 4600TIP3    H237996   2.077   4.906   7.798  1.7046 -1.7668 -1.9997
 4601TIP3   OH237997   2.578   2.789   7.037 -0.1153 -0.1490 -0.1399
 4601TIP3    H137998   2.498   2.747   7.069 -0.3058 -0.1196 -0.5694
 4601TIP3    H237999   2.622   2.721   6.985  0.1753 -0.1865  0.1511
 4602TIP3   OH238000   5.932   2.822   7.406  0.0421 -0.0988  0.0494
 4602TIP3    H138001   5.969   2.797   7.322  0.5394  0.2934  0.1533
 4602TIP3    H238002   5.844   2.854   7.385  0.2052  0.0995 -0.3294
 4603TIP3   OH238003   0.032   6.397   7.719  0.1183  0.1587 -0.3128
 4603TIP3    H138004   0.018   6.404   7.813 -0.2860  0.1985 -0.3764
 4603TIP3    H238005   0.087   6.472   7.698 -0.4847  0.6242 -0.2441
 4604TIP3   OH238006   1.206   3.770   7.175 -0.1724  0.3392  0.5514
 4604TIP3    H138007   1.240   3.840   7.231 -0.4470  0.5833  0.4161
 4604TIP3    H238008   1.262   3.772   7.098 -1.0965  1.4077 -0.1237
 4605TIP3   OH238009   4.176   1.249   7.631 -0.1212 -0.3895  0.2911
 4605TIP3    H138010   4.240   1.252   7.703  0.0136  1.7123  0.1682
 4605TIP3    H238011   4.101   1.201   7.667  0.2708 -0.0815  1.5677
 4606TIP3   OH238012   3.509   5.766   7.866  0.2630 -0.0930  0.2208
 4606TIP3    H138013   3.471   5.776   7.953  2.2796 -0.3729  1.1898
 4606TIP3    H238014   3.603   5.769   7.880  0.6872 -1.6258 -1.7543
 4607TIP3   OH238015   2.792   4.034   7.648 -0.6085  0.1955  0.9597
 4607TIP3    H138016   2.728   3.992   7.590 -0.6683 -1.8768  2.4268
 4607TIP3    H238017   2.800   3.974   7.722  1.2423  1.6003  1.9674
 4608TIP3   OH238018   6.820   6.547   6.605  0.0282 -0.2728  0.4772
 4608TIP3    H138019   6.767   6.578   6.679 -0.5674 -1.1082  0.4111
 4608TIP3    H238020   6.812   6.617   6.540  0.6649  0.5284  1.2423
 4609TIP3   OH238021   2.628   5.796   9.522  0.0053  0.4323  0.4412
 4609TIP3    H138022   2.601   5.733   9.589  0.6149  0.4663  0.7242
 4609TIP3    H238023   2.699   5.845   9.563  0.1861  0.6481 -0.1317
 4610TIP3   OH238024   0.710   2.000   7.672  0.0580  0.0042 -0.0311
 4610TIP3    H138025   0.724   2.072   7.610  0.2376 -0.4562 -0.5305
 4610TIP3    H238026   0.750   2.031   7.753  0.5858  0.2688 -0.3862
 4611TIP3   OH238027   0.096   2.708   8.090 -0.0825 -0.5633 -0.0406
 4611TIP3    H138028   0.094   2.789   8.039  0.8864 -0.0681  0.6689
 4611TIP3    H238029   0.090   2.638   8.026  2.0776  0.0196 -0.9317
 4612TIP3   OH238030   5.538   4.968   7.186  0.3054 -0.1748  0.0550
 4612TIP3    H138031   5.513   5.046   7.136 -1.6213  0.5693  2.0364
 4612TIP3    H238032   5.481   4.899   7.152 -0.2493  0.0691  0.4840
 4613TIP3   OH238033   2.136   6.045   7.717  0.3440 -0.1756 -0.2551
 4613TIP3    H138034   2.147   6.136   7.742  0.6660 -0.3227  0.1687
 4613TIP3    H238035   2.084   6.047   7.637 -0.1305  0.3448  0.0677
 4614TIP3   OH238036   0.157   3.704   6.480 -0.1567  0.3242 -0.3380
 4614TIP3    H138037   0.159   3.799   6.471  0.9192  0.2878 -0.5419
 4614TIP3    H238038   0.203   3.687   6.562 -1.2391  0.0308  0.2272
 4615TIP3   OH238039   2.666   7.463   8.816 -0.3343 -0.2740  0.2587
 4615TIP3    H138040   2.579   7.454   8.855 -0.0483 -0.5491  0.8517
 4615TIP3    H238041   2.651   7.509   8.733 -1.1142 -0.8751  0.0596
 4616TIP3   OH238042   4.420   5.267   8.593 -0.5753  0.3675 -0.6989
 4616TIP3    H138043   4.433   5.202   8.663 -2.4345  1.2404  0.5431
 4616TIP3    H238044   4.491   5.330   8.606  0.6319 -0.8272 -1.2710
 4617TIP3   OH238045   7.077   2.961   8.061 -0.1981 -0.1836  0.5815
 4617TIP3    H138046   7.167   2.979   8.034 -0.4668 -0.1711 -0.3431
 4617TIP3    H238047   7.081   2.954   8.156  0.8813 -0.7672  0.5083
 4618TIP3   OH238048   5.791   5.323   8.397  0.9467  0.1604 -0.1642
 4618TIP3    H138049   5.696   5.331   8.391  1.0339  0.7969 -0.7444
 4618TIP3    H238050   5.807   5.229   8.401  0.4005 -0.0460 -1.9986
 4619TIP3   OH238051   3.815   4.104   9.262  0.6677 -0.3622  0.3046
 4619TIP3    H138052   3.781   4.174   9.318  1.7390  0.8823 -0.5556
 4619TIP3    H238053   3.739   4.047   9.247 -0.5648  1.3017 -0.0081
 4620TIP3   OH238054   4.835   4.538   8.127  0.4562  0.2291  0.2440
 4620TIP3    H138055   4.791   4.490   8.197  1.8440  0.0841  1.0560
 4620TIP3    H238056   4.765   4.585   8.082 -0.4838  0.2184  1.6440
 4621TIP3   OH238057   4.590   6.077   8.403 -0.6180 -0.0273 -0.7720
 4621TIP3    H138058   4.636   6.161   8.406 -0.3530 -0.1941  0.3078
 4621TIP3    H238059   4.631   6.031   8.330  1.8928 -0.6746  0.9041
 4622TIP3   OH238060   5.685   7.238   7.541  0.2490 -0.5894  0.3554
 4622TIP3    H138061   5.732   7.168   7.497  0.8646 -0.6540  1.0878
 4622TIP3    H238062   5.742   7.315   7.532  0.3702 -0.5973  1.0049
 4623TIP3   OH238063   1.985   0.119   9.123  0.4500  0.5539 -0.0237
 4623TIP3    H138064   1.962   0.210   9.141  2.8104  0.9758  1.2676
 4623TIP3    H238065   2.041   0.094   9.196 -0.8084 -2.2526  0.0954
 4624TIP3   OH238066   5.439   0.386   8.101 -0.3503  0.0151  0.1955
 4624TIP3    H138067   5.396   0.309   8.063  2.0428 -0.1843 -2.4979
 4624TIP3    H238068   5.408   0.459   8.047 -0.7238  0.5635  1.1410
 4625TIP3   OH238069   5.921   3.036   8.668  0.3093  0.0346  0.0604
 4625TIP3    H138070   5.886   3.052   8.580  0.5607 -0.6478 -0.1706
 4625TIP3    H238071   5.899   2.944   8.686  0.1634  0.2004  0.7605
 4626TIP3   OH238072   0.306   6.254   7.622  0.0424  0.7245 -0.0504
 4626TIP3    H138073   0.247   6.303   7.565 -1.1584 -1.4352 -0.7870
 4626TIP3    H238074   0.272   6.268   7.710 -0.2537  1.2430 -0.2437
 4627TIP3   OH238075   5.673   1.757   7.370 -0.1815  0.4915 -0.3943
 4627TIP3    H138076   5.656   1.845   7.405  0.4952  0.4326  0.0969
 4627TIP3    H238077   5.635   1.759   7.282 -0.2162  1.2605 -0.3695
 4628TIP3   OH238078   0.510   2.252   8.898  0.2999  0.5908  0.2701
 4628TIP3    H138079   0.501   2.183   8.833  2.3957  3.3183 -3.2646
 4628TIP3    H238080   0.601   2.247   8.927  0.8064  2.4082 -0.8630
 4629TIP3   OH238081   2.902   2.420   9.240  0.0008 -0.2279 -0.5204
 4629TIP3    H138082   2.850   2.500   9.244 -0.5346 -0.5827 -0.0243
 4629TIP3    H238083   2.855   2.359   9.297  1.1957 -0.4305  0.2779
 4630TIP3   OH238084   2.156   1.607   9.412 -0.0660  0.4244  0.2225
 4630TIP3    H138085   2.093   1.677   9.395 -0.4640 -0.3716 -2.0212
 4630TIP3    H238086   2.216   1.643   9.477 -0.2669  2.8514 -0.8219
 4631TIP3   OH238087   2.729   2.502   7.733  0.0584 -0.2434 -0.2700
 4631TIP3    H138088   2.798   2.560   7.765  0.5769 -0.9231 -0.1340
 4631TIP3    H238089   2.653   2.525   7.787  0.3010  0.1866 -0.1004
 4632TIP3   OH238090   4.818   2.528   8.990  0.4870  0.2271  0.6291
 4632TIP3    H138091   4.846   2.616   9.015  2.5661 -0.9179  2.5937
 4632TIP3    H238092   4.772   2.494   9.067 -1.8325  0.1086 -0.6972
 4633TIP3   OH238093   7.486   2.041   9.398 -0.5760  0.0457 -1.0309
 4633TIP3    H138094   7.556   1.994   9.444 -0.8709  0.7364  0.1751
 4633TIP3    H238095   7.522   2.128   9.381 -0.5849 -0.1049 -1.8436
 4634TIP3   OH238096   4.841   0.447   8.328  0.4720  0.1569 -0.3788
 4634TIP3    H138097   4.918   0.407   8.289  0.3856 -2.3274  1.7249
 4634TIP3    H238098   4.871   0.531   8.361  1.9645 -0.2421 -0.6670
 4635TIP3   OH238099   1.769   5.514   7.163 -0.3823 -0.1456 -0.5486
 4635TIP3    H138100   1.690   5.544   7.207 -0.2748 -1.5411  0.6617
 4635TIP3    H238101   1.763   5.552   7.075 -0.8802  2.2426  0.4384
 4636TIP3   OH238102   6.804   2.880   7.475  0.3940 -0.3743 -0.1261
 4636TIP3    H138103   6.720   2.900   7.434  0.8841  1.0352 -0.5113
 4636TIP3    H238104   6.824   2.959   7.526  0.5358 -1.4763  1.6025
 4637TIP3   OH238105   4.843   5.620   9.670 -0.0649 -0.2893 -0.5069
 4637TIP3    H138106   4.827   5.688   9.736  1.6327 -0.2688 -0.0498
 4637TIP3    H238107   4.786   5.642   9.597 -0.3326  1.0026  0.0738
 4638TIP3   OH238108   0.125   2.782   7.065  0.1809 -0.3575  0.0905
 4638TIP3    H138109   0.129   2.728   7.144 -1.3577 -0.5593  0.0560
 4638TIP3    H238110   0.032   2.803   7.054  0.4892  0.5318 -1.0926
 4639TIP3   OH238111   4.255   0.923   8.101 -0.1452  0.2456 -0.3238
 4639TIP3    H138112   4.192   0.919   8.029 -1.7323 -0.3012  1.0248
 4639TIP3    H238113   4.278   0.831   8.118 -1.6435  0.1405  1.3753
 4640TIP3   OH238114   6.536   6.508   8.562 -0.7313 -0.0279 -0.0798
 4640TIP3    H138115   6.623   6.502   8.523  0.0440  1.4426  1.3341
 4640TIP3    H238116   6.494   6.424   8.539  1.6803 -1.5358  0.6855
 4641TIP3   OH238117   2.485   5.208   7.831  0.0995 -0.1045  0.1290
 4641TIP3    H138118   2.402   5.251   7.850 -0.0384 -0.5306  0.5372
 4641TIP3    H238119   2.470   5.163   7.748 -0.3387 -0.7823  0.5522
 4642TIP3   OH238120   4.024   1.286   7.280 -0.1298 -0.6195  0.2685
 4642TIP3    H138121   3.953   1.282   7.217  1.5458 -2.3038 -1.6597
 4642TIP3    H238122   4.020   1.202   7.326 -0.1566 -0.1994  1.0436
 4643TIP3   OH238123   2.649   3.488   7.612  0.4263  0.5652 -0.2847
 4643TIP3    H138124   2.618   3.397   7.612 -0.1418  0.7557 -0.0473
 4643TIP3    H238125   2.569   3.541   7.606  0.6838  1.0637  0.4896
 4644TIP3   OH238126   3.931   3.723   9.545 -0.2234  0.0108  0.0358
 4644TIP3    H138127   3.842   3.716   9.580 -0.7058 -0.4712 -1.2350
 4644TIP3    H238128   3.963   3.632   9.544  1.1401  0.3673  2.5213
 4645TIP3   OH238129   2.225   2.918   7.683  0.0257  0.1516  0.5508
 4645TIP3    H138130   2.248   2.827   7.663  0.4946  0.6477 -1.4677
 4645TIP3    H238131   2.131   2.915   7.702 -0.0230 -0.7247  0.2357
 4646TIP3   OH238132   2.479   6.969   9.008 -0.4073  0.4200 -0.2204
 4646TIP3    H138133   2.518   6.929   9.085  2.0308  0.8527 -1.1293
 4646TIP3    H238134   2.547   7.029   8.975 -1.4863  0.5264 -2.4595
 4647TIP3   OH238135   6.213   0.525   9.484  0.1506  0.0272 -0.4445
 4647TIP3    H138136   6.208   0.516   9.389 -2.0196  0.2318 -0.4156
 4647TIP3    H238137   6.238   0.616   9.499  3.1081 -0.6322 -0.7475
 4648TIP3   OH238138   2.453   2.308   7.733 -0.7266 -0.5372 -0.4335
 4648TIP3    H138139   2.381   2.327   7.793 -1.5090 -1.7493 -0.9608
 4648TIP3    H238140   2.433   2.360   7.655  0.1058  0.7621  0.1765
 4649TIP3   OH238141   1.895   3.379   8.535  0.3120  0.2074 -0.3832
 4649TIP3    H138142   1.975   3.337   8.569  1.1205  0.8152 -1.4762
 4649TIP3    H238143   1.827   3.312   8.546  1.0186 -0.4248  0.3195
 4650TIP3   OH238144   6.075   5.117   7.806  0.2473 -0.2070 -0.1442
 4650TIP3    H138145   6.125   5.174   7.748 -1.9170  2.9769  0.8540
 4650TIP3    H238146   6.033   5.054   7.748 -0.1302  1.4875 -1.7938
 4651TIP3   OH238147   2.506   3.040   8.661 -0.1954 -0.3474 -0.8246
 4651TIP3    H138148   2.530   2.958   8.703  0.8560  0.5274  0.3783
 4651TIP3    H238149   2.590   3.083   8.643 -0.7384  1.0110 -0.2493
 4652TIP3   OH238150   5.748   4.082   9.041  0.1922 -0.3996 -0.0561
 4652TIP3    H138151   5.728   4.174   9.022  0.1904 -0.1022  1.2802
 4652TIP3    H238152   5.665   4.036   9.024 -0.2553  0.0889  0.6969
 4653TIP3   OH238153   6.969   1.375   8.532 -0.1558  0.6833 -0.6838
 4653TIP3    H138154   6.908   1.318   8.578  1.2679  0.0112  0.4521
 4653TIP3    H238155   6.978   1.451   8.590  2.1804 -0.4770  0.5885
 4654TIP3   OH238156   0.305   2.159   9.317  0.6859  0.1063 -0.0717
 4654TIP3    H138157   0.250   2.109   9.378 -1.2906  1.4077 -0.6806
 4654TIP3    H238158   0.314   2.245   9.358  1.6161  0.1637 -0.3756
 4655TIP3   OH238159   5.081   1.743   8.202 -0.1627 -0.2985 -0.5448
 4655TIP3    H138160   5.141   1.808   8.165 -0.7519  0.5746 -0.0128
 4655TIP3    H238161   5.116   1.659   8.173  1.5339  0.1597  0.0590
 4656TIP3   OH238162   7.075   2.278   7.979  0.2868  0.7701 -0.3328
 4656TIP3    H138163   6.989   2.242   8.002  0.0977  1.3412 -0.1240
 4656TIP3    H238164   7.069   2.297   7.885  0.6725 -0.4966 -0.6410
 4657TIP3   OH238165   0.117   5.049   8.134 -0.4446  0.0827  0.2737
 4657TIP3    H138166   0.093   5.070   8.225 -2.0563  0.4157 -0.1867
 4657TIP3    H238167   0.189   4.988   8.142 -0.3595  0.3322  1.7832
 4658TIP3   OH238168   0.397   7.427   8.638 -0.3856 -0.4161  0.7982
 4658TIP3    H138169   0.415   7.509   8.684 -0.2296 -1.5449  2.8529
 4658TIP3    H238170   0.360   7.369   8.705 -2.7140 -1.3138 -1.0980
 4659TIP3   OH238171   6.317   6.834   8.356 -0.0581  0.4325 -0.0740
 4659TIP3    H138172   6.371   6.864   8.429  0.0759 -1.4678  0.6643
 4659TIP3    H238173   6.230   6.868   8.374  0.3230  1.3235  0.1129
 4660TIP3   OH238174   6.941   1.644   8.645  0.4494  0.0737  0.2386
 4660TIP3    H138175   7.034   1.635   8.666  0.6881  1.5468 -0.1115
 4660TIP3    H238176   6.898   1.649   8.731  0.4706 -2.1669  0.4492
 4661TIP3   OH238177   0.196   4.698   7.892  0.6754 -0.5544  0.0841
 4661TIP3    H138178   0.292   4.690   7.895  0.6260 -1.2400  0.1924
 4661TIP3    H238179   0.173   4.668   7.805  0.5827 -0.0571 -0.0633
 4662TIP3   OH238180   5.508   4.465   7.561  0.5995  0.1087  0.2733
 4662TIP3    H138181   5.452   4.389   7.544  0.8090 -0.6187  2.5622
 4662TIP3    H238182   5.456   4.522   7.616  0.8795  1.1068 -0.4650
 4663TIP3   OH238183   6.607   0.708   8.732 -0.1923 -0.2850 -0.1737
 4663TIP3    H138184   6.586   0.647   8.802  0.5732  0.2385  0.5302
 4663TIP3    H238185   6.697   0.686   8.707 -1.1520 -1.9058 -2.5174
 4664TIP3   OH238186   2.036   7.658   8.566  0.4825  0.3974  0.2604
 4664TIP3    H138187   1.954   7.674   8.519  1.0307 -0.0603 -0.8857
 4664TIP3    H238188   2.020   7.577   8.614  0.6035 -0.2879 -0.8226
 4665TIP3   OH238189   2.704   6.099   8.178  0.0285 -0.4256 -0.0867
 4665TIP3    H138190   2.683   6.034   8.111 -1.0718 -1.4027  1.1502
 4665TIP3    H238191   2.619   6.138   8.201  0.6344  1.2877 -0.6088
 4666TIP3   OH238192   2.245   0.193   6.825  0.1148 -0.2415 -0.1726
 4666TIP3    H138193   2.251   0.100   6.847 -0.5664  0.2184  2.2589
 4666TIP3    H238194   2.154   0.216   6.846  0.6363  1.2511  0.5471
 4667TIP3   OH238195   3.910   6.512   8.417  0.1503 -0.5200 -0.4835
 4667TIP3    H138196   3.846   6.546   8.354  1.8129 -0.5090 -2.2145
 4667TIP3    H238197   3.994   6.516   8.372  1.3183 -1.1482  1.5060
 4668TIP3   OH238198   2.353   0.165   7.880  0.6530 -0.7705 -0.0840
 4668TIP3    H138199   2.347   0.096   7.946 -2.0351 -0.2893  0.2929
 4668TIP3    H238200   2.322   0.125   7.799 -1.4663  0.0226  0.2563
 4669TIP3   OH238201   1.340   5.351   6.573  0.4887 -0.5303 -0.4199
 4669TIP3    H138202   1.282   5.419   6.538  0.2136 -0.7777 -0.4537
 4669TIP3    H238203   1.365   5.383   6.659  0.7729 -0.1466 -0.6418
 4670TIP3   OH238204   2.808   1.264   8.115 -0.0998 -0.3285  0.0330
 4670TIP3    H138205   2.797   1.169   8.102 -1.3722  0.0596 -2.3020
 4670TIP3    H238206   2.798   1.301   8.027  2.4242  1.8397  0.5592
 4671TIP3   OH238207   2.082   6.813   6.972 -0.2127  0.1099 -0.1934
 4671TIP3    H138208   2.052   6.789   7.060 -0.4800  2.1208  0.3251
 4671TIP3    H238209   2.011   6.865   6.936  1.1908  2.0988 -0.2614
 4672TIP3   OH238210   1.686   5.983   8.074 -0.5134  0.1496 -0.1781
 4672TIP3    H138211   1.733   6.022   8.148  0.6501 -0.1742 -0.7201
 4672TIP3    H238212   1.654   5.900   8.108 -0.2288  0.1289  0.0449
 4673TIP3   OH238213   0.433   5.369   7.755  0.2287 -0.2280 -0.4017
 4673TIP3    H138214   0.343   5.337   7.753  0.8080 -1.9104 -1.0485
 4673TIP3    H238215   0.464   5.351   7.844  1.1790 -3.4865 -1.2700
 4674TIP3   OH238216   2.558   4.409   8.268  0.0166 -0.0468  0.3097
 4674TIP3    H138217   2.547   4.317   8.243  1.7314 -0.1837 -0.0730
 4674TIP3    H238218   2.538   4.411   8.362  0.5678 -0.9449  0.4570
 4675TIP3   OH238219   6.491   0.747   6.979 -0.5646 -0.0878 -0.3211
 4675TIP3    H138220   6.583   0.724   6.994 -0.7974 -0.8138  0.0298
 4675TIP3    H238221   6.458   0.772   7.065 -0.5531  0.7084 -0.5455
 4676TIP3   OH238222   5.482   3.678   7.767 -0.3987 -0.0943 -0.4853
 4676TIP3    H138223   5.556   3.671   7.828 -0.2439 -0.1780 -0.6794
 4676TIP3    H238224   5.447   3.589   7.761 -1.2224  0.1525  0.4676
 4677TIP3   OH238225   5.296   7.293   8.231  0.7691  0.1777  0.0222
 4677TIP3    H138226   5.354   7.233   8.185 -1.8253 -1.4729 -1.2928
 4677TIP3    H238227   5.278   7.249   8.315  0.9443  0.3949  0.1741
 4678TIP3   OH238228   2.049   3.755   7.692  0.4073 -0.4715 -0.0521
 4678TIP3    H138229   2.052   3.695   7.766 -3.4158  0.9760  1.5266
 4678TIP3    H238230   1.976   3.724   7.639  0.7574  0.6441 -1.2343
 4679TIP3   OH238231   7.353   2.089   8.207 -0.4512 -0.4919  0.4991
 4679TIP3    H138232   7.323   2.108   8.118  1.5189 -0.8738 -0.2882
 4679TIP3    H238233   7.376   2.175   8.242  0.7595 -0.5226 -0.1518
 4680TIP3   OH238234   0.588   5.113   8.791 -0.0091 -0.5437  0.4815
 4680TIP3    H138235   0.610   5.184   8.852 -0.3302 -0.7901  0.8886
 4680TIP3    H238236   0.650   5.043   8.813  0.5201 -0.2799 -0.1342
 4681TIP3   OH238237   6.114   3.332   8.703 -0.1845 -0.3569 -0.1778
 4681TIP3    H138238   6.043   3.371   8.753  0.4987 -0.6089  1.0468
 4681TIP3    H238239   6.120   3.242   8.736  0.3764 -0.4910 -0.6218
 4682TIP3   OH238240   6.724   4.217   7.787  0.2956  0.1513  0.3535
 4682TIP3    H138241   6.816   4.221   7.814  0.2982 -0.4501  0.4577
 4682TIP3    H238242   6.706   4.302   7.747  0.2674  1.1090  2.3336
 4683TIP3   OH238243   0.411   3.896   8.878  0.0942  0.0982  0.2117
 4683TIP3    H138244   0.448   3.808   8.883  0.6226  0.2499 -0.7548
 4683TIP3    H238245   0.413   3.928   8.968 -0.3826 -0.9844  0.6190
 4684TIP3   OH238246   3.180   1.227   6.665  0.6581  0.0945 -0.6081
 4684TIP3    H138247   3.164   1.283   6.589  0.0251 -1.0169 -1.3130
 4684TIP3    H238248   3.103   1.241   6.721  1.2062  1.0460 -0.0661
 4685TIP3   OH238249   6.270   0.922   9.274  0.1061  0.6089 -0.2565
 4685TIP3    H138250   6.365   0.915   9.275  0.0485 -0.2981 -0.8218
 4685TIP3    H238251   6.251   0.986   9.205  0.2147 -1.0406 -1.8838
 4686TIP3   OH238252   5.368   5.160   8.029  0.1998 -0.5751 -0.4498
 4686TIP3    H138253   5.419   5.238   8.052 -0.6263 -0.0884 -0.2560
 4686TIP3    H238254   5.368   5.159   7.934 -0.2154 -0.0426 -0.4618
 4687TIP3   OH238255   3.159   2.595   6.414  0.0570  0.3775  0.4595
 4687TIP3    H138256   3.146   2.555   6.500 -0.7140  0.0524  0.2035
 4687TIP3    H238257   3.070   2.615   6.383  0.3705  1.2713  0.0994
 4688TIP3   OH238258   3.859   4.472   7.752 -0.4859  0.4609 -0.8756
 4688TIP3    H138259   3.926   4.408   7.727  1.6433  1.1607  2.3484
 4688TIP3    H238260   3.876   4.548   7.696  0.6166  0.1590 -0.9789
 4689TIP3   OH238261   1.054   1.072   8.099 -0.1456 -0.7041  0.4431
 4689TIP3    H138262   1.005   1.000   8.057  0.2144 -0.1294 -1.0056
 4689TIP3    H238263   1.138   1.073   8.054  0.4721 -0.4120  1.5813
 4690TIP3   OH238264   2.053   2.404   8.703 -0.3181  0.5011  0.4881
 4690TIP3    H138265   2.035   2.382   8.795 -2.1960 -2.3308 -0.4239
 4690TIP3    H238266   2.071   2.319   8.662 -1.8061  1.3869 -2.1876
 4691TIP3   OH238267   0.773   2.900   7.021  0.4157 -0.0208 -0.0671
 4691TIP3    H138268   0.732   2.869   6.941  0.5742 -0.8212  0.1547
 4691TIP3    H238269   0.844   2.837   7.038 -0.9914 -1.1769  1.8827
 4692TIP3   OH238270   6.063   6.330   9.618  0.4089  0.0919  0.3373
 4692TIP3    H138271   6.021   6.244   9.614  0.4437  0.0323  1.0725
 4692TIP3    H238272   6.156   6.311   9.607  0.1665  0.5298 -5.1507
 4693TIP3   OH238273   4.829   4.342   8.893  0.2200  0.2520  0.4239
 4693TIP3    H138274   4.757   4.301   8.940  0.3102 -0.2836  0.1126
 4693TIP3    H238275   4.797   4.350   8.803  0.5672 -0.0653  0.2652
 4694TIP3   OH238276   2.712   1.908   7.379  0.0272  0.2136  0.7168
 4694TIP3    H138277   2.677   1.820   7.363 -1.4217  0.5625  1.7321
 4694TIP3    H238278   2.661   1.941   7.453  0.0966  2.1573 -0.0417
 4695TIP3   OH238279   0.072   6.514   6.354  0.2233  0.3891 -0.0560
 4695TIP3    H138280   0.067   6.599   6.310  0.4326  0.2878 -0.2808
 4695TIP3    H238281   0.166   6.500   6.368  0.2417 -0.1100 -0.6304
 4696TIP3   OH238282   6.362   2.137   8.647  0.5443  0.1827 -0.1177
 4696TIP3    H138283   6.378   2.086   8.568  1.0502 -0.7048  0.5368
 4696TIP3    H238284   6.429   2.205   8.646  0.7730 -0.0432 -0.2683
 4697TIP3   OH238285   4.906   3.375   6.899  0.3919  0.6848 -0.4110
 4697TIP3    H138286   4.914   3.435   6.825 -0.3855  1.4700  0.1230
 4697TIP3    H238287   4.980   3.398   6.955  0.5992  0.5446 -0.6251
 4698TIP3   OH238288   5.710   7.447   7.881  0.2125  0.2539  0.1596
 4698TIP3    H138289   5.746   7.373   7.832 -1.0688  0.1638 -0.6803
 4698TIP3    H238290   5.786   7.505   7.896  0.8023 -0.1364 -1.1641
 4699TIP3   OH238291   2.937   0.302   8.974  0.0673 -0.4771 -0.0702
 4699TIP3    H138292   2.964   0.243   9.044  0.2731  1.9402  2.0404
 4699TIP3    H238293   2.921   0.386   9.018 -1.1022  0.8293 -2.7474
 4700TIP3   OH238294   3.070   7.454   9.165 -0.1718 -0.2496  0.1467
 4700TIP3    H138295   3.156   7.494   9.178 -0.5037  0.2634  0.8718
 4700TIP3    H238296   3.008   7.521   9.195 -0.8334 -0.5492 -0.5228
 4701TIP3   OH238297   5.118   2.775   9.290 -0.5525  0.3074  0.1072
 4701TIP3    H138298   5.191   2.745   9.344  0.1761  2.7720  0.6392
 4701TIP3    H238299   5.159   2.808   9.210 -1.3778 -0.8371 -0.8217
 4702TIP3   OH238300   5.348   2.197   9.400 -0.2630 -0.4621  0.1422
 4702TIP3    H138301   5.269   2.197   9.454 -1.5065 -1.4926 -1.5933
 4702TIP3    H238302   5.351   2.109   9.362  0.6479  0.1716 -1.3432
 4703TIP3   OH238303   3.010   6.204   7.230 -0.0266  0.1310  0.1157
 4703TIP3    H138304   3.087   6.171   7.184  0.1360 -0.8462  1.0410
 4703TIP3    H238305   2.938   6.191   7.169  0.4448  0.5644 -0.5542
 4704TIP3   OH238306   7.268   6.709   7.968 -0.5674  0.3870  0.3572
 4704TIP3    H138307   7.223   6.727   7.886 -0.7720 -1.1296  0.1014
 4704TIP3    H238308   7.306   6.622   7.956  1.1322  0.9729  1.1487
 4705TIP3   OH238309   3.958   1.251   7.927 -0.2856  0.4325 -0.2018
 4705TIP3    H138310   4.006   1.212   8.001 -2.3372  0.4976  1.2345
 4705TIP3    H238311   3.871   1.270   7.962 -1.9269 -1.0829 -3.0983
 4706TIP3   OH238312   1.662   2.439   9.147  0.4633 -0.3572 -0.6057
 4706TIP3    H138313   1.708   2.414   9.067 -1.1713 -1.0075 -1.3991
 4706TIP3    H238314   1.569   2.424   9.127 -0.0858  0.5768  1.0216
 4707TIP3   OH238315   4.154   6.765   8.059 -0.2678  0.0421 -0.6479
 4707TIP3    H138316   4.132   6.679   8.025  1.1998 -0.5077 -0.2976
 4707TIP3    H238317   4.183   6.815   7.983  0.6027 -0.3693 -0.5946
 4708TIP3   OH238318   2.761   4.103   8.578  0.4844 -0.3659 -0.2056
 4708TIP3    H138319   2.830   4.082   8.641  1.2113 -0.1089 -0.8992
 4708TIP3    H238320   2.792   4.183   8.534 -0.5494  0.1121 -0.0966
 4709TIP3   OH238321   4.982   3.887   7.910  0.2585  0.1511  0.7911
 4709TIP3    H138322   4.991   3.846   7.823 -1.6692 -0.8469  0.9983
 4709TIP3    H238323   4.974   3.813   7.970 -0.9081  0.8293  1.4988
 4710TIP3   OH238324   2.016   7.613   8.193 -0.5355  0.4990 -0.1010
 4710TIP3    H138325   1.951   7.669   8.150 -1.1704 -1.1808 -1.4646
 4710TIP3    H238326   1.988   7.610   8.284 -2.5215 -0.2720 -0.6696
 4711TIP3   OH238327   6.380   5.356   8.194 -0.3021  0.2961 -0.0778
 4711TIP3    H138328   6.375   5.261   8.183 -1.8792  0.2986  0.4564
 4711TIP3    H238329   6.410   5.369   8.284  0.8680  0.3332 -0.4466
 4712TIP3   OH238330   2.672   1.705   7.812  0.6266  0.1309 -0.0033
 4712TIP3    H138331   2.591   1.751   7.832  0.2806  0.2508 -1.5767
 4712TIP3    H238332   2.698   1.665   7.895 -0.5894  0.7788  0.7116
 4713TIP3   OH238333   4.083   0.417   7.886 -0.1714  0.1523 -0.0176
 4713TIP3    H138334   4.141   0.477   7.839 -1.3379  0.5243 -1.0541
 4713TIP3    H238335   3.995   0.441   7.856 -0.7362 -1.4487  0.2667
 4714TIP3   OH238336   2.451   0.389   8.772  0.6878 -0.5048  0.1555
 4714TIP3    H138337   2.532   0.381   8.822  2.4697  0.1520 -2.3986
 4714TIP3    H238338   2.464   0.332   8.696 -1.0632 -0.0447 -0.5296
 4715TIP3   OH238339   5.003   6.646   8.507  0.0861 -0.4530 -0.0858
 4715TIP3    H138340   4.916   6.607   8.513 -0.5945  1.0917  0.8462
 4715TIP3    H238341   5.034   6.623   8.419 -2.1143  0.6204 -1.2344
 4716TIP3   OH238342   7.142   2.008   7.595  0.0311  0.3305 -0.7169
 4716TIP3    H138343   7.158   1.928   7.645 -1.1374 -1.2926 -2.7923
 4716TIP3    H238344   7.078   2.056   7.647  1.5839  0.5531  1.1151
 4717TIP3   OH238345   2.883   2.999   9.509 -0.0290  0.1835 -0.4959
 4717TIP3    H138346   2.808   2.940   9.513  0.0056  0.1813  0.2165
 4717TIP3    H238347   2.848   3.080   9.471 -0.3313  0.0891 -0.4228
 4718TIP3   OH238348   1.146   0.030   9.037 -0.3168 -0.3617  0.0677
 4718TIP3    H138349   1.156  -0.024   8.959 -1.4057 -0.9959  0.3441
 4718TIP3    H238350   1.152  -0.031   9.110  1.7841  0.3660  0.5790
 4719TIP3   OH238351   4.924   6.955   6.829 -0.4251  0.3187  0.2632
 4719TIP3    H138352   4.860   7.013   6.786 -0.5003 -0.1941 -0.3303
 4719TIP3    H238353   4.955   7.005   6.904 -1.2885  0.7068  0.3733
 4720TIP3   OH238354   2.456   5.883   8.439  0.1165 -0.3212 -0.2443
 4720TIP3    H138355   2.423   5.817   8.378  1.2046 -0.8372 -0.3045
 4720TIP3    H238356   2.378   5.918   8.482 -0.5741 -0.7087 -1.1650
 4721TIP3   OH238357   2.631   3.683   8.894 -0.6159 -0.5743 -0.0882
 4721TIP3    H138358   2.563   3.717   8.836 -0.5380  1.0175  0.7108
 4721TIP3    H238359   2.647   3.594   8.862 -1.5864 -0.2455 -1.5878
 4722TIP3   OH238360   1.384   4.072   7.803  0.3924 -0.3968 -0.0684
 4722TIP3    H138361   1.409   4.144   7.862  1.4319 -1.3249  0.6611
 4722TIP3    H238362   1.467   4.032   7.779 -0.1297 -0.8835 -1.0934
 4723TIP3   OH238363   4.684   3.364   7.923 -0.5456  0.1193  0.1580
 4723TIP3    H138364   4.623   3.323   7.863  0.1056 -0.2380 -0.2725
 4723TIP3    H238365   4.769   3.357   7.879 -0.2409  0.8494  0.6209
 4724TIP3   OH238366   5.364   4.184   7.574  0.3523 -0.0393  0.4383
 4724TIP3    H138367   5.450   4.163   7.611  0.6024 -0.8140 -0.5217
 4724TIP3    H238368   5.366   4.144   7.487 -1.4101 -1.1015  0.8414
 4725TIP3   OH238369   6.609   7.590   6.941 -0.0140  0.2414 -0.4026
 4725TIP3    H138370   6.540   7.648   6.973  0.3856 -1.0332  3.2714
 4725TIP3    H238371   6.569   7.543   6.868 -1.1980  3.1205 -1.7623
 4726TIP3   OH238372   5.874   1.612   7.766 -0.0671 -0.0080 -0.4680
 4726TIP3    H138373   5.795   1.630   7.716  0.3891  2.1731 -0.5053
 4726TIP3    H238374   5.843   1.572   7.847 -1.2276  0.8329 -0.4696
 4727TIP3   OH238375   2.493   6.576   8.852 -0.1633 -0.3055 -0.0883
 4727TIP3    H138376   2.470   6.525   8.775 -1.6242  0.8852 -0.5011
 4727TIP3    H238377   2.518   6.662   8.817  0.7890 -0.2609  0.6686
 4728TIP3   OH238378   6.823   5.212   7.129  0.3775 -0.0685  0.1333
 4728TIP3    H138379   6.741   5.214   7.081 -0.5274  0.4470  1.6332
 4728TIP3    H238380   6.881   5.156   7.077 -0.7890 -0.1467 -1.1236
 4729TIP3   OH238381   7.376   4.867   7.383  0.2014  0.4329  0.7663
 4729TIP3    H138382   7.283   4.849   7.392  0.1782  0.5949  0.8451
 4729TIP3    H238383   7.415   4.834   7.464  0.3018 -0.2346  0.4539
 4730TIP3   OH238384   1.114   3.649   8.941  0.1412 -0.1562  0.3616
 4730TIP3    H138385   1.108   3.579   8.876  0.6241 -1.1652  1.3668
 4730TIP3    H238386   1.205   3.645   8.972  0.2704  1.1446  0.2057
 4731TIP3   OH238387   6.607   5.899   8.976  0.4947  0.3842  0.6223
 4731TIP3    H138388   6.668   5.881   9.048  0.1641  1.7733  1.2952
 4731TIP3    H238389   6.661   5.937   8.907  1.1918 -2.8451 -0.7980
 4732TIP3   OH238390   4.897   1.474   8.032 -0.6089  0.2893 -0.0125
 4732TIP3    H138391   4.975   1.484   8.086  0.0904 -0.7084 -0.8052
 4732TIP3    H238392   4.840   1.415   8.081  0.0189 -0.6029 -0.3366
 4733TIP3   OH238393   0.004   5.113   8.402  0.4869  0.4345 -0.3859
 4733TIP3    H138394  -0.091   5.119   8.397  0.4561  0.6383  0.2864
 4733TIP3    H238395   0.022   5.088   8.493  1.1483  3.1555  0.3530
 4734TIP3   OH238396   4.805   3.613   8.611  0.3006  0.8610  0.4317
 4734TIP3    H138397   4.828   3.647   8.525  0.1113  2.5546  1.0200
 4734TIP3    H238398   4.731   3.667   8.640 -0.5396 -0.5689  1.0994
 4735TIP3   OH238399   3.852   3.397   8.928 -0.4875  0.5972  0.5060
 4735TIP3    H138400   3.832   3.404   9.021  0.8595 -0.0914  0.8669
 4735TIP3    H238401   3.793   3.329   8.896 -1.6083  1.4764  0.6241
 4736TIP3   OH238402   3.373   5.019   7.259  0.4377  0.2060 -0.4511
 4736TIP3    H138403   3.458   5.023   7.214  0.0000  0.6085 -1.2581
 4736TIP3    H238404   3.309   5.032   7.190 -0.2343  1.8580  0.4199
 4737TIP3   OH238405   7.440   4.170   7.553  0.0362  0.2746  0.3763
 4737TIP3    H138406   7.472   4.201   7.638  1.5720 -0.8659  0.2529
 4737TIP3    H238407   7.483   4.227   7.489 -0.7946  0.8632  0.3312
 4738TIP3   OH238408   1.987   5.689   9.336 -0.3652  0.1787  0.1392
 4738TIP3    H138409   1.962   5.738   9.257  0.9768  0.1058 -0.3492
 4738TIP3    H238410   2.022   5.754   9.395  0.3935 -0.0256 -0.0772
 4739TIP3   OH238411   3.071   2.100   8.125 -0.1918 -0.2482 -0.2578
 4739TIP3    H138412   3.165   2.084   8.116 -0.2815 -0.7826 -0.2528
 4739TIP3    H238413   3.057   2.110   8.220  0.1406  1.6166 -0.3706
 4740TIP3   OH238414   5.353   1.845   9.070  0.3011  0.2491  0.4219
 4740TIP3    H138415   5.280   1.815   9.016  1.0940  0.9949 -1.1389
 4740TIP3    H238416   5.345   1.940   9.070  1.4628  0.3715 -0.1081
 4741TIP3   OH238417   6.278   6.964   8.808  0.5029 -0.0967  0.1445
 4741TIP3    H138418   6.218   6.948   8.881  0.8583 -2.4528 -0.0235
 4741TIP3    H238419   6.245   6.909   8.737  1.7830  0.0166 -0.5709
 4742TIP3   OH238420   0.363   4.899   8.107 -0.1359  0.1485 -0.0376
 4742TIP3    H138421   0.397   4.875   8.021 -0.7453 -0.3732 -0.1405
 4742TIP3    H238422   0.333   4.817   8.145 -2.5364  0.7360 -0.5185
 4743TIP3   OH238423   4.798   7.198   9.041 -0.3762  0.6321  0.3463
 4743TIP3    H138424   4.833   7.165   8.959 -1.7079  0.5783 -0.2226
 4743TIP3    H238425   4.871   7.245   9.081  0.6840 -0.4815 -0.2154
 4744TIP3   OH238426   4.502   0.131   9.408 -0.7296  0.0174  0.6390
 4744TIP3    H138427   4.430   0.135   9.345 -0.0825  1.6644 -0.0529
 4744TIP3    H238428   4.479   0.059   9.466 -2.1812 -0.4619 -0.4713
 4745TIP3   OH238429   4.608   1.372   7.587 -0.7154 -0.3485  0.9537
 4745TIP3    H138430   4.540   1.395   7.523 -1.6918 -1.4027  1.5649
 4745TIP3    H238431   4.671   1.320   7.537 -0.7654 -0.0263  0.5482
 4746TIP3   OH238432   6.417   7.044   8.564  0.1704 -0.6067 -0.3012
 4746TIP3    H138433   6.510   7.045   8.586  0.2802 -3.9606 -0.1543
 4746TIP3    H238434   6.374   7.011   8.643 -0.7849 -1.7169 -1.2414
 4747TIP3   OH238435   6.899   1.992   8.975 -0.6076  0.2145 -0.3943
 4747TIP3    H138436   6.881   2.079   9.009 -1.1931  0.0021 -0.1296
 4747TIP3    H238437   6.983   1.967   9.013 -0.3817  0.7116 -0.5728
 4748TIP3   OH238438   6.830   1.863   8.170 -0.3216  0.6337  0.1314
 4748TIP3    H138439   6.746   1.826   8.197  0.9798 -2.8429 -0.0609
 4748TIP3    H238440   6.895   1.805   8.209  1.8874  1.0566 -2.5937
 4749TIP3   OH238441   4.561   5.648   7.294 -0.0429  0.1168 -0.5049
 4749TIP3    H138442   4.605   5.566   7.317 -0.1025 -0.0498 -0.9650
 4749TIP3    H238443   4.494   5.622   7.231  1.1342  0.7322 -2.0827
 4750TIP3   OH238444   1.422   2.366   8.256  0.1426  0.1984  0.2773
 4750TIP3    H138445   1.492   2.401   8.311 -0.5472  2.1762 -0.0218
 4750TIP3    H238446   1.361   2.325   8.317 -0.9113  2.8700  1.1639
 4751TIP3   OH238447   3.045   0.327   8.703 -0.1172  0.2784 -0.6344
 4751TIP3    H138448   2.973   0.353   8.645 -0.4328  0.7374 -0.0342
 4751TIP3    H238449   3.003   0.306   8.786  0.1881 -1.5471 -0.8823
 4752TIP3   OH238450   4.595   3.856   9.195 -0.0220 -0.0471 -0.2114
 4752TIP3    H138451   4.511   3.829   9.232 -0.6397  1.6164 -0.3095
 4752TIP3    H238452   4.628   3.778   9.151 -0.4376 -1.3622  1.7170
 4753TIP3   OH238453   4.959   0.093   7.424  0.1556 -0.0826 -0.1892
 4753TIP3    H138454   5.004   0.114   7.342 -0.5881  0.7247 -0.4041
 4753TIP3    H238455   4.875   0.055   7.396 -0.4352  0.9123  0.1781
 4754TIP3   OH238456   3.310   3.152   7.377 -0.2360  0.4281 -0.0166
 4754TIP3    H138457   3.244   3.135   7.444 -0.8550  0.1378 -0.6833
 4754TIP3    H238458   3.261   3.153   7.295  0.6795 -0.4700 -0.6059
 4755TIP3   OH238459   6.582   7.184   8.937  0.7730  0.2074  0.3647
 4755TIP3    H138460   6.644   7.255   8.922  0.0586  0.9447  0.7921
 4755TIP3    H238461   6.598   7.122   8.865  1.5375  0.7014  0.0964
 4756TIP3   OH238462   3.881   0.930   8.716 -0.3115  0.0833 -0.0004
 4756TIP3    H138463   3.826   0.960   8.644  0.7947 -0.1270 -0.9765
 4756TIP3    H238464   3.887   1.004   8.776 -0.7589  0.4703 -0.4345
 4757TIP3   OH238465   4.816   5.648   8.473 -0.2318  0.4222 -0.5327
 4757TIP3    H138466   4.740   5.703   8.491 -0.6999 -0.4670  0.2810
 4757TIP3    H238467   4.881   5.676   8.538 -0.2263  0.4794 -0.5624
 4758TIP3   OH238468   1.459   5.293   7.873 -0.0899  0.0369 -0.1113
 4758TIP3    H138469   1.520   5.315   7.803 -0.1753 -0.2552 -0.2810
 4758TIP3    H238470   1.393   5.237   7.830  0.4637 -1.0627  0.4396
 4759TIP3   OH238471   2.978   6.529   9.132 -0.1744 -0.1519  0.2443
 4759TIP3    H138472   2.908   6.543   9.196  0.7350  1.9944  0.8781
 4759TIP3    H238473   3.042   6.599   9.151  1.6467 -1.3864 -0.9672
 4760TIP3   OH238474   1.265   5.409   9.109 -0.1929  0.2238 -0.1908
 4760TIP3    H138475   1.288   5.330   9.158 -3.1032 -0.5187  0.1764
 4760TIP3    H238476   1.344   5.463   9.112  1.5843 -2.2340  0.3680
 4761TIP3   OH238477   5.721   6.373   7.414  0.1310 -0.0867  0.2081
 4761TIP3    H138478   5.790   6.439   7.403 -1.2242  1.3221 -0.3180
 4761TIP3    H238479   5.722   6.353   7.507  3.6496 -2.9244 -0.2392
 4762TIP3   OH238480   4.464   4.433   7.727 -0.0348  0.2990  0.4164
 4762TIP3    H138481   4.423   4.489   7.793 -0.7519  0.7334 -0.3693
 4762TIP3    H238482   4.513   4.368   7.777 -0.5088  0.6600  1.3693
 4763TIP3   OH238483   0.728   7.257   8.772 -0.1578 -0.4133 -0.1163
 4763TIP3    H138484   0.685   7.172   8.774  0.6541 -0.8434 -0.7938
 4763TIP3    H238485   0.699   7.300   8.853 -2.2869 -0.4680 -0.7853
 4764TIP3   OH238486   0.772   0.306   8.852 -0.9791  0.0871 -0.0049
 4764TIP3    H138487   0.701   0.355   8.894 -0.2363  2.0703 -0.9373
 4764TIP3    H238488   0.746   0.301   8.760 -1.5871 -2.3828  0.2161
 4765TIP3   OH238489   2.221   4.930   7.144 -0.1529  0.2996 -0.3879
 4765TIP3    H138490   2.231   5.025   7.136  1.3788  0.4201  1.7458
 4765TIP3    H238491   2.300   4.894   7.103  0.5912  0.1612  1.0794
 4766TIP3   OH238492   5.535   6.623   7.366 -0.3265 -0.2525  0.1497
 4766TIP3    H138493   5.534   6.622   7.462 -0.3341  2.0523  0.2267
 4766TIP3    H238494   5.627   6.641   7.344 -0.7943  2.0180 -0.1443
 4767TIP3   OH238495   3.783   5.708   9.082  0.2538  0.6704  0.0488
 4767TIP3    H138496   3.854   5.762   9.116  0.5511  0.7271 -0.6600
 4767TIP3    H238497   3.826   5.642   9.028 -0.0697 -0.5334  1.1902
 4768TIP3   OH238498   6.885   4.207   7.425 -0.3179  0.4121 -0.3995
 4768TIP3    H138499   6.931   4.228   7.344  1.0900 -0.1402  0.2206
 4768TIP3    H238500   6.922   4.267   7.490 -0.7011  0.1688  0.0463
 4769TIP3   OH238501   6.956   7.125   8.874 -0.2134  0.4136  0.0397
 4769TIP3    H138502   6.869   7.163   8.863 -0.4597 -0.3064 -0.5251
 4769TIP3    H238503   7.010   7.168   8.807 -0.3434  0.2115 -0.1930
 4770TIP3   OH238504   7.317   1.809   8.255 -0.9369  0.0662  0.1863
 4770TIP3    H138505   7.391   1.791   8.313 -0.1621 -0.0257 -0.8112
 4770TIP3    H238506   7.315   1.905   8.247 -1.3074  0.1038  0.6903
 4771TIP3   OH238507   5.827   1.179   9.195 -0.1792 -0.5116  0.1612
 4771TIP3    H138508   5.867   1.195   9.109 -1.1378  0.3565 -0.1314
 4771TIP3    H238509   5.853   1.255   9.248  2.9883 -2.4242  1.6625
 4772TIP3   OH238510   3.265   4.273   8.870 -0.8815  0.0970 -0.2785
 4772TIP3    H138511   3.334   4.326   8.830 -1.2507  0.0796 -0.9494
 4772TIP3    H238512   3.253   4.199   8.811 -0.5030 -0.6478  0.5640
 4773TIP3   OH238513   5.197   4.143   8.276  0.4256 -0.2250 -0.6372
 4773TIP3    H138514   5.232   4.185   8.197 -0.6970  0.1094 -0.9742
 4773TIP3    H238515   5.180   4.215   8.336  1.0536 -0.4585 -0.1720
 4774TIP3   OH238516   5.254   3.256   7.833  0.2489  0.0392 -0.6034
 4774TIP3    H138517   5.252   3.160   7.840  1.7551 -0.0015 -0.4175
 4774TIP3    H238518   5.292   3.273   7.747 -0.8982  0.5021 -1.0468
 4775TIP3   OH238519   5.751   4.894   8.523  0.2689 -0.6546 -0.6197
 4775TIP3    H138520   5.831   4.915   8.571  0.7523 -1.7183 -0.9246
 4775TIP3    H238521   5.703   4.836   8.582 -0.5727  0.4546 -0.1923
 4776TIP3   OH238522   7.574   6.104   8.949 -0.2089 -0.0082  0.1735
 4776TIP3    H138523   7.655   6.147   8.925 -0.7577  0.7001 -0.4513
 4776TIP3    H238524   7.562   6.035   8.883 -1.1214  1.1877 -0.9674
 4777TIP3   OH238525   7.478   5.179   6.557  0.1633  0.7439  0.1491
 4777TIP3    H138526   7.549   5.189   6.493 -0.0192  1.4013  0.0435
 4777TIP3    H238527   7.400   5.211   6.511 -0.2482 -0.1712  0.1892
 4778TIP3   OH238528   5.074   1.399   9.233 -0.4580 -0.2517 -0.2442
 4778TIP3    H138529   5.119   1.314   9.222  1.2740  0.7119 -1.0657
 4778TIP3    H238530   5.043   1.397   9.323 -0.4947 -1.7826 -0.2494
 4779TIP3   OH238531   2.065   3.557   7.883 -0.1293  0.1728  0.0535
 4779TIP3    H138532   2.123   3.578   7.957 -0.5663 -0.4670  0.5903
 4779TIP3    H238533   1.980   3.592   7.909  0.4089  3.0570 -1.6598
 4780TIP3   OH238534   1.255   2.736   8.938  0.1789  0.2240  0.1421
 4780TIP3    H138535   1.265   2.665   8.875  0.8105  1.0545 -0.7169
 4780TIP3    H238536   1.307   2.808   8.902  2.2048  0.1231  2.5452
 4781TIP3   OH238537   5.715   4.365   7.414 -0.0323  0.5023 -0.2858
 4781TIP3    H138538   5.651   4.408   7.471  0.1289 -2.3504  2.3766
 4781TIP3    H238539   5.706   4.409   7.330 -3.1133  2.4397  0.8684
 4782TIP3   OH238540   0.945   4.415   8.986 -0.0400 -0.0923  0.4599
 4782TIP3    H138541   0.895   4.459   8.917  1.0348  0.0923 -0.2256
 4782TIP3    H238542   0.942   4.477   9.060  1.3628  1.1265 -0.4580
 4783TIP3   OH238543   5.456   5.527   9.328  0.1427  0.1204  0.5377
 4783TIP3    H138544   5.485   5.440   9.300  1.8590  0.8177  0.0038
 4783TIP3    H238545   5.459   5.579   9.248 -1.6946  0.5010  0.6775
 4784TIP3   OH238546   5.244   3.008   8.090 -0.6282 -0.2345 -0.6097
 4784TIP3    H138547   5.309   2.968   8.149  0.3717 -3.6493 -3.6379
 4784TIP3    H238548   5.277   3.096   8.075  0.8709 -0.3849  1.3336
 4785TIP3   OH238549   1.569   2.278   7.437  0.3793  0.4209 -0.1989
 4785TIP3    H138550   1.550   2.210   7.372 -1.4047  1.4468 -0.8203
 4785TIP3    H238551   1.664   2.284   7.438  0.4803 -0.3168 -2.0021
 4786TIP3   OH238552   2.883   0.043   8.540  0.8329  0.0021  0.0801
 4786TIP3    H138553   2.806   0.061   8.487 -0.2075  1.4298  1.9186
 4786TIP3    H238554   2.956   0.076   8.488  0.0399 -0.0070 -1.0737
 4787TIP3   OH238555   5.415   0.092   8.877 -0.4110  0.0732 -0.4046
 4787TIP3    H138556   5.473   0.065   8.948 -1.5171 -1.4053 -0.0059
 4787TIP3    H238557   5.364   0.013   8.857 -0.9715  0.8073 -2.0079
 4788TIP3   OH238558   3.869   5.398   9.096 -0.3350 -0.1268  0.5350
 4788TIP3    H138559   3.935   5.401   9.026 -1.0814  0.5251 -0.1571
 4788TIP3    H238560   3.916   5.360   9.170  1.2396  1.5832  0.5042
 4789TIP3   OH238561   4.085   1.415   8.528  0.2848  0.2207  0.1425
 4789TIP3    H138562   4.029   1.370   8.591 -0.9959 -0.7274 -1.5632
 4789TIP3    H238563   4.156   1.354   8.510 -0.7355 -0.6448 -1.1767
 4790TIP3   OH238564   0.743   5.568   9.232  0.7144 -0.3481 -0.0585
 4790TIP3    H138565   0.753   5.479   9.264 -1.5156 -1.1859 -1.4142
 4790TIP3    H238566   0.825   5.588   9.188  1.2650 -1.7171  0.3218
 4791TIP3   OH238567   0.940   6.663   8.332  0.2137  0.1390 -0.3826
 4791TIP3    H138568   0.969   6.739   8.281 -1.9769  1.2254 -0.1368
 4791TIP3    H238569   0.895   6.607   8.268 -0.8120  0.5537 -0.0518
 4792TIP3   OH238570   1.710   5.297   8.819 -1.1014 -0.2682  0.1791
 4792TIP3    H138571   1.675   5.290   8.731 -0.8369  1.1107 -0.0612
 4792TIP3    H238572   1.805   5.288   8.808 -1.0347  0.3255  0.2684
 4793TIP3   OH238573   5.385   5.649   6.662 -0.3261 -0.1186  0.4731
 4793TIP3    H138574   5.352   5.672   6.749 -1.1438  0.3687  0.0487
 4793TIP3    H238575   5.309   5.614   6.616  0.5087 -2.1611  0.5343
 4794TIP3   OH238576   5.480   6.291   9.635  0.3920  0.4204 -0.6987
 4794TIP3    H138577   5.420   6.224   9.603 -2.1377  2.0621  0.3819
 4794TIP3    H238578   5.447   6.314   9.721  3.5549  0.3177  0.6876
 4795TIP3   OH238579   5.376   1.739   6.684  0.1424  0.5172  0.2566
 4795TIP3    H138580   5.448   1.781   6.732  1.0019 -0.1238 -0.4549
 4795TIP3    H238581   5.402   1.647   6.678  0.4929  0.7289 -2.2046
 4796TIP3   OH238582   2.097   1.868   9.089  0.5474 -0.7390  0.6238
 4796TIP3    H138583   2.186   1.844   9.113  0.3189  0.6031  3.1108
 4796TIP3    H238584   2.075   1.942   9.146 -1.4398  0.3418 -1.3596
 4797TIP3   OH238585   7.517   0.105   7.821 -1.0602  0.2593 -0.5290
 4797TIP3    H138586   7.428   0.069   7.830 -1.6316  1.8951  1.0610
 4797TIP3    H238587   7.533   0.148   7.905  0.3151  2.0009 -1.6339
 4798TIP3   OH238588   0.502   3.864   9.345 -0.7483  0.3681  0.1476
 4798TIP3    H138589   0.543   3.937   9.392  0.3156 -0.0135 -0.1503
 4798TIP3    H238590   0.456   3.906   9.272  0.9522  0.6966 -0.8065
 4799TIP3   OH238591   3.691   1.528   8.156  0.3261  0.1644 -0.4384
 4799TIP3    H138592   3.660   1.458   8.099  0.8039 -1.5605  1.3251
 4799TIP3    H238593   3.772   1.494   8.193  0.6985  1.7678  0.2965
 4800TIP3   OH238594   7.144   6.809   7.498 -0.1924 -0.4136  0.5887
 4800TIP3    H138595   7.211   6.744   7.475  1.2677  0.4717  2.0903
 4800TIP3    H238596   7.067   6.782   7.449  1.7730 -0.3792 -2.8433
 4801TIP3   OH238597   0.001   6.983   9.111  0.2237 -0.1787  0.0221
 4801TIP3    H138598  -0.004   6.907   9.053  1.5833  0.2352 -0.6928
 4801TIP3    H238599   0.078   6.965   9.166  0.7667  0.8228 -0.3895
 4802TIP3   OH238600   1.105   3.078   8.240 -0.2084 -0.0291 -0.2932
 4802TIP3    H138601   1.022   3.111   8.205  0.9605  1.0599 -2.1793
 4802TIP3    H238602   1.137   3.018   8.173 -0.3572 -2.0082  1.3095
 4803TIP3   OH238603   1.364   1.026   8.527  0.0815 -0.0358  0.8315
 4803TIP3    H138604   1.441   1.009   8.582  0.6165  0.3328  0.2183
 4803TIP3    H238605   1.382   1.112   8.487 -1.5503  0.9939  2.1817
 4804TIP3   OH238606   4.318   1.050   7.460 -0.2923  0.0896  0.6308
 4804TIP3    H138607   4.304   1.137   7.496  0.0729 -0.2221  1.5583
 4804TIP3    H238608   4.396   1.018   7.505 -0.0523 -0.4747 -0.1592
 4805TIP3   OH238609   5.620   4.937   7.475  0.2031  0.1728  0.3100
 4805TIP3    H138610   5.616   4.967   7.385  0.2617  1.2042  0.6373
 4805TIP3    H238611   5.676   4.860   7.473 -1.4352 -1.0627 -0.8448
 4806TIP3   OH238612   4.885   0.763   7.531 -0.2213  0.3203  0.2140
 4806TIP3    H138613   4.911   0.811   7.453  0.5900 -0.3547  0.0511
 4806TIP3    H238614   4.792   0.742   7.518 -0.6602  2.0227  0.4025
 4807TIP3   OH238615   5.703   6.194   7.041  0.2231  0.1214 -0.6796
 4807TIP3    H138616   5.674   6.108   7.011  0.2988 -0.1997  0.1472
 4807TIP3    H238617   5.798   6.186   7.048  0.3139  0.5197 -1.3457
 4808TIP3   OH238618   3.613   3.285   8.014  0.5990 -0.2194 -0.0686
 4808TIP3    H138619   3.574   3.295   7.927  1.6932  0.5526 -0.4931
 4808TIP3    H238620   3.706   3.268   7.997  0.4297 -2.3718  0.9158
 4809TIP3   OH238621   1.784   2.399   7.844 -0.2353 -0.1146 -0.0086
 4809TIP3    H138622   1.791   2.360   7.931 -3.3388  1.3351  1.0450
 4809TIP3    H238623   1.705   2.359   7.807  0.7094 -0.2730 -1.9728
 4810TIP3   OH238624   2.660   5.728   7.708  0.2841 -0.2446  0.2741
 4810TIP3    H138625   2.591   5.701   7.769 -0.8632 -0.1440 -0.9444
 4810TIP3    H238626   2.657   5.824   7.710  2.2896 -0.1179  2.2675
 4811TIP3   OH238627   7.084   2.021   8.529 -0.8710  0.6962  0.0235
 4811TIP3    H138628   6.990   2.022   8.544 -1.1970 -0.6883 -1.5653
 4811TIP3    H238629   7.095   2.053   8.440 -0.4628 -3.7921 -1.8482
 4812TIP3   OH238630   7.626   1.259   8.735 -0.6940  0.1742 -0.1852
 4812TIP3    H138631   7.700   1.199   8.723 -0.6380  0.3265 -0.6015
 4812TIP3    H238632   7.576   1.221   8.807 -0.2577  0.0224  0.0418
 4813TIP3   OH238633   0.235   0.909   6.526  0.1153  0.0356 -0.1757
 4813TIP3    H138634   0.212   0.830   6.575 -0.3331 -0.1933 -0.7493
 4813TIP3    H238635   0.151   0.955   6.514  0.3446  0.5120 -0.0027
 4814TIP3   OH238636   1.337   6.296   8.829  0.2675 -0.2931  0.2636
 4814TIP3    H138637   1.395   6.340   8.768 -1.2846  1.9562  0.2880
 4814TIP3    H238638   1.249   6.326   8.805 -0.7171 -1.9126  1.5500
 4815TIP3   OH238639   5.347   2.814   7.156 -0.4525  0.5076 -0.7706
 4815TIP3    H138640   5.369   2.861   7.076 -0.2938  3.0098  0.6247
 4815TIP3    H238641   5.380   2.725   7.143  0.5107  1.1459 -3.0349
 4816TIP3   OH238642   4.187   2.006   8.969  0.7410 -0.2487  0.5738
 4816TIP3    H138643   4.122   2.020   8.901  2.4377 -0.2505 -1.1384
 4816TIP3    H238644   4.216   2.094   8.993  1.5932 -0.2853 -0.2371
 4817TIP3   OH238645   5.109   5.849   7.735  0.0644 -0.4167  0.2700
 4817TIP3    H138646   5.058   5.794   7.676 -0.4872  0.4221 -0.0562
 4817TIP3    H238647   5.084   5.818   7.823 -2.3246  1.0294  0.1916
 4818TIP3   OH238648   0.874   4.378   9.381  0.1018  0.1325  0.1464
 4818TIP3    H138649   0.805   4.387   9.447 -1.3807  3.1927 -1.6107
 4818TIP3    H238650   0.831   4.336   9.307  1.4050 -2.0451  0.5430
 4819TIP3   OH238651   7.363   1.374   9.242 -0.2340  0.5713 -0.1014
 4819TIP3    H138652   7.387   1.283   9.263  1.3960  0.9391 -0.2389
 4819TIP3    H238653   7.273   1.382   9.272 -0.0954 -0.8230  0.7907
 4820TIP3   OH238654   3.569   1.720   8.651  0.1900 -0.3919 -0.2197
 4820TIP3    H138655   3.550   1.669   8.571 -0.9817 -1.5088  0.7232
 4820TIP3    H238656   3.483   1.750   8.680  0.4802 -0.8218  1.1352
 4821TIP3   OH238657   1.904   1.731   7.642  0.2392 -0.0077 -0.1064
 4821TIP3    H138658   1.885   1.666   7.575 -1.4415 -0.7203  0.9746
 4821TIP3    H238659   1.850   1.807   7.619 -0.1023 -0.1371  0.2495
 4822TIP3   OH238660   3.274   2.203   6.903 -0.1937  0.7414  0.2120
 4822TIP3    H138661   3.294   2.286   6.947 -0.3865  0.4640  0.8373
 4822TIP3    H238662   3.326   2.205   6.823  1.0368  0.7688  0.9832
 4823TIP3   OH238663   5.466   2.905   6.898 -0.2482  0.7143  0.0324
 4823TIP3    H138664   5.541   2.964   6.908  0.0342  0.7356 -1.7890
 4823TIP3    H238665   5.479   2.866   6.811 -1.6848 -0.2470  0.2283
 4824TIP3   OH238666   5.977   4.206   8.938 -0.1589  0.6498  0.1032
 4824TIP3    H138667   5.937   4.198   9.024 -0.4743 -0.6204 -0.1281
 4824TIP3    H238668   5.907   4.180   8.877  0.5994 -0.3340 -0.3905
 4825TIP3   OH238669   4.149   1.374   6.915 -0.7462 -0.0353 -0.0020
 4825TIP3    H138670   4.229   1.413   6.879  0.8756 -0.5499  2.7869
 4825TIP3    H238671   4.079   1.407   6.858  1.4224  0.0227 -2.8998
 4826TIP3   OH238672   1.395   0.747   8.829 -0.6024 -0.1245  0.3073
 4826TIP3    H138673   1.327   0.706   8.774 -0.2309  0.6632 -0.7810
 4826TIP3    H238674   1.423   0.823   8.778  0.1982  0.2790  1.3369
 4827TIP3   OH238675   5.580   7.280   8.098  0.1974  0.0873  0.2815
 4827TIP3    H138676   5.638   7.269   8.023  0.1980 -1.6309  0.5022
 4827TIP3    H238677   5.506   7.330   8.064  1.1377  1.0794 -0.3440
 4828TIP3   OH238678   1.588   6.414   6.870  0.1640  0.2978  0.2148
 4828TIP3    H138679   1.500   6.382   6.852  0.3147  0.2099 -0.4141
 4828TIP3    H238680   1.595   6.415   6.965 -0.3923 -0.0363  0.2632
 4829TIP3   OH238681   0.883   5.576   7.862  0.3844  0.5409  0.1748
 4829TIP3    H138682   0.828   5.649   7.833  0.2378 -0.4832 -2.3808
 4829TIP3    H238683   0.915   5.537   7.781 -0.3801 -2.8888  1.3573
 4830TIP3   OH238684   2.442   4.439   9.360 -0.7454  0.0141 -0.6493
 4830TIP3    H138685   2.398   4.520   9.388 -1.3955  1.0303 -4.1609
 4830TIP3    H238686   2.531   4.467   9.339 -0.0464 -0.8798  0.9287
 4831TIP3   OH238687   3.853   1.328   7.642 -0.1953  0.3832 -0.4787
 4831TIP3    H138688   3.881   1.303   7.730 -1.6581 -3.4146 -0.9018
 4831TIP3    H238689   3.767   1.367   7.653 -0.9823 -1.3464 -0.2597
 4832TIP3   OH238690   3.469   2.376   8.858  0.0231  0.2349  0.4450
 4832TIP3    H138691   3.434   2.453   8.901  1.1425  0.0193  1.8243
 4832TIP3    H238692   3.462   2.306   8.923  0.3175 -0.4917 -0.2701
 4833TIP3   OH238693   5.181   2.093   8.330 -0.3601 -0.0814 -0.2886
 4833TIP3    H138694   5.173   2.104   8.235  0.9386  0.5008 -0.3552
 4833TIP3    H238695   5.274   2.105   8.348 -0.7277  0.7967  1.1908
 4834TIP3   OH238696   0.734   1.068   8.623 -0.5764 -1.4719  0.7433
 4834TIP3    H138697   0.713   1.159   8.603 -2.9552 -2.0792  0.1735
 4834TIP3    H238698   0.798   1.073   8.694 -1.1332  0.6272  1.1638
 4835TIP3   OH238699   5.371   4.645   7.701  0.4229  0.3154  0.8231
 4835TIP3    H138700   5.296   4.665   7.645  0.3036 -0.2745  0.7749
 4835TIP3    H238701   5.381   4.724   7.755 -0.8724  0.0080  1.5483
 4836TIP3   OH238702   0.533   0.376   9.585 -0.1872 -0.0241 -0.3820
 4836TIP3    H138703   0.518   0.301   9.642  3.6322 -0.2023  0.6466
 4836TIP3    H238704   0.537   0.339   9.497 -0.8903 -0.5859 -0.1842
 4837TIP3   OH238705   0.544   2.000   7.405  0.1985 -0.5035  0.1681
 4837TIP3    H138706   0.524   1.958   7.488 -1.6530  0.8420  0.4750
 4837TIP3    H238707   0.615   2.061   7.424 -1.8488  1.6632  1.4876
 4838TIP3   OH238708   5.237   3.783   9.575 -0.5121 -0.0029  0.7933
 4838TIP3    H138709   5.272   3.705   9.617  1.0338  0.1133 -0.2197
 4838TIP3    H238710   5.216   3.755   9.486  2.9382  1.3382 -0.6047
 4839TIP3   OH238711   1.948   6.530   7.519 -0.4692 -0.1943 -0.1095
 4839TIP3    H138712   1.929   6.573   7.435 -2.9247 -0.4556  0.2390
 4839TIP3    H238713   1.893   6.451   7.518  0.6025 -0.9927  1.1340
 4840TIP3   OH238714   0.082   6.088   7.234  0.2210 -0.5092  0.1901
 4840TIP3    H138715   0.056   6.180   7.225  0.5470 -0.1832  2.2054
 4840TIP3    H238716   0.002   6.039   7.221 -0.2030  0.1369  0.3129
 4841TIP3   OH238717   6.375   2.896   9.075 -0.2379 -0.0025 -0.0471
 4841TIP3    H138718   6.296   2.889   9.022 -0.6390  0.7945  0.4344
 4841TIP3    H238719   6.369   2.824   9.137 -0.0847 -0.5485 -0.6535
 4842TIP3   OH238720   1.820   7.263   9.345  0.5418  0.2690  0.4099
 4842TIP3    H138721   1.864   7.331   9.294  0.4867 -0.9581 -1.3854
 4842TIP3    H238722   1.878   7.187   9.339 -1.4110 -1.2088 -1.5207
 4843TIP3   OH238723   0.080   6.732   7.322 -0.4508  0.1130  0.5907
 4843TIP3    H138724   0.081   6.758   7.414 -1.8938  0.2376  0.5911
 4843TIP3    H238725  -0.007   6.694   7.309  0.7795 -2.8014  0.0471
 4844TIP3   OH238726   4.091   2.261   7.334 -0.1538 -0.3447  0.4896
 4844TIP3    H138727   4.058   2.212   7.258  1.6976 -0.1347 -0.5212
 4844TIP3    H238728   4.151   2.201   7.377  1.7739  0.7743 -0.4902
 4845TIP3   OH238729   2.462   6.928   8.645 -0.1605  0.1644  0.0693
 4845TIP3    H138730   2.492   7.019   8.655  0.8855  0.1344 -2.1837
 4845TIP3    H238731   2.525   6.876   8.695  0.6241  0.5103 -0.5393
 4846TIP3   OH238732   5.023   3.267   8.221 -0.1541 -0.3737 -0.4504
 4846TIP3    H138733   4.956   3.198   8.219 -2.1641  1.4525  0.1074
 4846TIP3    H238734   5.008   3.317   8.141 -0.0897  0.6372  0.1609
 4847TIP3   OH238735   0.223   1.955   8.104 -0.1334  0.4858 -0.4268
 4847TIP3    H138736   0.138   1.995   8.120  0.1064  1.8264 -2.2362
 4847TIP3    H238737   0.219   1.924   8.013  0.8340 -0.7185 -0.0978
 4848TIP3   OH238738   1.867   1.059   9.284 -0.0796 -0.2018 -0.2797
 4848TIP3    H138739   1.877   1.004   9.362  0.2718  0.4989  0.1689
 4848TIP3    H238740   1.772   1.061   9.268 -0.1050 -0.8861 -0.2740
 4849TIP3   OH238741   5.580   1.548   8.688  0.3901  0.5636  1.0997
 4849TIP3    H138742   5.647   1.615   8.685  0.0684  0.8663 -0.3400
 4849TIP3    H238743   5.546   1.544   8.598  0.3996 -1.5133  1.1345
 4850TIP3   OH238744   4.006   5.543   7.296 -0.5920 -0.1154 -0.0879
 4850TIP3    H138745   4.042   5.474   7.240 -1.3315 -0.2386 -0.4346
 4850TIP3    H238746   4.082   5.583   7.338 -0.1205 -0.8649 -0.2077
 4851TIP3   OH238747   4.818   5.476   7.796  0.3967 -0.0411 -0.2343
 4851TIP3    H138748   4.907   5.490   7.830 -0.0861 -2.2127  2.3095
 4851TIP3    H238749   4.762   5.484   7.874 -1.4655 -0.3302 -1.4898
 4852TIP3   OH238750   6.837   4.584   6.805  0.1525  0.4439 -0.1353
 4852TIP3    H138751   6.929   4.560   6.794 -0.1077 -0.5783 -0.2746
 4852TIP3    H238752   6.789   4.513   6.762 -0.6938  1.3778 -0.7775
 4853TIP3   OH238753   1.194   2.293   7.894  0.6381 -0.4767  0.6348
 4853TIP3    H138754   1.262   2.225   7.889  2.1306  1.0318 -0.6456
 4853TIP3    H238755   1.219   2.357   7.828 -1.8865  0.3276  0.3257
 4854TIP3   OH238756   3.701   3.614   7.521 -0.5444 -0.0255  0.2032
 4854TIP3    H138757   3.643   3.542   7.497 -1.4340  0.3114  1.2622
 4854TIP3    H238758   3.652   3.663   7.586  0.1689  1.3764 -0.2824
 4855TIP3   OH238759   3.215   0.671   7.450 -0.2398 -0.4585 -0.0567
 4855TIP3    H138760   3.229   0.637   7.362 -2.2577 -1.5719 -0.0206
 4855TIP3    H238761   3.138   0.728   7.442  0.4456  0.6020  0.7190
 4856TIP3   OH238762   5.289   0.239   8.313 -0.3961 -0.4574 -0.0930
 4856TIP3    H138763   5.372   0.272   8.277  0.1473 -0.5919  0.9670
 4856TIP3    H238764   5.221   0.288   8.267  0.3286  0.6548 -0.0335
 4857TIP3   OH238765   0.263   1.841   8.569  0.3035  0.0583 -0.3849
 4857TIP3    H138766   0.262   1.760   8.621  0.2486  0.0047 -0.4706
 4857TIP3    H238767   0.171   1.862   8.556  0.3179  0.1586 -0.3259
 4858TIP3   OH238768   6.211   0.714   7.374 -0.2594  0.2736 -0.0550
 4858TIP3    H138769   6.148   0.648   7.344  0.9291 -0.9848  0.1482
 4858TIP3    H238770   6.294   0.667   7.381  0.0527  1.0788  2.8660
 4859TIP3   OH238771   1.402   1.396   7.330  0.2540  0.6466  0.1697
 4859TIP3    H138772   1.497   1.406   7.340  0.3825 -0.8874  0.8200
 4859TIP3    H238773   1.368   1.485   7.333  1.6417  1.2032  0.2472
 4860TIP3   OH238774   1.947   5.278   6.888  0.1997 -0.5913 -0.6274
 4860TIP3    H138775   1.943   5.217   6.814 -3.1161 -0.7960 -0.4566
 4860TIP3    H238776   1.878   5.248   6.947  2.9740 -0.6809  2.8477
 4861TIP3   OH238777   2.232   2.877   7.158  0.0153 -0.4183  0.2284
 4861TIP3    H138778   2.167   2.915   7.099  2.3824 -2.5895 -4.2882
 4861TIP3    H238779   2.181   2.849   7.234 -3.3311  2.5749 -0.6395
 4862TIP3   OH238780   5.614   3.539   8.307  0.8276 -0.2148 -0.0795
 4862TIP3    H138781   5.698   3.582   8.288  0.3503  0.7364 -0.0638
 4862TIP3    H238782   5.554   3.611   8.327 -0.2467 -0.8239 -1.0474
 4863TIP3   OH238783   6.863   7.375   7.357 -0.2042  0.1579  0.0283
 4863TIP3    H138784   6.808   7.367   7.279  0.5903 -0.4198 -0.4891
 4863TIP3    H238785   6.803   7.365   7.430 -0.5469 -2.5234 -0.5209
 4864TIP3   OH238786   4.267   7.059   8.245  0.1953  0.6015 -0.4051
 4864TIP3    H138787   4.190   7.099   8.286 -0.3766 -0.1035 -0.7525
 4864TIP3    H238788   4.320   7.133   8.215 -1.2858  1.1407 -1.8910
 4865TIP3   OH238789   1.353   6.984   9.292  0.4860  0.2366 -0.0598
 4865TIP3    H138790   1.291   7.055   9.280  1.6181  1.0094 -1.8337
 4865TIP3    H238791   1.435   7.027   9.315  0.7425 -0.6500  0.7455
 4866TIP3   OH238792   7.383   5.431   9.430  0.4317  0.5036 -0.4081
 4866TIP3    H138793   7.476   5.409   9.431  0.4129  0.4216 -0.5064
 4866TIP3    H238794   7.374   5.499   9.497  0.6385  0.8135 -0.6940
 4867TIP3   OH238795   3.839   4.664   7.557  0.1006  0.4290 -0.1160
 4867TIP3    H138796   3.824   4.753   7.526 -0.4235  0.7124  0.8922
 4867TIP3    H238797   3.776   4.610   7.509 -0.1618  0.7372 -0.1180
 4868TIP3   OH238798   4.737   6.958   8.724 -0.3075  0.0285  0.2451
 4868TIP3    H138799   4.747   6.906   8.803 -1.3799  0.2194  0.5239
 4868TIP3    H238800   4.826   6.982   8.699  0.0742 -0.4934  1.0793
 4869TIP3   OH238801   0.664   2.272   7.951 -0.2697  0.5461 -0.2202
 4869TIP3    H138802   0.636   2.347   8.004  0.9280  0.4122  0.6418
 4869TIP3    H238803   0.713   2.310   7.879  0.9312  0.5869  0.5921
 4870TIP3   OH238804   0.089   3.039   7.311 -0.2816 -0.7910 -0.0086
 4870TIP3    H138805   0.028   3.003   7.247 -0.0405 -0.2446 -0.5537
 4870TIP3    H238806   0.059   3.128   7.326 -0.4350 -0.9598  0.7803
 4871TIP3   OH238807   5.612   2.589   8.113 -0.4832  0.1494  0.2596
 4871TIP3    H138808   5.528   2.543   8.110 -0.0017 -0.7088 -0.7284
 4871TIP3    H238809   5.665   2.537   8.174  0.5180 -1.4995 -1.8804
 4872TIP3   OH238810   2.679   5.881   8.004 -0.0919 -0.1051  0.1149
 4872TIP3    H138811   2.601   5.826   8.000  1.0240 -2.0804  2.5461
 4872TIP3    H238812   2.751   5.820   8.019  1.4636  1.8997  1.3951
 4873TIP3   OH238813   2.950   2.939   6.586 -0.0472 -0.0396  0.5072
 4873TIP3    H138814   2.923   3.030   6.574  1.9245  0.6143  0.7701
 4873TIP3    H238815   3.020   2.925   6.522  0.7193 -0.9002  1.4955
 4874TIP3   OH238816   1.726   4.785   8.590 -0.1252 -0.3687 -0.4263
 4874TIP3    H138817   1.747   4.695   8.566  0.7026 -0.2334 -0.2397
 4874TIP3    H238818   1.700   4.780   8.682 -0.4393 -0.4699 -0.5206
 4875TIP3   OH238819   4.514   6.917   6.621  0.2845  0.1077  0.4033
 4875TIP3    H138820   4.541   6.825   6.618 -2.0105 -0.6152 -0.1459
 4875TIP3    H238821   4.588   6.962   6.663  1.5901 -1.9163  0.4330
 4876TIP3   OH238822   5.503   5.657   9.073  0.0427 -0.2862  0.0681
 4876TIP3    H138823   5.440   5.617   9.014 -0.3553 -1.5400  1.2636
 4876TIP3    H238824   5.496   5.751   9.058 -0.6718 -0.5300 -1.2102
 4877TIP3   OH238825   1.084   3.348   7.370  0.3644 -0.0134  0.0869
 4877TIP3    H138826   1.071   3.255   7.350  0.0136  0.3034 -1.1988
 4877TIP3    H238827   1.037   3.361   7.452  1.4038 -1.2260  0.9294
 4878TIP3   OH238828   7.328   2.743   7.184 -0.7794  0.2117  0.3153
 4878TIP3    H138829   7.385   2.819   7.171  0.0678 -0.3172  0.9116
 4878TIP3    H238830   7.379   2.682   7.237 -2.2485  0.1312  1.7300
 4879TIP3   OH238831   3.194   6.319   6.609  0.0158 -0.1828 -0.1875
 4879TIP3    H138832   3.204   6.227   6.633 -1.2834 -0.2113  0.3241
 4879TIP3    H238833   3.130   6.353   6.672  1.8990  1.5822  0.9059
 4880TIP3   OH238834   5.451   6.761   9.580 -0.2109  0.1895  0.2558
 4880TIP3    H138835   5.499   6.797   9.655 -0.4591  0.3133  0.3559
 4880TIP3    H238836   5.479   6.669   9.576  0.5031  0.4127 -0.0691
 4881TIP3   OH238837   5.545   4.165   8.345 -0.0476  0.3292  0.5036
 4881TIP3    H138838   5.506   4.163   8.432  0.3489 -0.6627  0.6760
 4881TIP3    H238839   5.602   4.242   8.346  0.1890  0.1516  1.2242
 4882TIP3   OH238840   1.796   5.026   8.916 -0.3618 -0.2763  0.9729
 4882TIP3    H138841   1.768   5.031   8.824  2.7418  0.4545 -0.0421
 4882TIP3    H238842   1.827   5.114   8.936 -0.6428 -0.5302  2.6224
 4883TIP3   OH238843   6.792   6.633   9.084  0.2536 -0.2172  0.2638
 4883TIP3    H138844   6.793   6.703   9.018  0.2153  0.4038  0.9111
 4883TIP3    H238845   6.873   6.584   9.068  2.0504  2.0059  1.9263
 4884TIP3   OH238846   3.777   6.134   9.198  0.3527 -0.3338 -0.3456
 4884TIP3    H138847   3.806   6.045   9.222  0.2476 -0.9512 -2.3791
 4884TIP3    H238848   3.853   6.189   9.218 -0.3872 -0.3542  3.3522
 4885TIP3   OH238849   4.399   1.617   7.567  0.3504 -0.4953 -0.0418
 4885TIP3    H138850   4.395   1.589   7.658  0.4828  0.6449  0.3360
 4885TIP3    H238851   4.334   1.563   7.522 -1.0788  0.2097  1.0983
 4886TIP3   OH238852   0.994   6.828   8.620 -0.4154  0.0827  0.0158
 4886TIP3    H138853   0.992   6.840   8.525  1.4424 -0.5757 -0.1604
 4886TIP3    H238854   1.065   6.886   8.649 -1.2667  0.6120  1.0689
 4887TIP3   OH238855   5.400   6.586   8.396 -0.0393  0.5119  0.5022
 4887TIP3    H138856   5.417   6.497   8.427 -1.1590 -0.1239 -0.5934
 4887TIP3    H238857   5.315   6.580   8.352  0.3845  1.8601 -0.5937
 4888TIP3   OH238858   5.611   6.293   7.659 -0.1716 -0.3173 -0.1543
 4888TIP3    H138859   5.579   6.223   7.602 -0.5964  0.3808 -0.7864
 4888TIP3    H238860   5.610   6.254   7.747 -2.9439 -0.3008 -0.0976
 4889TIP3   OH238861   5.023   7.657   8.823 -0.1449 -0.4967  0.1157
 4889TIP3    H138862   4.989   7.614   8.744 -0.3357 -1.5157  0.7270
 4889TIP3    H238863   4.962   7.631   8.892  0.6257 -0.5215  0.8070
 4890TIP3   OH238864   3.001   7.015   8.372  0.3523 -0.5042 -0.0138
 4890TIP3    H138865   3.027   7.010   8.464 -1.4808  0.4958  0.6118
 4890TIP3    H238866   3.082   7.028   8.324  1.1909  0.5995  1.6273
 4891TIP3   OH238867   5.896   7.205   9.217  0.4532  0.2879  0.7308
 4891TIP3    H138868   5.851   7.140   9.163  0.2503  1.1392 -0.1545
 4891TIP3    H238869   5.975   7.160   9.248 -0.0304 -0.5972  0.7185
 4892TIP3   OH238870   4.929   6.006   8.791 -0.2872  0.2679  0.5487
 4892TIP3    H138871   4.996   6.051   8.740  0.5950 -1.0566  0.5031
 4892TIP3    H238872   4.898   6.071   8.853 -0.1675  1.3988 -0.5360
 4893TIP3   OH238873   4.314   3.952   8.425 -0.4633  0.4598 -0.2692
 4893TIP3    H138874   4.284   4.002   8.501 -0.0576  0.2570  0.0310
 4893TIP3    H238875   4.409   3.949   8.435 -0.5103 -0.7681 -0.0282
 4894TIP3   OH238876   4.304   4.130   9.137  0.0893  0.7277  0.3644
 4894TIP3    H138877   4.306   4.049   9.086  1.4178 -0.4962  2.1814
 4894TIP3    H238878   4.213   4.157   9.137 -0.7578 -1.8474  1.2158
 4895TIP3   OH238879   1.464   3.916   7.352  0.0085  1.0631 -0.0355
 4895TIP3    H138880   1.527   3.973   7.396 -1.1623  0.4596  2.6089
 4895TIP3    H238881   1.378   3.954   7.373 -0.7290 -0.8357  0.6050
 4896TIP3   OH238882   1.030   1.961   8.943 -0.5472 -0.1144 -0.0251
 4896TIP3    H138883   1.020   2.004   9.028 -0.9749  1.3435 -0.7663
 4896TIP3    H238884   1.013   1.869   8.960 -1.6180  0.2949  1.2878
 4897TIP3   OH238885   0.280   5.727   7.911 -0.3498  0.6748 -0.0685
 4897TIP3    H138886   0.333   5.723   7.990 -0.6580 -0.7553  0.0825
 4897TIP3    H238887   0.236   5.643   7.907  1.5034 -0.3002 -3.0441
 4898TIP3   OH238888   1.528   0.947   7.617 -0.2084 -0.0746  0.3304
 4898TIP3    H138889   1.536   0.970   7.524 -0.2924 -0.4278  0.2359
 4898TIP3    H238890   1.527   1.032   7.662 -2.8161  0.2504 -0.1702
 4899TIP3   OH238891   3.891   7.390   8.454  0.5765  0.8280  0.0278
 4899TIP3    H138892   3.927   7.424   8.536  0.6322  0.1306  0.2985
 4899TIP3    H238893   3.802   7.424   8.451 -0.2601 -1.0185  1.5618
 4900TIP3   OH238894   7.133   7.667   8.523 -0.4599 -0.5718  0.3394
 4900TIP3    H138895   7.110   7.580   8.557 -0.3299 -0.9003 -0.3958
 4900TIP3    H238896   7.051   7.717   8.529 -0.2723 -0.3740  1.8174
 4901TIP3   OH238897   0.624   3.976   8.634 -0.3214 -0.8780 -0.2766
 4901TIP3    H138898   0.554   3.921   8.669 -0.9784 -0.2004 -0.4935
 4901TIP3    H238899   0.629   3.952   8.541 -1.8814  0.6632 -0.8327
 4902TIP3   OH238900   1.333   6.023   8.179  0.5752  0.1843  0.1293
 4902TIP3    H138901   1.401   6.040   8.245 -0.2470  0.5071  0.9141
 4902TIP3    H238902   1.278   6.101   8.182  0.2334 -0.0273 -0.5875
 4903TIP3   OH238903   5.547   3.959   8.879  0.1092 -0.8316 -0.1576
 4903TIP3    H138904   5.531   3.868   8.905 -1.1998 -0.4306  0.4927
 4903TIP3    H238905   5.464   4.003   8.893  0.4121  0.2449 -1.5105
 4904TIP3   OH238906   5.002   5.995   7.516  0.1117  0.1645  0.6561
 4904TIP3    H138907   5.073   5.981   7.579 -0.6305  0.5837  1.6112
 4904TIP3    H238908   4.964   5.908   7.505 -0.7586  0.3300  2.0475
 4905TIP3   OH238909   5.696   0.739   9.095 -0.3340  0.1857  0.1599
 4905TIP3    H138910   5.677   0.660   9.146  0.5752 -1.0130 -1.2552
 4905TIP3    H238911   5.743   0.796   9.155  2.3700 -1.9449  0.2570
 4906TIP3   OH238912   2.598   6.801   9.211 -0.1549  0.1140 -0.3415
 4906TIP3    H138913   2.658   6.767   9.145  1.6601  0.5547  0.9887
 4906TIP3    H238914   2.575   6.725   9.264  2.3134  0.4848  1.4203
 4907TIP3   OH238915   0.664   3.267   7.249  0.3316  0.0131 -0.0281
 4907TIP3    H138916   0.683   3.331   7.180 -0.0339 -0.1851 -0.3085
 4907TIP3    H238917   0.699   3.308   7.329  1.7293 -0.2368 -0.4955
 4908TIP3   OH238918   3.434   2.243   9.097  0.0377  0.3732  0.0510
 4908TIP3    H138919   3.338   2.238   9.092  0.0841  0.0041 -0.6231
 4908TIP3    H238920   3.460   2.161   9.140  0.1732 -0.5987 -1.7893
 4909TIP3   OH238921   3.275   6.228   8.875  0.1202  0.5629 -0.1075
 4909TIP3    H138922   3.300   6.213   8.784 -0.5829 -1.2134 -0.0506
 4909TIP3    H238923   3.348   6.278   8.912  0.3290  1.4579 -1.6767
 4910TIP3   OH238924   0.232   6.574   8.488  0.3846  0.2888 -0.0175
 4910TIP3    H138925   0.289   6.651   8.497  0.9641 -0.2222  0.8649
 4910TIP3    H238926   0.151   6.608   8.451  0.8968  1.2023 -0.3355
 4911TIP3   OH238927   2.825   2.532   8.173  0.5121 -0.1451  0.1741
 4911TIP3    H138928   2.796   2.441   8.171 -0.9033  0.2815 -1.9141
 4911TIP3    H238929   2.784   2.569   8.251 -1.0796 -0.6717 -0.3796
 4912TIP3   OH238930   7.195   1.617   7.167  0.3219 -0.1638  0.1044
 4912TIP3    H138931   7.276   1.578   7.134  0.3619 -0.7937  0.9053
 4912TIP3    H238932   7.146   1.641   7.089  0.9328 -0.5073 -0.3964
 4913TIP3   OH238933   2.278   2.014   8.188  0.0313 -0.3515  0.0128
 4913TIP3    H138934   2.270   1.996   8.095 -1.3769 -1.2710  0.2744
 4913TIP3    H238935   2.192   2.049   8.213  0.5119  0.2533  0.8881
 4914TIP3   OH238936   7.622   6.091   9.234  0.0187  0.2424 -0.5852
 4914TIP3    H138937   7.717   6.079   9.239 -0.1364 -0.6849  2.5325
 4914TIP3    H238938   7.607   6.136   9.151  3.2528  1.2685 -0.7320
 4915TIP3   OH238939   6.509   4.940   7.971 -0.4401  0.0446 -0.2167
 4915TIP3    H138940   6.415   4.954   7.984 -0.7353 -0.6793 -1.4453
 4915TIP3    H238941   6.540   5.021   7.929 -0.3551  0.5684  0.8166
 4916TIP3   OH238942   1.437   4.741   7.477  0.1015 -0.3551 -0.2469
 4916TIP3    H138943   1.496   4.731   7.402  0.5091  0.4328 -0.0431
 4916TIP3    H238944   1.351   4.757   7.437  0.3339  0.1572 -0.5511
 4917TIP3   OH238945   3.627   0.714   8.886  0.3244 -0.3008 -0.2074
 4917TIP3    H138946   3.632   0.695   8.792 -0.8874 -0.0846 -0.3373
 4917TIP3    H238947   3.681   0.647   8.927  0.5261 -0.6597 -1.0305
 4918TIP3   OH238948   5.013   7.467   7.638  0.0852  0.1018 -0.2450
 4918TIP3    H138949   5.049   7.554   7.653  2.3093 -1.1369  2.4585
 4918TIP3    H238950   5.056   7.437   7.558 -0.2381  1.1914 -0.8537
 4919TIP3   OH238951   5.898   6.509   9.040 -0.3779 -0.4849  0.1729
 4919TIP3    H138952   5.978   6.554   9.013 -1.6976  1.7459 -0.3134
 4919TIP3    H238953   5.924   6.457   9.116  1.5768 -0.0567 -0.1586
 4920TIP3   OH238954   7.445   3.225   6.910  0.1678 -0.0343 -0.1546
 4920TIP3    H138955   7.476   3.248   6.998 -0.1575 -1.4589  0.3723
 4920TIP3    H238956   7.522   3.189   6.866  0.1836  0.1061 -0.2432
 4921TIP3   OH238957   7.675   1.851   8.651 -0.0689  0.3813  0.1241
 4921TIP3    H138958   7.660   1.861   8.745 -0.2439  0.3994  0.0940
 4921TIP3    H238959   7.588   1.855   8.611 -0.0615 -0.3087  0.0244
 4922TIP3   OH238960   1.810   0.970   7.787 -0.6706  0.1438  0.1188
 4922TIP3    H138961   1.857   0.990   7.868  1.2226  0.5963 -1.0309
 4922TIP3    H238962   1.765   0.887   7.806  2.0194 -1.2835  0.7998
 4923TIP3   OH238963   2.824   3.785   8.694  0.2350 -0.7279  0.2237
 4923TIP3    H138964   2.733   3.791   8.723  0.2300 -0.7005  0.2023
 4923TIP3    H238965   2.861   3.872   8.711 -0.4493  0.0926 -2.1221
 4924TIP3   OH238966   4.396   1.458   8.904  0.5235 -0.4447 -0.7584
 4924TIP3    H138967   4.391   1.394   8.834  1.4847 -3.8148  1.9556
 4924TIP3    H238968   4.487   1.487   8.904 -0.2684  2.5405 -3.0797
 4925TIP3   OH238969   4.905   5.811   7.155 -0.0829 -0.1468 -0.1638
 4925TIP3    H138970   4.968   5.841   7.089 -0.2701  2.9898  0.9305
 4925TIP3    H238971   4.958   5.767   7.221  0.5207 -0.4184 -0.8203
 4926TIP3   OH238972   5.047   1.058   7.445  0.1195 -0.0608 -0.2525
 4926TIP3    H138973   5.106   0.983   7.441  1.2464  0.8052 -0.6906
 4926TIP3    H238974   5.030   1.080   7.354  0.2862  0.5649 -0.1381
 4927TIP3   OH238975   0.552   1.680   9.240 -0.0080 -0.1356  0.3545
 4927TIP3    H138976   0.468   1.678   9.286  1.1401 -1.1067  2.5621
 4927TIP3    H238977   0.608   1.735   9.296  1.6053 -1.8159  0.4633
 4928TIP3   OH238978   4.297   5.797   8.782 -0.4509  0.4164 -0.4868
 4928TIP3    H138979   4.259   5.734   8.721  1.0593 -0.0655 -0.9903
 4928TIP3    H238980   4.279   5.882   8.743 -3.7947  0.4919  0.9324
 4929TIP3   OH238981   5.222   5.946   8.900 -0.0709 -0.6530  0.1253
 4929TIP3    H138982   5.185   5.992   8.824  1.8752  0.9010  0.0531
 4929TIP3    H238983   5.317   5.953   8.888  0.2688 -1.3538  2.1406
 4930TIP3   OH238984   5.205   1.975   7.412 -0.4660  0.2801  0.5627
 4930TIP3    H138985   5.286   2.016   7.444 -1.4641  1.5610  1.5552
 4930TIP3    H238986   5.226   1.882   7.407  1.0339  0.5700  0.9036
 4931TIP3   OH238987   4.361   4.218   9.397  0.1513  0.3194 -0.5749
 4931TIP3    H138988   4.452   4.196   9.374  0.2029  0.2956 -0.3509
 4931TIP3    H238989   4.312   4.204   9.317 -0.2982 -3.1785  0.1557
 4932TIP3   OH238990   2.548   3.956   8.484 -0.3661 -0.1677  0.8349
 4932TIP3    H138991   2.598   3.876   8.463  0.2427 -0.0599  1.8067
 4932TIP3    H238992   2.614   4.017   8.516 -1.0538  0.1632  1.6513
 4933TIP3   OH238993   2.956   0.296   9.245  0.0811  0.4862  0.2196
 4933TIP3    H138994   2.900   0.373   9.239  0.4811  0.7569 -0.0676
 4933TIP3    H238995   3.045   0.332   9.256  0.3150  0.0755 -0.2944
 4934TIP3   OH238996   5.822   3.196   7.811 -0.4346 -0.3141  0.0063
 4934TIP3    H138997   5.752   3.259   7.793 -0.9038 -0.6938  0.4990
 4934TIP3    H238998   5.868   3.233   7.887 -0.3970 -0.3107 -0.0181
 4935TIP3   OH238999   6.539   3.711   9.457  0.1560  0.1047  0.3495
 4935TIP3    H139000   6.634   3.724   9.463  0.5307 -0.8959 -2.1766
 4935TIP3    H239001   6.527   3.616   9.456 -0.8621  0.2189  0.3731
 4936TIP3   OH239002   4.290   4.961   9.080  0.0435  0.8201 -0.6465
 4936TIP3    H139003   4.381   4.987   9.068  0.0377  0.1193 -2.6056
 4936TIP3    H239004   4.239   5.024   9.028 -0.4372  0.2667 -0.8652
 4937TIP3   OH239005   6.358   2.558   8.854  0.5056  0.1762 -0.9333
 4937TIP3    H139006   6.415   2.627   8.890  0.0399  0.8010 -1.3687
 4937TIP3    H239007   6.345   2.584   8.763  2.4344 -1.8666 -1.8986
 4938TIP3   OH239008   2.325   3.958   8.649 -0.3782  0.0484 -0.1516
 4938TIP3    H139009   2.406   3.956   8.598 -1.2166  0.4949 -1.5812
 4938TIP3    H239010   2.330   3.882   8.706  0.8464 -0.1842 -0.5442
 4939TIP3   OH239011   7.039   3.744   8.447 -0.2200  0.2301 -0.1704
 4939TIP3    H139012   7.071   3.657   8.424 -1.2886  0.0881 -1.2579
 4939TIP3    H239013   7.042   3.793   8.364 -4.1101 -0.2532 -0.7722
 4940TIP3   OH239014   0.389   5.612   7.367  0.1215 -0.0243  0.5892
 4940TIP3    H139015   0.400   5.621   7.462  0.8657 -0.5077  0.5608
 4940TIP3    H239016   0.385   5.517   7.353 -0.3102  0.0567  0.1737
 4941TIP3   OH239017   0.175   5.632   8.497  0.2272 -0.6691  0.1791
 4941TIP3    H139018   0.081   5.650   8.496  0.0897 -1.2097 -1.8756
 4941TIP3    H239019   0.181   5.537   8.488  0.9864 -0.7259  1.1284
 4942TIP3   OH239020   6.752   4.563   9.111 -0.1316  0.1847  0.3716
 4942TIP3    H139021   6.694   4.489   9.094 -0.6426  0.4683  0.8610
 4942TIP3    H239022   6.826   4.525   9.158 -0.4586  0.0038  0.7468
 4943TIP3   OH239023   5.165   6.146   8.713 -0.5605  0.3077  0.0790
 4943TIP3    H139024   5.252   6.133   8.674 -0.6325 -1.1237  0.3580
 4943TIP3    H239025   5.158   6.241   8.724  0.0755  0.6459 -1.9710
 4944TIP3   OH239026   6.616   3.005   8.005 -0.5774  0.3962 -0.5156
 4944TIP3    H139027   6.553   3.022   8.076 -0.0242  2.3255 -0.4366
 4944TIP3    H239028   6.599   3.074   7.941  1.2363  0.7633 -0.6456
 4945TIP3   OH239029   0.166   0.231   6.926  0.6981 -0.4806  0.1334
 4945TIP3    H139030   0.173   0.144   6.887 -0.4918 -0.0553 -1.0880
 4945TIP3    H239031   0.251   0.272   6.907  0.5968 -0.7296 -0.9389
 4946TIP3   OH239032   1.386   4.489   7.916 -0.0813  0.5696  0.3737
 4946TIP3    H139033   1.444   4.414   7.899 -0.5159  0.5986 -1.5424
 4946TIP3    H239034   1.442   4.565   7.901 -0.5228  0.5971 -1.3324
 4947TIP3   OH239035   0.608   4.483   8.508 -0.2524 -0.1982 -0.3925
 4947TIP3    H139036   0.694   4.494   8.547 -0.4206  0.1731 -0.1157
 4947TIP3    H239037   0.601   4.555   8.445 -0.2425 -0.4035 -0.6281
 4948TIP3   OH239038   0.598   2.742   8.894  0.4269  0.4015  0.5345
 4948TIP3    H139039   0.683   2.708   8.921  1.5407  1.8462 -1.0133
 4948TIP3    H239040   0.560   2.672   8.841  0.4526 -0.3994  1.5433
 4949TIP3   OH239041   3.056   7.404   8.909 -0.1201  0.0063  0.2650
 4949TIP3    H139042   3.057   7.429   9.001 -0.4844 -0.9317  0.5323
 4949TIP3    H239043   3.001   7.471   8.867 -0.1223  0.3212  0.7609
 4950TIP3   OH239044   3.721   0.245   7.924  0.1024  0.7934  0.8339
 4950TIP3    H139045   3.777   0.228   7.999  1.3498 -1.2994 -0.4893
 4950TIP3    H239046   3.752   0.186   7.855 -1.3795  2.1567 -1.1601
 4951TIP3   OH239047   5.545   0.085   9.450  0.4976 -0.1385 -0.2964
 4951TIP3    H139048   5.616   0.025   9.474 -0.0639 -0.2026  1.3204
 4951TIP3    H239049   5.590   0.159   9.410  1.5193 -0.1535  0.7437
 4952TIP3   OH239050   0.264   1.808   6.845 -0.6020  0.5867  0.0278
 4952TIP3    H139051   0.308   1.827   6.928 -0.1351  1.3295 -0.3907
 4952TIP3    H239052   0.333   1.807   6.780 -0.7031 -1.6915 -0.1442
 4953TIP3   OH239053   5.456   3.525   7.346 -0.2428 -0.3940  0.0956
 4953TIP3    H139054   5.481   3.517   7.254  0.2874  0.3096  0.1703
 4953TIP3    H239055   5.516   3.467   7.393 -0.1814 -0.3594  0.0581
 4954TIP3   OH239056   0.642   0.499   8.402 -0.4791 -0.4197  0.3305
 4954TIP3    H139057   0.727   0.532   8.371 -0.3855 -2.9109 -2.5866
 4954TIP3    H239058   0.578   0.561   8.366 -0.0727 -0.7194 -0.9710
 4955TIP3   OH239059   5.303   6.447   7.258  0.2152 -0.5819  0.2974
 4955TIP3    H139060   5.241   6.400   7.202  0.9903  1.4501 -2.5067
 4955TIP3    H239061   5.384   6.397   7.249  0.2479 -0.4563 -0.1552
 4956TIP3   OH239062   2.058   4.943   9.101 -0.0118  0.2025  0.0495
 4956TIP3    H139063   2.128   4.925   9.039 -1.5248 -0.1196 -1.6741
 4956TIP3    H239064   1.995   4.995   9.052 -1.9831 -1.3243  0.8157
 4957TIP3   OH239065   5.707   4.901   7.997  0.2836  0.5641  0.1574
 4957TIP3    H139066   5.699   4.938   7.909  2.5949 -0.5542 -0.5892
 4957TIP3    H239067   5.730   4.809   7.983  1.7333  0.6034  1.8977
 4958TIP3   OH239068   2.245   7.297   7.594  0.4746  0.1963 -0.1742
 4958TIP3    H139069   2.249   7.222   7.654  0.2970  0.8641  0.6854
 4958TIP3    H239070   2.267   7.260   7.508  1.1589 -0.6916  0.3691
 4959TIP3   OH239071   3.343   0.657   8.943  0.7777 -0.0067 -0.4845
 4959TIP3    H139072   3.296   0.575   8.930  0.7674 -0.0402 -0.2438
 4959TIP3    H239073   3.435   0.634   8.935  0.7707 -0.0253 -0.5093
 4960TIP3   OH239074   3.736   2.619   9.365 -0.4642  0.0365 -0.2077
 4960TIP3    H139075   3.697   2.534   9.344 -0.3999  0.0747 -0.4829
 4960TIP3    H239076   3.668   2.665   9.413 -0.6225 -0.0416 -0.3553
 4961TIP3   OH239077   3.322   1.722   8.782  0.2709  0.2434  0.2945
 4961TIP3    H139078   3.276   1.768   8.852  0.8970 -0.0511  0.9085
 4961TIP3    H239079   3.340   1.635   8.817  1.9440  0.5824  0.3821
 4962TIP3   OH239080   0.272   4.177   8.036 -0.0722 -0.0641 -0.3536
 4962TIP3    H139081   0.273   4.087   8.070  2.5925  0.6555  1.8836
 4962TIP3    H239082   0.313   4.170   7.950  0.8702 -0.9088  0.1446
 4963TIP3   OH239083   6.616   1.608   8.716  0.3950  0.1851  0.1588
 4963TIP3    H139084   6.687   1.645   8.770  0.8767 -1.1068  0.4451
 4963TIP3    H239085   6.564   1.684   8.690  2.1489  1.2356 -0.4453
 4964TIP3   OH239086   6.721   5.421   8.569 -0.6251 -0.4557  0.1180
 4964TIP3    H139087   6.660   5.469   8.626  0.6511  1.7944 -0.2681
 4964TIP3    H239088   6.797   5.404   8.624 -0.6553 -1.1323 -0.0449
 4965TIP3   OH239089   5.612   1.750   8.296  0.3728 -0.2298  0.5252
 4965TIP3    H139090   5.653   1.810   8.358  2.8948 -0.1193 -1.0941
 4965TIP3    H239091   5.556   1.806   8.242 -1.2633 -0.2190  2.1512
 4966TIP3   OH239092   0.540   4.848   8.553  0.2599  0.3383  0.0449
 4966TIP3    H139093   0.589   4.860   8.634 -0.8864 -1.3704  1.0518
 4966TIP3    H239094   0.480   4.776   8.571 -0.4778  0.3178 -2.1338
 4967TIP3   OH239095   0.074   4.874   7.344 -0.3446 -0.1681  0.1184
 4967TIP3    H139096   0.003   4.937   7.344 -1.7716 -1.4807 -3.7111
 4967TIP3    H239097   0.125   4.895   7.266  0.1936 -2.5766 -0.2591
 4968TIP3   OH239098   1.955   0.911   8.898 -0.1757 -0.2727 -0.2548
 4968TIP3    H139099   1.995   0.980   8.844 -0.8070  0.8604  0.6629
 4968TIP3    H239100   2.012   0.905   8.975 -0.0817 -0.8440 -0.3679
 4969TIP3   OH239101   1.950   0.368   8.098  0.2624 -0.1080  0.5871
 4969TIP3    H139102   1.908   0.450   8.123 -0.4975 -0.8475  1.8244
 4969TIP3    H239103   2.023   0.358   8.159  0.4369 -0.2894  0.3527
 4970TIP3   OH239104   4.535   1.214   8.400 -0.2916  0.0992  0.9166
 4970TIP3    H139105   4.598   1.148   8.428 -1.1444 -1.7534 -1.2428
 4970TIP3    H239106   4.454   1.165   8.385 -0.7856  1.4643 -1.3795
 4971TIP3   OH239107   6.488   2.248   7.480  0.6000  0.0816  0.4411
 4971TIP3    H139108   6.418   2.219   7.421  0.2600  0.1925  0.7835
 4971TIP3    H239109   6.453   2.232   7.568  1.5526 -1.1528  0.6199
 4972TIP3   OH239110   2.034   5.755   8.532 -1.1508 -0.2262  0.6367
 4972TIP3    H139111   2.006   5.778   8.444 -4.1017 -0.0802  1.5250
 4972TIP3    H239112   1.977   5.683   8.557  0.3804 -1.0154  2.0723
 4973TIP3   OH239113   0.316   5.037   8.822  0.5119  0.4049  0.2413
 4973TIP3    H139114   0.411   5.040   8.805  0.1340  2.6732 -2.0618
 4973TIP3    H239115   0.278   5.010   8.739 -0.9178  0.5495  0.8336
 4974TIP3   OH239116   0.005   3.448   8.482 -0.5734 -0.1118  0.2139
 4974TIP3    H139117   0.043   3.378   8.534  1.4112  0.0239 -0.9199
 4974TIP3    H239118   0.041   3.528   8.520 -0.0534  0.0533 -0.6024
 4975TIP3   OH239119   6.084   1.370   7.926  0.4272  0.7704 -0.7395
 4975TIP3    H139120   6.069   1.464   7.930  0.8180  0.7961  0.6829
 4975TIP3    H239121   5.996   1.331   7.926  0.2416  1.0949  1.0121
 4976TIP3   OH239122   6.816   1.332   7.647  0.3309 -0.0439 -0.3896
 4976TIP3    H139123   6.845   1.327   7.738  0.4778 -1.4159 -0.4913
 4976TIP3    H239124   6.727   1.297   7.648 -0.7456  2.5321 -0.3621
 4977TIP3   OH239125   6.819   0.262   8.213 -0.0160 -0.3068 -0.4099
 4977TIP3    H139126   6.744   0.317   8.234 -0.3779 -0.6661 -0.7309
 4977TIP3    H239127   6.892   0.323   8.202 -0.2618  0.0458 -0.0931
 4978TIP3   OH239128   5.839   3.041   8.404 -0.0321  0.3159 -0.5490
 4978TIP3    H139129   5.792   3.102   8.347  0.8653  1.0289 -0.5534
 4978TIP3    H239130   5.805   2.955   8.382  1.4457  0.3502 -3.3878
 4979TIP3   OH239131   3.802   4.368   9.415 -0.1837  0.2056  0.4929
 4979TIP3    H139132   3.877   4.312   9.436 -0.4199  0.2442  1.4887
 4979TIP3    H239133   3.760   4.385   9.500 -1.0513  0.5624  0.0075
 4980TIP3   OH239134   7.480   6.026   9.433  0.0812  0.6095 -0.2342
 4980TIP3    H139135   7.555   5.984   9.475  0.5340  0.7919 -0.8510
 4980TIP3    H239136   7.514   6.060   9.350 -0.9168 -0.1649 -0.9818
 4981TIP3   OH239137   1.578   4.070   8.700  0.2668 -0.4920 -1.1568
 4981TIP3    H139138   1.589   4.156   8.660  1.5650 -0.0697  0.0182
 4981TIP3    H239139   1.496   4.037   8.664 -0.5636  1.4748 -1.1969
 4982TIP3   OH239140   0.717   1.840   6.956  0.4225 -0.1694  0.8324
 4982TIP3    H139141   0.802   1.802   6.979  0.1241  0.4166  3.1414
 4982TIP3    H239142   0.712   1.922   7.005 -0.8466  0.5993 -0.4830
 4983TIP3   OH239143   7.479   0.164   8.123 -0.1491  0.0459 -0.2936
 4983TIP3    H139144   7.422   0.206   8.188  0.8210  0.9202  0.0255
 4983TIP3    H239145   7.510   0.084   8.166 -0.8330 -0.2409 -0.3281
 4984TIP3   OH239146   0.113   7.642   7.832  0.0491 -0.3224 -0.5145
 4984TIP3    H139147   0.172   7.705   7.791 -0.0799 -0.1312 -0.4140
 4984TIP3    H239148   0.026   7.680   7.820  0.2080  2.0047  3.5932
 4985TIP3   OH239149   0.160   3.317   7.145  0.2891  0.5037  0.3058
 4985TIP3    H139150   0.244   3.364   7.140 -0.4532  1.8600  0.1616
 4985TIP3    H239151   0.123   3.326   7.057  0.1502 -0.4302  0.2592
 4986TIP3   OH239152   5.901   3.659   8.965 -0.0938  0.1587  0.1057
 4986TIP3    H139153   5.927   3.635   8.876 -2.8694  0.1092 -0.7753
 4986TIP3    H239154   5.830   3.598   8.987 -1.1938  1.8040  1.3525
 4987TIP3   OH239155   1.894   4.841   7.194 -0.1398 -0.2160 -0.6391
 4987TIP3    H139156   1.984   4.866   7.174  0.1588 -1.2020 -0.5861
 4987TIP3    H239157   1.864   4.907   7.257  0.9291 -0.5084  0.2005
 4988TIP3   OH239158   7.005   3.211   7.972 -0.4573 -0.5887  0.1262
 4988TIP3    H139159   7.001   3.294   8.020 -0.0603 -0.0463 -0.7602
 4988TIP3    H239160   6.998   3.144   8.040 -0.9159  0.1658  0.8413
 4989TIP3   OH239161   2.860   7.211   8.746  0.4224 -0.0909 -0.2102
 4989TIP3    H139162   2.934   7.218   8.685 -0.2880  1.0454 -0.9693
 4989TIP3    H239163   2.862   7.292   8.796  0.5859 -0.7236  0.8446
 4990TIP3   OH239164   2.147   1.661   8.465 -0.3534 -0.3906  0.1207
 4990TIP3    H139165   2.074   1.652   8.404 -0.4445  0.8478  0.0332
 4990TIP3    H239166   2.141   1.584   8.521 -0.4044 -1.4380 -1.2675
 4991TIP3   OH239167   5.471   2.535   8.753 -0.0954  0.2377 -0.9797
 4991TIP3    H139168   5.447   2.467   8.690 -0.5086  1.7516 -2.5475
 4991TIP3    H239169   5.432   2.506   8.836 -0.3216 -1.3774 -1.6121
 4992TIP3   OH239170   6.136   7.069   9.183 -0.0147 -0.2904 -0.2057
 4992TIP3    H139171   6.222   7.110   9.191  0.1941 -0.8237  0.3887
 4992TIP3    H239172   6.130   7.010   9.258 -1.0016 -0.0827 -0.1050
 4993TIP3   OH239173   0.318   3.613   6.711  0.2298  0.4612  0.3614
 4993TIP3    H139174   0.352   3.527   6.734 -1.1536 -0.3827 -0.5928
 4993TIP3    H239175   0.345   3.670   6.783  2.5098 -0.3931  0.2603
 4994TIP3   OH239176   5.796   6.719   7.243 -0.2036  0.1889 -0.1983
 4994TIP3    H139177   5.836   6.683   7.163  1.0445  0.5421  0.2357
 4994TIP3    H239178   5.713   6.755   7.213 -0.1400 -0.4206 -1.1879
 4995TIP3   OH239179   5.182   3.572   7.335 -0.6558 -0.4275 -0.5564
 4995TIP3    H139180   5.271   3.548   7.362 -1.0757 -1.6621 -0.2162
 4995TIP3    H239181   5.192   3.604   7.245  0.3085  0.7234 -0.0686
 4996TIP3   OH239182   4.917   7.348   9.580  0.0191 -0.0386 -0.3038
 4996TIP3    H139183   4.885   7.293   9.652  0.3519 -0.1954 -0.2709
 4996TIP3    H239184   5.008   7.320   9.568  0.5269  1.2241  0.4054
 4997TIP3   OH239185   6.604   6.685   8.263  0.4242 -0.0917  0.2748
 4997TIP3    H139186   6.546   6.684   8.338  0.9332 -0.0381  0.6722
 4997TIP3    H239187   6.629   6.593   8.251 -2.4797 -0.7383 -2.0726
 4998TIP3   OH239188   5.174   4.783   7.144 -0.2198  0.3149  0.3646
 4998TIP3    H139189   5.191   4.876   7.155  0.9080 -0.0373  2.0604
 4998TIP3    H239190   5.214   4.761   7.059 -1.4821  1.5374 -0.5953
 4999TIP3   OH239191   5.692   0.742   7.643  0.2956 -0.1433 -0.2684
 4999TIP3    H139192   5.704   0.648   7.626 -2.1017 -0.6619  0.5045
 4999TIP3    H239193   5.781   0.777   7.646  1.2103 -2.0514 -2.2616
 5000TIP3   OH239194   1.392   1.159   7.202 -0.3066  0.2428  0.1735
 5000TIP3    H139195   1.439   1.176   7.120 -0.3445 -0.1830  0.0620
 5000TIP3    H239196   1.391   1.243   7.247 -0.7353  0.6062 -0.4986
 5001TIP3   OH239197   1.091   4.484   8.209 -0.1418 -0.3336 -0.1900
 5001TIP3    H139198   1.117   4.462   8.298 -1.7933  0.2715  0.4875
 5001TIP3    H239199   1.073   4.579   8.212 -1.7326 -0.5823 -0.7195
 5002TIP3   OH239200   1.216   2.150   9.454  0.1438 -0.2855  0.3518
 5002TIP3    H139201   1.155   2.216   9.487 -1.0027 -0.9618 -0.3446
 5002TIP3    H239202   1.296   2.198   9.436 -0.8143  1.0135 -0.5620
 5003TIP3   OH239203   0.741   3.733   9.363 -0.2357  0.4714  0.1111
 5003TIP3    H139204   0.805   3.805   9.358 -1.6281  1.7114 -0.8386
 5003TIP3    H239205   0.658   3.777   9.381 -1.0677 -0.9619 -0.1018
 5004TIP3   OH239206   0.945   4.166   8.768 -0.3197 -0.5160 -0.1740
 5004TIP3    H139207   0.877   4.142   8.831 -1.1899 -1.0380 -1.2750
 5004TIP3    H239208   0.897   4.184   8.686  0.7695  0.1730 -0.6926
 5005TIP3   OH239209   0.404   3.621   9.383  0.0910 -0.1421 -0.2066
 5005TIP3    H139210   0.452   3.703   9.376 -1.8068  1.0013 -0.5172
 5005TIP3    H239211   0.319   3.646   9.422  0.3953 -2.3391  2.1628
 5006TIP3   OH239212   7.195   3.986   8.664  0.0450  0.2364 -0.2497
 5006TIP3    H139213   7.250   4.043   8.718  1.4961  0.4647 -1.9000
 5006TIP3    H239214   7.196   4.027   8.578 -1.0220 -0.9066 -0.8271
 5007TIP3   OH239215   7.477   6.682   7.661  0.5664 -0.8914  0.9283
 5007TIP3    H139216   7.452   6.774   7.676 -0.0465 -1.3065  2.7747
 5007TIP3    H239217   7.409   6.649   7.602  0.1943 -0.4181  1.0770
 5008TIP3   OH239218   2.883   0.927   8.761 -0.3001 -0.2684 -0.1105
 5008TIP3    H139219   2.935   0.907   8.839 -1.1216 -0.8113  0.3093
 5008TIP3    H239220   2.796   0.945   8.794 -0.3641  0.8053 -0.7934
 5009TIP3   OH239221   7.072   1.394   6.981 -0.6361  0.4734 -0.4820
 5009TIP3    H139222   7.077   1.489   6.980  2.3856  0.4267 -0.9662
 5009TIP3    H239223   7.159   1.365   6.953  0.0038 -2.3979  3.5093
 5010TIP3   OH239224   4.265   1.576   6.711  0.3327 -0.4570  0.0602
 5010TIP3    H139225   4.328   1.600   6.644 -0.5176  0.0833 -0.5640
 5010TIP3    H239226   4.186   1.551   6.663 -0.0827 -0.6826  0.8339
 5011TIP3   OH239227   1.964   1.784   8.764 -0.7192  0.2927  0.2907
 5011TIP3    H139228   1.883   1.733   8.761 -1.2064  0.9334  1.8768
 5011TIP3    H239229   1.987   1.789   8.856  2.0048 -1.1671 -0.2207
 5012TIP3   OH239230   3.616   5.429   9.175  0.3257 -0.4723  0.1017
 5012TIP3    H139231   3.639   5.512   9.216 -0.3787 -1.4667  2.6800
 5012TIP3    H239232   3.699   5.398   9.136  0.4150  1.7413 -1.6634
 5013TIP3   OH239233   2.766   0.185   6.802 -0.9598  0.1629  0.3374
 5013TIP3    H139234   2.765   0.091   6.822 -0.7847 -0.4339 -2.0525
 5013TIP3    H239235   2.677   0.214   6.819 -1.1730 -0.5907  0.5472
 5014TIP3   OH239236   3.592   1.280   7.417  0.6576  0.0071 -0.4490
 5014TIP3    H139237   3.516   1.262   7.473  0.0721  1.3328 -0.7641
 5014TIP3    H239238   3.620   1.194   7.387 -1.9812 -0.4608 -1.9357
 5015TIP3   OH239239   0.340   4.622   7.185  0.0308 -0.0724 -1.0560
 5015TIP3    H139240   0.374   4.671   7.110  0.2135 -1.1036 -1.6751
 5015TIP3    H239241   0.323   4.534   7.150 -1.3855 -0.1428 -0.2671
 5016TIP3   OH239242   1.884   2.050   7.150  0.0913 -0.1950 -0.2355
 5016TIP3    H139243   1.908   2.119   7.211 -0.9586 -0.6614  0.7489
 5016TIP3    H239244   1.901   1.969   7.198 -0.1769 -0.5877 -0.7879
 5017TIP3   OH239245   3.078   5.581   8.098  0.3823 -0.1701 -0.6225
 5017TIP3    H139246   2.990   5.619   8.090  1.0673  1.3633 -1.3927
 5017TIP3    H239247   3.106   5.567   8.007 -0.3115 -3.9153 -0.4262
 5018TIP3   OH239248   2.446   4.636   6.766  0.0822  0.2880  0.0633
 5018TIP3    H139249   2.376   4.633   6.700  1.8068 -0.6354 -1.8584
 5018TIP3    H239250   2.401   4.621   6.849 -1.9796 -0.3742 -1.0828
 5019TIP3   OH239251   3.150   7.130   8.874  0.2612  0.3881  0.0890
 5019TIP3    H139252   3.139   7.226   8.876 -1.1959  0.2472  1.3320
 5019TIP3    H239253   3.207   7.111   8.948 -1.9459  0.1186  1.8435
 5020TIP3   OH239254   1.559   1.848   8.364 -0.2622  0.6608 -0.7339
 5020TIP3    H139255   1.499   1.912   8.324  0.9505  0.6968 -2.6777
 5020TIP3    H239256   1.637   1.852   8.309 -0.1503 -2.5785 -1.0119
 5021TIP3   OH239257   1.423   2.632   8.456  0.0608 -0.2530 -0.1724
 5021TIP3    H139258   1.394   2.690   8.386  1.3614  0.4663 -0.1407
 5021TIP3    H239259   1.491   2.578   8.416  1.3675  0.6951  0.7209
 5022TIP3   OH239260   7.378   7.003   7.922 -0.1157 -0.4686  0.0284
 5022TIP3    H139261   7.403   6.928   7.975 -0.1622 -0.9915 -0.6771
 5022TIP3    H239262   7.450   7.014   7.860 -0.9796 -1.1349 -1.1206
 5023TIP3   OH239263   4.308   1.992   8.620 -0.8082 -0.2056 -0.6906
 5023TIP3    H139264   4.236   2.039   8.663 -1.0502 -0.7981 -0.4501
 5023TIP3    H239265   4.387   2.034   8.654 -1.0385  1.0079 -1.5809
 5024TIP3   OH239266   5.193   5.490   7.499  0.0735  0.2812  0.2804
 5024TIP3    H139267   5.213   5.501   7.592 -0.6180  1.7000  0.2904
 5024TIP3    H239268   5.253   5.422   7.469  2.8982  2.3294  0.9260
 5025TIP3   OH239269   1.204   1.015   8.849  0.4432  0.3337  0.0658
 5025TIP3    H139270   1.188   0.924   8.824  1.3699 -0.1311  1.0913
 5025TIP3    H239271   1.223   1.060   8.767 -0.0348 -0.3840 -0.4462
 5026TIP3   OH239272   1.430   2.998   7.076 -0.1637 -0.6327 -0.1624
 5026TIP3    H139273   1.491   2.925   7.073 -0.8149 -1.1614 -1.9387
 5026TIP3    H239274   1.365   2.978   7.008 -2.2310 -0.0049  1.5243
 5027TIP3   OH239275   0.677   2.570   9.221 -0.2396  0.9398 -0.1204
 5027TIP3    H139276   0.723   2.619   9.289  0.0917  0.5793 -0.0799
 5027TIP3    H239277   0.725   2.590   9.140  2.2156 -2.0827  0.3832
 5028TIP3   OH239278   2.852   5.898   9.625  0.4302 -0.0800 -0.3982
 5028TIP3    H139279   2.905   5.892   9.545  0.8363  1.0530 -0.2282
 5028TIP3    H239280   2.903   5.852   9.691 -0.4153 -1.9986 -1.0122
 5029TIP3   OH239281   7.210   3.208   9.633  0.2152 -0.4230 -0.8446
 5029TIP3    H139282   7.295   3.242   9.661  0.5562 -1.0933 -1.0375
 5029TIP3    H239283   7.230   3.121   9.598 -0.6737 -0.9381 -0.1016
 5030TIP3   OH239284   6.609   5.691   9.418  0.4618  0.3537 -0.2745
 5030TIP3    H139285   6.622   5.784   9.436 -0.9784  0.3322  1.0114
 5030TIP3    H239286   6.518   5.674   9.442  0.1406 -1.0127 -2.1675
 5031TIP3   OH239287   1.110   5.500   6.726 -0.1281 -0.2693  0.3084
 5031TIP3    H139288   1.156   5.515   6.643  1.5915 -0.9574  1.0805
 5031TIP3    H239289   1.073   5.585   6.748 -1.1693 -0.2192 -1.4497
 5032TIP3   OH239290   3.896   1.832   6.906 -0.0502 -0.2831 -0.6861
 5032TIP3    H139291   3.937   1.842   6.821  1.1734  0.3089 -0.0490
 5032TIP3    H239292   3.855   1.917   6.923 -1.0339 -0.6699 -1.0400
 5033TIP3   OH239293   7.216   6.709   8.626 -0.1829 -0.4005 -0.0596
 5033TIP3    H139294   7.183   6.624   8.599 -0.7830 -0.6866  1.4667
 5033TIP3    H239295   7.292   6.689   8.681 -0.7409 -0.0209  0.8868
 5034TIP3   OH239296   3.422   4.226   9.508 -0.2548 -0.2445 -0.6252
 5034TIP3    H139297   3.461   4.307   9.542 -0.6560 -1.6990  4.1269
 5034TIP3    H239298   3.336   4.253   9.477 -1.0298  1.1468  2.3046
 5035TIP3   OH239299   7.195   0.920   7.949  0.2144  0.0123  0.0207
 5035TIP3    H139300   7.206   0.955   8.038  2.7915  2.3562 -1.0583
 5035TIP3    H239301   7.140   0.984   7.905  1.4972  0.5488 -0.8549
 5036TIP3   OH239302   0.003   2.382   8.144  0.0203  0.3150 -0.2425
 5036TIP3    H139303   0.053   2.386   8.225 -0.3114 -1.0252  0.0610
 5036TIP3    H239304   0.064   2.409   8.076  0.8755 -0.3343  0.2399
 5037TIP3   OH239305   0.410   1.323   8.702 -0.6469 -0.2665  0.0976
 5037TIP3    H139306   0.468   1.342   8.776 -0.6972 -1.5605  0.4831
 5037TIP3    H239307   0.466   1.331   8.625  0.1696 -1.8366  0.4835
 5038TIP3   OH239308   3.739   3.285   7.586 -0.6679  0.3590  0.2304
 5038TIP3    H139309   3.692   3.331   7.655  1.0161 -0.0406  1.7043
 5038TIP3    H239310   3.674   3.226   7.547 -1.4459 -0.0956  2.1170
 5039TIP3   OH239311   1.193   7.226   9.261 -0.2785 -0.3547 -0.1272
 5039TIP3    H139312   1.207   7.298   9.322 -0.5971 -0.3810 -0.0209
 5039TIP3    H239313   1.220   7.260   9.176  0.4978 -0.4304  0.0819
 5040TIP3   OH239314   2.102   7.471   7.421  0.1042  0.4674 -0.5462
 5040TIP3    H139315   2.057   7.442   7.341  1.7147  0.3108 -1.4216
 5040TIP3    H239316   2.150   7.394   7.451 -0.6225  0.4661  0.7272
 5041TIP3   OH239317   1.998   7.608   7.656 -0.0722  1.1128 -0.1742
 5041TIP3    H139318   2.001   7.603   7.560  1.3992  0.1091 -0.1160
 5041TIP3    H239319   1.921   7.662   7.675 -2.7853 -1.8567 -1.8184
 5042TIP3   OH239320   5.250   0.495   9.413 -0.5862  0.3603 -0.2096
 5042TIP3    H139321   5.188   0.427   9.438 -1.3542  0.4455 -1.7180
 5042TIP3    H239322   5.281   0.468   9.326  0.2992  1.1258 -0.1415
 5043TIP3   OH239323   6.034   6.285   7.915  0.1780  0.3613 -0.3239
 5043TIP3    H139324   6.046   6.191   7.926 -0.3129  0.2256 -0.8880
 5043TIP3    H239325   6.118   6.318   7.885  0.6773  0.2829  0.9289
 5044TIP3   OH239326   0.281   4.677   8.260 -0.1387 -0.4970 -0.5273
 5044TIP3    H139327   0.326   4.593   8.247 -0.2069 -0.4228 -1.3091
 5044TIP3    H239328   0.272   4.685   8.355 -0.3346 -1.4825 -0.4514
 5045TIP3   OH239329   3.901   3.106   7.680 -0.3910 -0.3033 -0.2878
 5045TIP3    H139330   3.977   3.099   7.622 -0.5225  1.2816 -0.7128
 5045TIP3    H239331   3.848   3.176   7.641 -2.4887 -1.8854 -0.4361
 5046TIP3   OH239332   7.560   5.607   8.823  0.2415 -0.5890  0.0179
 5046TIP3    H139333   7.479   5.563   8.848 -0.4369 -1.3368 -3.1152
 5046TIP3    H239334   7.587   5.564   8.742  4.6771 -1.4720  1.6298
 5047TIP3   OH239335   5.207   2.328   8.142 -0.3560 -0.3000 -0.2716
 5047TIP3    H139336   5.224   2.306   8.051  0.1099 -0.9774 -0.0252
 5047TIP3    H239337   5.111   2.324   8.151 -0.3270 -1.4513 -0.4245
 5048TIP3   OH239338   2.665   6.769   8.785  0.6667  0.0592 -0.3034
 5048TIP3    H139339   2.729   6.823   8.739  0.4286  0.0219 -0.6827
 5048TIP3    H239340   2.704   6.754   8.871  1.4879 -0.5446 -0.7706
 5049TIP3   OH239341   6.226   7.243   8.238  0.2784 -0.0968 -0.2149
 5049TIP3    H139342   6.228   7.334   8.206 -0.2448  0.7972  2.0914
 5049TIP3    H239343   6.309   7.233   8.285 -0.2913 -0.2926  0.7774
 5050TIP3   OH239344   4.355   4.479   8.146 -0.0393 -0.3092  0.2537
 5050TIP3    H139345   4.289   4.507   8.083  0.5683  0.3734 -0.0990
 5050TIP3    H239346   4.319   4.502   8.231 -0.6128 -0.7018  0.1199
 5051TIP3   OH239347   6.753   4.602   8.798 -0.0809  0.2309 -0.3120
 5051TIP3    H139348   6.763   4.607   8.703  2.0552 -0.0752 -0.1523
 5051TIP3    H239349   6.676   4.547   8.812 -0.6676  0.6287 -1.8539
 5052TIP3   OH239350   1.564   6.126   7.522  0.0453  0.2442 -0.0781
 5052TIP3    H139351   1.507   6.203   7.526  0.5500  0.5819  0.7806
 5052TIP3    H239352   1.530   6.068   7.590 -0.4834 -0.4100 -0.8813
 5053TIP3   OH239353   3.844   4.490   8.796  0.5512 -0.6629  0.6226
 5053TIP3    H139354   3.930   4.508   8.759 -1.1349  1.9509 -2.7180
 5053TIP3    H239355   3.816   4.573   8.834 -1.0550 -0.9885  0.2374
 5054TIP3   OH239356   0.764   7.448   8.300  0.1256  0.1417  0.0196
 5054TIP3    H139357   0.830   7.388   8.335 -0.2504  0.0723  0.6333
 5054TIP3    H239358   0.697   7.450   8.368  0.3526  1.6274  0.2170
 5055TIP3   OH239359   4.680   4.826   8.514 -0.1965  0.0770  0.3720
 5055TIP3    H139360   4.664   4.823   8.608 -3.2618  0.8359 -0.0458
 5055TIP3    H239361   4.702   4.917   8.496 -0.6804  0.1657  0.2187
 5056TIP3   OH239362   5.284   2.470   7.069  0.2780  0.1255  0.0733
 5056TIP3    H139363   5.342   2.532   7.026  0.2314 -0.3848 -0.7459
 5056TIP3    H239364   5.218   2.450   7.003 -1.2594  1.2201  1.1922
 5057TIP3   OH239365   1.696   1.049   8.495  0.0072  0.3358  0.0268
 5057TIP3    H139366   1.671   1.139   8.515 -1.4423 -0.3860  1.6431
 5057TIP3    H239367   1.742   1.056   8.411 -0.3423  2.5236 -0.0490
 5058TIP3   OH239368   1.354   4.342   8.175 -0.4100  0.1202 -0.0154
 5058TIP3    H139369   1.281   4.283   8.157  0.3209 -0.7645 -0.1560
 5058TIP3    H239370   1.356   4.401   8.100 -0.4477 -0.4052 -0.4361
 5059TIP3   OH239371   7.399   6.471   7.908 -0.8872 -0.3322  0.7507
 5059TIP3    H139372   7.461   6.515   7.849 -0.1980 -1.7725  0.3638
 5059TIP3    H239373   7.454   6.416   7.963 -1.6433  0.1054  1.9704
 5060TIP3   OH239374   4.528   0.354   9.128  0.1491 -0.0731  0.1835
 5060TIP3    H139375   4.538   0.259   9.139 -1.8050 -0.4412 -0.6278
 5060TIP3    H239376   4.588   0.377   9.057 -0.9802 -1.1897 -1.2165
 5061TIP3   OH239377   4.421   7.295   8.266  0.1893 -0.2524 -0.4284
 5061TIP3    H139378   4.405   7.311   8.173 -0.1337 -1.4275 -0.5922
 5061TIP3    H239379   4.484   7.363   8.292 -1.2011  1.3345 -0.9990
 5062TIP3   OH239380   3.782   6.470   8.929 -0.5350  0.8385  0.4755
 5062TIP3    H139381   3.867   6.452   8.888 -0.7368  0.6191  0.1602
 5062TIP3    H239382   3.735   6.523   8.865 -1.0560  0.0466  0.1970
 5063TIP3   OH239383   6.810   2.126   8.105  0.2919  0.4079 -0.3381
 5063TIP3    H139384   6.756   2.096   8.032  1.2498  2.2747 -1.9174
 5063TIP3    H239385   6.835   2.046   8.151 -2.1485 -0.6707 -0.6959
 5064TIP3   OH239386   5.523   3.098   7.794  0.2736 -0.4022  0.2814
 5064TIP3    H139387   5.434   3.068   7.778  0.3450 -0.6593  0.3549
 5064TIP3    H239388   5.527   3.186   7.756  0.5772 -1.1633 -1.5165
 5065TIP3   OH239389   6.105   1.882   8.841 -0.2039  0.1158  0.1297
 5065TIP3    H139390   6.048   1.900   8.916 -1.6490 -4.3839  0.4792
 5065TIP3    H239391   6.054   1.911   8.765 -1.7282 -1.0567  0.6341
 5066TIP3   OH239392   4.014   7.525   8.064 -0.2871  0.5038 -0.3412
 5066TIP3    H139393   4.024   7.538   7.970  1.0876  0.3840 -0.2220
 5066TIP3    H239394   3.985   7.434   8.073  0.7481  0.1333 -0.5993
 5067TIP3   OH239395   1.719   1.865   7.912 -0.0248 -0.5082 -0.1068
 5067TIP3    H139396   1.812   1.851   7.894  0.3275  1.1053  0.3050
 5067TIP3    H239397   1.697   1.946   7.867 -1.6822 -1.6821 -1.5587
 5068TIP3   OH239398   3.451   4.267   8.528 -0.8413  0.1378 -0.0973
 5068TIP3    H139399   3.499   4.310   8.598 -0.8109 -0.2244  0.1083
 5068TIP3    H239400   3.512   4.201   8.494 -1.2008 -0.3547  0.1932
 5069TIP3   OH239401   0.552   2.475   8.106  0.0527  0.5815 -0.0563
 5069TIP3    H139402   0.590   2.530   8.173 -0.1685  1.0166 -0.2793
 5069TIP3    H239403   0.494   2.415   8.153  0.7306  0.1578  0.2416
 5070TIP3   OH239404   0.104   6.940   8.260  0.2177  0.1669  0.0044
 5070TIP3    H139405   0.197   6.927   8.243  0.2455  1.2716 -0.8201
 5070TIP3    H239406   0.086   7.030   8.231 -1.0835  0.0090  0.2332
 5071TIP3   OH239407   4.938   6.458   7.433  0.2899 -0.0178 -0.0034
 5071TIP3    H139408   5.018   6.408   7.445  0.0596 -0.2384  0.6376
 5071TIP3    H239409   4.867   6.395   7.447 -0.0011  0.3327  0.1271
 5072TIP3   OH239410   2.826   5.611   8.042 -0.7474 -0.2424  0.2327
 5072TIP3    H139411   2.803   5.578   8.129 -0.2233  0.0403  0.4832
 5072TIP3    H239412   2.786   5.548   7.982 -0.7230 -0.7047  0.6855
 5073TIP3   OH239413   4.501   7.677   7.973 -0.6668  0.3311 -0.1813
 5073TIP3    H139414   4.432   7.742   7.988 -2.0918 -0.9027 -1.1076
 5073TIP3    H239415   4.532   7.655   8.061 -0.3612  1.9928  0.1700
 5074TIP3   OH239416   6.919   3.682   7.183  0.5049 -0.1449  0.7270
 5074TIP3    H139417   6.905   3.593   7.214  0.4023 -0.4464 -0.1635
 5074TIP3    H239418   6.851   3.695   7.117  1.7611 -0.1208 -0.5951
 5075TIP3   OH239419   5.744   5.181   9.604  0.3254 -0.5434 -0.2892
 5075TIP3    H139420   5.692   5.260   9.620 -0.6876 -1.1225 -0.5763
 5075TIP3    H239421   5.816   5.186   9.666  0.0867  0.4398 -0.0724
 5076TIP3   OH239422   1.810   2.806   6.957 -0.5713 -0.2525  0.1145
 5076TIP3    H139423   1.859   2.753   6.894 -0.2852  0.4424 -0.2613
 5076TIP3    H239424   1.718   2.796   6.932 -0.4378  0.2234 -0.5773
 5077TIP3   OH239425   3.672   2.759   8.559 -0.0394  0.1636  0.5826
 5077TIP3    H139426   3.719   2.813   8.496  1.3331 -0.0842  1.3616
 5077TIP3    H239427   3.580   2.766   8.533  0.2521  1.8461 -0.0955
 5078TIP3   OH239428   7.621   3.209   6.441 -0.5854  0.0044  0.3591
 5078TIP3    H139429   7.536   3.251   6.426 -0.8903 -1.3412 -2.4658
 5078TIP3    H239430   7.684   3.280   6.434 -1.1620  0.3992 -3.4086
 5079TIP3   OH239431   3.027   7.170   7.790  0.7231 -0.0194  0.5122
 5079TIP3    H139432   3.043   7.112   7.865 -1.3894 -1.1429  0.1756
 5079TIP3    H239433   3.005   7.254   7.829  1.9018  0.0400  1.0739
 5080TIP3   OH239434   4.526   0.042   8.291  0.0439 -0.3220 -0.4112
 5080TIP3    H139435   4.601   0.101   8.289  0.9727 -1.3922  1.2721
 5080TIP3    H239436   4.563  -0.046   8.285 -1.2346 -0.8199 -1.6492
 5081TIP3   OH239437   6.963   3.419   8.692  0.1795 -0.2970 -0.2204
 5081TIP3    H139438   6.999   3.408   8.780 -0.0983 -1.3815 -0.2264
 5081TIP3    H239439   6.898   3.489   8.701  0.2862 -0.2719  0.3986
 5082TIP3   OH239440   4.124   0.885   7.811 -0.0112 -0.2604 -0.5192
 5082TIP3    H139441   4.084   0.920   7.731 -1.1681  1.2418  0.6493
 5082TIP3    H239442   4.218   0.894   7.797 -0.2110  0.3767 -1.5434
 5083TIP3   OH239443   3.397   4.009   7.908  0.0318  0.0453 -0.4276
 5083TIP3    H139444   3.449   3.975   7.981  1.2715  1.0326 -0.8081
 5083TIP3    H239445   3.421   3.953   7.834 -1.2699 -0.9934 -0.0940
 5084TIP3   OH239446   6.480   1.760   7.778  0.3676 -0.1523 -0.0946
 5084TIP3    H139447   6.411   1.740   7.841  0.1169  1.0816  0.0465
 5084TIP3    H239448   6.526   1.677   7.766 -1.4534 -1.1267 -0.6086
 5085TIP3   OH239449   5.464   0.459   8.596  0.2647  0.5763 -0.5455
 5085TIP3    H139450   5.410   0.396   8.645  0.2497  1.4758  0.6503
 5085TIP3    H239451   5.413   0.479   8.518 -0.8718  0.9408  0.2640
 5086TIP3   OH239452   2.734   3.451   6.365  0.4869 -0.0917  0.0037
 5086TIP3    H139453   2.656   3.486   6.321  0.9881  0.7147 -0.2692
 5086TIP3    H239454   2.755   3.518   6.431  0.1241 -0.9739  1.0436
 5087TIP3   OH239455   6.886   0.752   9.392 -0.7491  0.1683  0.0976
 5087TIP3    H139456   6.902   0.659   9.382 -1.2145  0.1127 -0.1582
 5087TIP3    H239457   6.829   0.759   9.469 -1.5749  0.1478 -0.4979
 5088TIP3   OH239458   6.637   0.159   8.505  0.3521 -1.0346  0.4366
 5088TIP3    H139459   6.547   0.130   8.496 -0.1082  0.2085  0.8532
 5088TIP3    H239460   6.656   0.152   8.598  0.6981 -1.3036  0.3509
 5089TIP3   OH239461   7.423   1.104   8.847 -0.3243 -0.2742 -0.0407
 5089TIP3    H139462   7.453   1.024   8.891  0.9479  1.0046  1.5763
 5089TIP3    H239463   7.349   1.134   8.900  0.6904  0.8278  0.8228
 5090TIP3   OH239464   7.505   2.168   6.672 -0.3989 -0.4567 -0.1643
 5090TIP3    H139465   7.418   2.132   6.692 -0.4443  0.7185  2.1166
 5090TIP3    H239466   7.565   2.096   6.690 -0.8023 -0.8434 -0.3401
 5091TIP3   OH239467   0.336   4.266   8.959 -0.2949  0.0292 -0.2342
 5091TIP3    H139468   0.311   4.330   9.025 -4.7356 -1.0216 -0.5571
 5091TIP3    H239469   0.307   4.182   8.995  0.7914 -1.1267 -1.8867
 5092TIP3   OH239470   2.602   1.369   8.282 -0.2209 -0.8330  0.6886
 5092TIP3    H139471   2.649   1.315   8.218  0.0856 -2.6094  2.3184
 5092TIP3    H239472   2.535   1.414   8.231  1.8951  0.2167 -1.3780
 5093TIP3   OH239473   6.932   5.741   8.787  0.1676 -1.0476  0.2672
 5093TIP3    H139474   6.946   5.811   8.852  0.9266  0.1735 -1.1512
 5093TIP3    H239475   6.850   5.700   8.813 -1.2040  1.4546  0.2351
 5094TIP3   OH239476   5.871   2.238   8.387  0.3049  0.3545 -0.6768
 5094TIP3    H139477   5.804   2.206   8.447  0.0554  1.3266 -0.4257
 5094TIP3    H239478   5.899   2.160   8.339 -1.5164  0.0302 -1.2902
 5095TIP3   OH239479   5.275   1.319   7.513 -0.2279 -0.3336  0.1620
 5095TIP3    H139480   5.279   1.313   7.418 -0.4339 -1.8403  0.2336
 5095TIP3    H239481   5.323   1.243   7.545 -1.6846 -0.8489  1.2405
 5096TIP3   OH239482   5.553   5.434   8.568  0.0005 -0.7996  0.1106
 5096TIP3    H139483   5.492   5.365   8.596  1.9627 -3.1515 -0.9576
 5096TIP3    H239484   5.613   5.444   8.642 -0.4658  0.0125  0.3823
 5097TIP3   OH239485   0.075   7.308   7.399 -0.4544  0.0302 -0.0088
 5097TIP3    H139486  -0.005   7.277   7.441 -0.1287  0.3516  0.8911
 5097TIP3    H239487   0.068   7.280   7.308 -0.7419 -1.5391  0.4759
 5098TIP3   OH239488   2.260   6.739   8.746 -0.1862 -0.0584  0.1156
 5098TIP3    H139489   2.261   6.702   8.834 -2.1470 -0.9441 -0.1907
 5098TIP3    H239490   2.323   6.811   8.750  0.4969 -0.7003  1.9474
 5099TIP3   OH239491   5.192   0.033   7.607 -0.0338  0.3612  0.1448
 5099TIP3    H139492   5.141   0.079   7.540 -1.0543 -1.8086 -0.6736
 5099TIP3    H239493   5.280   0.069   7.599 -0.6653  1.8136 -0.7345
 5100TIP3   OH239494   4.676   5.919   8.854  0.2085  0.2582 -0.4251
 5100TIP3    H139495   4.762   5.947   8.887  0.2465 -1.5424  1.1544
 5100TIP3    H239496   4.694   5.888   8.765  0.8272  1.6244 -0.8003
 5101TIP3   OH239497   5.550   6.878   8.073  0.6876 -0.3489  0.1442
 5101TIP3    H139498   5.633   6.918   8.099 -0.0859  1.3204  0.1485
 5101TIP3    H239499   5.488   6.907   8.140 -0.2631 -0.1090 -0.8147
 5102TIP3   OH239500   4.540   6.865   9.319  0.7915  0.0931 -0.2719
 5102TIP3    H139501   4.495   6.892   9.238  0.1514  1.0570  0.3778
 5102TIP3    H239502   4.616   6.922   9.324  1.5587 -0.8612 -0.8556
 5103TIP3   OH239503   2.490   5.836   8.746 -0.3635 -0.0767 -0.6926
 5103TIP3    H139504   2.405   5.803   8.775 -0.9773  1.0909 -1.1209
 5103TIP3    H239505   2.478   5.930   8.735  1.4282  0.4044  0.7872
 5104TIP3   OH239506   0.351   3.164   7.904  0.4314 -0.3232  0.0200
 5104TIP3    H139507   0.341   3.072   7.881  0.3375 -0.0691 -1.0122
 5104TIP3    H239508   0.291   3.210   7.844  0.0281  0.3577  0.9241
 5105TIP3   OH239509   4.053   1.009   7.406  0.7832  0.1526 -0.1773
 5105TIP3    H139510   4.022   0.926   7.371  0.3527  0.2007  0.0871
 5105TIP3    H239511   4.148   1.000   7.409  0.8174  0.0722 -1.1817
 5106TIP3   OH239512   1.328   7.249   8.732  0.4109 -0.4097 -0.4232
 5106TIP3    H139513   1.352   7.274   8.642  1.4730 -0.4552 -0.1645
 5106TIP3    H239514   1.331   7.153   8.731  0.0040 -0.4225 -0.4482
 5107TIP3   OH239515   6.964   0.031   9.324 -0.6080 -0.1090 -0.4204
 5107TIP3    H139516   6.997   0.113   9.288 -0.3994 -0.2384 -0.5291
 5107TIP3    H239517   6.869   0.042   9.326 -0.6606 -0.2722 -1.4361
 5108TIP3   OH239518   5.478   5.712   7.025  0.2699  0.6854  0.4206
 5108TIP3    H139519   5.547   5.697   6.960 -0.1993 -0.2621  0.1221
 5108TIP3    H239520   5.396   5.697   6.978 -0.1717  2.0234  0.7140
 5109TIP3   OH239521   7.067   2.299   7.702  0.0021 -0.1338 -0.4574
 5109TIP3    H139522   6.973   2.289   7.685  0.1141 -0.8259 -0.7229
 5109TIP3    H239523   7.088   2.387   7.672 -0.8468  0.5797  0.9305
 5110TIP3   OH239524   0.748   7.333   9.030  0.7886 -0.1498  0.0308
 5110TIP3    H139525   0.764   7.341   9.124  0.4322 -0.7542  0.1478
 5110TIP3    H239526   0.776   7.417   8.994 -1.5918  1.1585  1.0140
 5111TIP3   OH239527   1.505   0.180   8.121  0.0048  0.3618 -1.1359
 5111TIP3    H139528   1.426   0.176   8.068  0.0954  0.5106 -1.2849
 5111TIP3    H239529   1.563   0.240   8.073  0.7465 -0.8178 -1.7587
 5112TIP3   OH239530   3.597   2.643   8.034  0.0879  0.3113  0.2066
 5112TIP3    H139531   3.558   2.578   7.976 -0.6735  0.7430  0.2238
 5112TIP3    H239532   3.535   2.651   8.107 -0.2581  1.6656 -0.2060
 5113TIP3   OH239533   3.957   0.030   7.392  0.2625  0.4282  0.2828
 5113TIP3    H139534   3.899   0.045   7.468 -0.7954  2.0871 -0.7808
 5113TIP3    H239535   3.901   0.044   7.316  1.5217 -0.3077 -0.8228
 5114TIP3   OH239536   6.972   3.418   8.151  0.0469  0.5018 -0.2176
 5114TIP3    H139537   7.034   3.442   8.220 -1.1784 -0.4810  1.2951
 5114TIP3    H239538   6.923   3.344   8.188 -0.3356 -0.3734 -2.3520
 5115TIP3   OH239539   2.530   0.294   6.852 -0.2034  0.2637  0.3528
 5115TIP3    H139540   2.436   0.275   6.856  0.1107 -1.7334 -0.4850
 5115TIP3    H239541   2.536   0.388   6.871 -2.6672  1.1835 -2.5039
 5116TIP3   OH239542   6.006   5.263   8.579 -0.2266 -0.5704  0.3695
 5116TIP3    H139543   6.084   5.320   8.583  0.2188 -1.0270 -1.0309
 5116TIP3    H239544   5.940   5.317   8.536  0.8641 -1.7075 -3.0303
 5117TIP3   OH239545   3.322   4.973   8.160 -0.2919 -0.2268 -0.1488
 5117TIP3    H139546   3.291   4.948   8.073 -2.0332 -0.4056  0.4966
 5117TIP3    H239547   3.268   5.047   8.185 -1.0533 -1.2920  1.5029
 5118TIP3   OH239548   4.777   3.741   7.389 -0.2591  0.0844 -0.1843
 5118TIP3    H139549   4.761   3.835   7.377 -1.0229  0.0307  0.3426
 5118TIP3    H239550   4.816   3.713   7.307 -0.2256  0.8208 -0.4308
 5119TIP3   OH239551   3.136   2.656   8.263 -0.3720  0.1084  0.1735
 5119TIP3    H139552   3.156   2.729   8.203 -0.8847 -0.0214 -0.1598
 5119TIP3    H239553   3.121   2.581   8.206 -0.2990 -0.1563  0.4973
 5120TIP3   OH239554   7.097   4.514   8.562  0.4220  0.1185  0.3383
 5120TIP3    H139555   7.172   4.457   8.575  1.1277  0.3326 -2.3166
 5120TIP3    H239556   7.076   4.506   8.469 -1.0506  2.2450  0.4095
 5121TIP3   OH239557   2.954   1.415   8.287  0.1426 -0.2896 -0.4000
 5121TIP3    H139558   2.895   1.385   8.217  0.6360 -1.2613 -0.4163
 5121TIP3    H239559   2.907   1.398   8.368 -0.5952  1.2041 -0.4915
 5122TIP3   OH239560   1.410   2.491   7.425 -0.1614  0.0651  0.5759
 5122TIP3    H139561   1.456   2.552   7.483 -0.8608  0.0430  1.1750
 5122TIP3    H239562   1.474   2.422   7.407  0.6213  0.9389 -0.0781
 5123TIP3   OH239563   1.133   5.629   7.993  0.1479 -0.8044 -1.0335
 5123TIP3    H139564   1.153   5.538   8.015  0.7666 -0.7322 -1.2901
 5123TIP3    H239565   1.048   5.625   7.949 -0.0191 -1.2101 -0.6813
 5124TIP3   OH239566   0.927   7.140   8.217 -0.0460  0.3912  0.5445
 5124TIP3    H139567   0.940   7.051   8.249 -0.2307 -0.2845 -1.1447
 5124TIP3    H239568   0.965   7.196   8.285  1.5915 -1.0382  0.8738
 5125TIP3   OH239569   0.568   7.035   9.483 -0.3350 -0.8854 -0.4232
 5125TIP3    H139570   0.520   7.014   9.564 -0.4284 -0.0020 -0.2446
 5125TIP3    H239571   0.563   6.955   9.431 -0.2441 -1.4829  0.4629
 5126TIP3   OH239572   5.281   1.151   8.531  0.1022  0.5493 -0.3828
 5126TIP3    H139573   5.209   1.184   8.477  0.0356  0.3558 -0.4131
 5126TIP3    H239574   5.287   1.058   8.509 -0.0170  0.4399  0.0507
 5127TIP3   OH239575   6.675   6.964   7.982 -0.1870  0.3916 -0.2810
 5127TIP3    H139576   6.689   6.873   8.010  0.6894  0.8305  0.7639
 5127TIP3    H239577   6.683   7.015   8.062  1.3928  1.5993 -1.1424
 5128TIP3   OH239578   6.731   5.592   8.939 -0.3755  0.0264  0.2407
 5128TIP3    H139579   6.657   5.564   8.992 -0.1178  0.3821  0.7935
 5128TIP3    H239580   6.807   5.583   8.996  0.1175 -0.9820 -0.5302
 5129TIP3   OH239581   4.075   4.628   9.328 -0.2908  0.3244  0.1329
 5129TIP3    H139582   4.015   4.693   9.293 -0.9907 -0.2400  0.2629
 5129TIP3    H239583   4.043   4.610   9.416 -0.9539 -1.2121 -0.3914
 5130TIP3   OH239584   1.896   7.434   9.162 -0.1635 -0.2837 -0.1554
 5130TIP3    H139585   1.918   7.524   9.138  0.5912 -0.6961 -1.0735
 5130TIP3    H239586   1.824   7.410   9.103 -0.6965 -0.1369  0.4166
 5131TIP3   OH239587   7.538   4.779   6.785  0.0223  0.2552 -0.1370
 5131TIP3    H139588   7.504   4.810   6.701 -0.3364 -0.0538 -0.1108
 5131TIP3    H239589   7.587   4.853   6.820 -2.0389  1.3692  0.6102
 5132TIP3   OH239590   5.826   0.686   6.856  0.1126  0.1663  0.3305
 5132TIP3    H139591   5.824   0.763   6.912  1.3582 -0.3964  1.1848
 5132TIP3    H239592   5.734   0.664   6.842 -0.3373  2.5589 -1.0406
 5133TIP3   OH239593   3.217   4.531   9.536 -0.0190  1.0861 -0.1548
 5133TIP3    H139594   3.229   4.562   9.446 -0.7800  1.6446 -0.0741
 5133TIP3    H239595   3.183   4.442   9.526  1.1327  0.6608 -0.4000
 5134TIP3   OH239596   0.064   7.409   7.934 -0.3812  0.0099 -0.5381
 5134TIP3    H139597   0.078   7.496   7.897 -0.2646  0.3742  0.3180
 5134TIP3    H239598  -0.004   7.422   8.001 -0.2388 -0.5228 -0.2818
 5135TIP3   OH239599   5.539   6.933   9.290  0.3404  0.0541 -0.0497
 5135TIP3    H139600   5.541   7.011   9.344  0.3336 -0.2139  0.3419
 5135TIP3    H239601   5.451   6.931   9.252  0.1628 -0.0472  0.3636
 5136TIP3   OH239602   4.563   6.991   7.200 -0.4642 -0.0395  0.2325
 5136TIP3    H139603   4.567   7.014   7.292 -1.7658 -0.2289  0.3567
 5136TIP3    H239604   4.609   6.907   7.194 -0.0753  0.1416  0.6358
 5137TIP3   OH239605   5.018   2.849   8.328  0.0668 -0.2794  0.7795
 5137TIP3    H139606   5.086   2.889   8.382 -0.8167 -0.0732  1.7705
 5137TIP3    H239607   4.980   2.781   8.383 -1.9990  1.0533  1.1152
 5138TIP3   OH239608   5.673   2.960   8.149  0.2900  0.2213  0.4413
 5138TIP3    H139609   5.679   3.054   8.167 -0.3017  0.3344  0.0601
 5138TIP3    H239610   5.586   2.948   8.112  1.0685 -0.1820 -1.3315
 5139TIP3   OH239611   3.966   4.949   8.995 -0.4183  0.0614 -0.5597
 5139TIP3    H139612   3.879   4.975   8.966 -0.3657  1.2316  0.2340
 5139TIP3    H239613   4.019   5.028   8.984  0.3593 -0.4126 -0.3072
 5140TIP3   OH239614   6.972   4.788   8.258  0.5027 -0.0427 -0.1338
 5140TIP3    H139615   6.971   4.695   8.279  4.5466 -0.0024  1.1341
 5140TIP3    H239616   6.920   4.829   8.326 -0.5211 -1.2691 -0.1485
 5141TIP3   OH239617   2.191   6.344   9.108  0.7103  0.5445 -0.4522
 5141TIP3    H139618   2.219   6.271   9.054 -1.0875 -1.0879  0.6545
 5141TIP3    H239619   2.114   6.379   9.063 -1.6974 -1.7382  1.4975
 5142TIP3   OH239620   4.772   3.436   8.174  0.4667 -0.4285 -0.0165
 5142TIP3    H139621   4.737   3.525   8.181 -0.9769 -1.0573  2.0010
 5142TIP3    H239622   4.715   3.393   8.110 -1.0090 -0.7627  1.4478
 5143TIP3   OH239623   1.139   3.080   7.225  0.6357  0.1905  0.3545
 5143TIP3    H139624   1.145   3.134   7.146 -0.1252 -0.0049  0.1642
 5143TIP3    H239625   1.090   3.003   7.198  0.3650  0.1268  1.0262
 5144TIP3   OH239626   7.198   1.178   8.982  0.0244  0.1379  0.2227
 5144TIP3    H139627   7.103   1.187   8.989  0.0445  1.2557 -0.5246
 5144TIP3    H239628   7.228   1.266   8.957  1.3218 -0.0490  1.0417
 5145TIP3   OH239629   4.695   1.336   8.204 -0.2290  0.5119 -0.1813
 5145TIP3    H139630   4.649   1.293   8.276 -0.1079  1.4549  0.4789
 5145TIP3    H239631   4.645   1.416   8.189 -0.1600  0.3959 -1.0474
 5146TIP3   OH239632   0.071   2.947   7.899 -0.7689 -0.6466  0.5023
 5146TIP3    H139633   0.143   2.964   7.839 -3.1105  0.9028 -2.1453
 5146TIP3    H239634   0.083   3.010   7.970  2.9020 -3.5159  2.7792
 5147TIP3   OH239635   4.122   5.937   7.230 -0.0694  0.0594 -0.0345
 5147TIP3    H139636   4.166   5.987   7.161  1.1912  0.6460  1.1506
 5147TIP3    H239637   4.137   5.846   7.207 -1.5433  0.1911 -1.6927
 5148TIP3   OH239638   5.645   0.958   8.652  0.4768 -0.4624 -0.1977
 5148TIP3    H139639   5.647   0.936   8.746 -1.8437  1.7295  0.4651
 5148TIP3    H239640   5.574   0.905   8.616  0.4426 -0.2637 -0.4240
 5149TIP3   OH239641   3.889   7.527   9.398  0.2416 -0.2442 -0.0724
 5149TIP3    H139642   3.927   7.605   9.358  1.3403 -0.8435 -0.2475
 5149TIP3    H239643   3.818   7.560   9.452  1.1399  0.9664  0.4211
 5150TIP3   OH239644   4.028   7.295   7.628 -0.4406  0.3431 -0.0529
 5150TIP3    H139645   4.006   7.308   7.536  2.5775 -0.9701 -1.0855
 5150TIP3    H239646   4.112   7.341   7.639 -1.2009  1.3101  2.3491
 5151TIP3   OH239647   2.426   1.488   7.232 -0.1413 -0.1585  0.0579
 5151TIP3    H139648   2.345   1.438   7.216 -1.4004  1.2726  1.6583
 5151TIP3    H239649   2.432   1.547   7.158  0.7319 -1.8006 -1.2533
 5152TIP3   OH239650   1.097   4.799   8.632 -0.2249  0.1087 -0.1789
 5152TIP3    H139651   1.090   4.781   8.538 -1.4599  0.1586 -0.1161
 5152TIP3    H239652   1.088   4.712   8.673 -2.6440  0.3634 -0.0192
 5153TIP3   OH239653   5.060   4.932   8.656 -0.3592  0.4356  0.2058
 5153TIP3    H139654   5.124   4.871   8.691 -0.4296 -0.3759 -1.0309
 5153TIP3    H239655   4.983   4.922   8.712  0.7943  1.9870  2.2020
 5154TIP3   OH239656   4.908   3.502   7.389  0.6803 -0.2619 -0.0226
 5154TIP3    H139657   4.880   3.586   7.425 -1.5055 -1.7994  2.1852
 5154TIP3    H239658   4.980   3.524   7.329 -1.2811  3.3878 -1.3618
 5155TIP3   OH239659   0.137   6.556   8.920  0.6442 -0.2966  0.8627
 5155TIP3    H139660   0.187   6.500   8.860  0.2333  0.6840 -0.4327
 5155TIP3    H239661   0.205   6.600   8.972  1.1548  0.6348 -0.5301
 5156TIP3   OH239662   1.159   4.541   8.725 -0.3418  0.1726 -0.4928
 5156TIP3    H139663   1.199   4.454   8.722 -0.3599  0.1871 -1.4939
 5156TIP3    H239664   1.169   4.569   8.816  2.6941  0.5472 -0.8556
 5157TIP3   OH239665   4.828   1.019   7.674  0.2137  0.1988  1.0436
 5157TIP3    H139666   4.885   1.095   7.672  2.1562 -1.1659  1.4739
 5157TIP3    H239667   4.875   0.952   7.623 -1.1608 -0.8907  1.1367
 5158TIP3   OH239668   2.907   7.402   7.168  0.9142  0.1111 -0.2056
 5158TIP3    H139669   2.963   7.330   7.196 -0.2819 -0.5980  0.4115
 5158TIP3    H239670   2.968   7.469   7.138  2.0657 -0.9122 -0.2115
 5159TIP3   OH239671   0.198   3.939   7.760 -0.0689  0.4441  0.4816
 5159TIP3    H139672   0.263   4.005   7.736  1.2677 -0.4512  1.4499
 5159TIP3    H239673   0.133   3.942   7.691 -0.1828  2.9303  0.6330
 5160TIP3   OH239674   6.379   7.646   7.537  0.5366  0.0390 -0.3638
 5160TIP3    H139675   6.344   7.600   7.613  1.8851 -0.9417 -0.3247
 5160TIP3    H239676   6.319   7.622   7.466 -1.5066  1.9745  0.5610
 5161TIP3   OH239677   5.383   2.452   9.294  0.0513 -0.1250 -0.3437
 5161TIP3    H139678   5.470   2.473   9.328  0.0817 -1.5584  0.5707
 5161TIP3    H239679   5.376   2.357   9.305 -1.3467 -0.1280 -1.0924
 5162TIP3   OH239680   4.253   0.772   9.207 -0.1501  0.3404  0.2430
 5162TIP3    H139681   4.271   0.678   9.200  0.1243  0.4876 -1.4904
 5162TIP3    H239682   4.337   0.810   9.234 -0.4247  0.0470  1.5806
 5163TIP3   OH239683   4.030   2.996   6.923  0.1818  0.4091  0.6480
 5163TIP3    H139684   4.048   2.903   6.910  0.8425  0.4088  1.4217
 5163TIP3    H239685   3.935   3.001   6.932  0.1822 -0.2748  1.1542
 5164TIP3   OH239686   5.945   1.115   8.707 -0.1285 -0.2549 -0.5175
 5164TIP3    H139687   5.858   1.155   8.700  0.7768  1.7926 -0.6227
 5164TIP3    H239688   5.996   1.157   8.638  0.8769 -1.6960 -0.6937
 5165TIP3   OH239689   3.495   5.909   7.170 -0.8357 -0.0419 -0.2580
 5165TIP3    H139690   3.495   5.996   7.130 -0.3379 -0.2354 -0.7073
 5165TIP3    H239691   3.532   5.852   7.102 -2.1679 -0.7976 -0.3768
 5166TIP3   OH239692   0.639   7.238   9.284  0.1762  0.5924 -0.4252
 5166TIP3    H139693   0.690   7.173   9.236 -1.0479 -0.7222 -0.0053
 5166TIP3    H239694   0.639   7.207   9.374 -2.4549 -0.1953 -0.6366
 5167TIP3   OH239695   5.967   6.215   7.080  0.0495  0.3159 -0.1543
 5167TIP3    H139696   6.001   6.274   7.147  0.5802 -1.2676  1.0355
 5167TIP3    H239697   6.043   6.166   7.050 -0.6811 -1.2593  0.4641
 5168TIP3   OH239698   1.074   6.603   8.774  0.7992  0.2058 -0.2438
 5168TIP3    H139699   1.047   6.674   8.716 -1.4736  0.4788  1.0203
 5168TIP3    H239700   1.134   6.645   8.836 -0.4054  1.0361  0.4010
 5169TIP3   OH239701   4.378   1.979   7.677  0.0459 -0.0810  0.0590
 5169TIP3    H139702   4.325   1.922   7.733 -0.0326 -0.4666 -0.3975
 5169TIP3    H239703   4.466   1.939   7.678 -0.1776 -0.6382 -0.8290
 5170TIP3   OH239704   2.280   1.741   8.239  0.3758  0.6941  0.5435
 5170TIP3    H139705   2.278   1.837   8.239 -4.0098  0.9033 -2.6762
 5170TIP3    H239706   2.243   1.716   8.323  1.2996  1.8119  1.3026
 5171TIP3   OH239707   3.080   6.509   8.868  0.1339  0.0978  0.2948
 5171TIP3    H139708   3.157   6.454   8.862  0.3347  0.4243 -0.1540
 5171TIP3    H239709   3.049   6.497   8.958  0.8435  0.1441  0.5549
 5172TIP3   OH239710   7.463   7.642   7.029  0.9156  0.7469 -0.0595
 5172TIP3    H139711   7.403   7.607   6.963 -1.7029  2.8884  0.9902
 5172TIP3    H239712   7.477   7.733   7.001  2.6421  0.6584  0.4644
 5173TIP3   OH239713   1.493   4.934   6.734  0.1148 -0.2022 -0.3817
 5173TIP3    H139714   1.419   4.972   6.687  1.0216  0.3307 -1.4200
 5173TIP3    H239715   1.570   4.963   6.685  1.0769  0.0247  1.2084
 5174TIP3   OH239716   4.505   4.473   8.791 -0.3775 -0.2906 -0.4185
 5174TIP3    H139717   4.477   4.530   8.863 -0.0838  0.4733 -0.8921
 5174TIP3    H239718   4.465   4.388   8.810 -0.4039 -0.0664  0.5754
 5175TIP3   OH239719   5.448   2.006   8.699 -0.1394  0.0659  0.1855
 5175TIP3    H139720   5.380   1.939   8.690 -2.1006  2.0076 -0.3345
 5175TIP3    H239721   5.491   2.008   8.614 -0.5413 -0.0790 -0.0268
 5176TIP3   OH239722   1.211   1.283   8.683  0.3677  0.2411  0.0135
 5176TIP3    H139723   1.291   1.334   8.700  0.2142  1.3669 -2.3173
 5176TIP3    H239724   1.140   1.338   8.717  0.4265  0.0124  0.5284
 5177TIP3   OH239725   4.066   0.378   7.330 -0.8313  0.7047  0.1806
 5177TIP3    H139726   4.074   0.328   7.411  0.0918  2.7453  1.4205
 5177TIP3    H239727   3.977   0.415   7.333 -1.1706 -0.0269 -0.2856
 5178TIP3   OH239728   6.799   0.431   8.488 -0.0758  0.2065  0.0377
 5178TIP3    H139729   6.716   0.415   8.444  0.7555 -1.5417 -0.9617
 5178TIP3    H239730   6.786   0.397   8.577 -0.1866 -0.8130 -0.3592
 5179TIP3   OH239731   0.470   2.969   8.744 -0.0432  0.3893 -0.4512
 5179TIP3    H139732   0.387   2.927   8.722  1.1215 -2.2657 -0.2406
 5179TIP3    H239733   0.525   2.897   8.777  2.1770  2.1193 -0.1264
 5180TIP3   OH239734   2.380   4.745   9.182 -0.0230 -0.0326 -0.2753
 5180TIP3    H139735   2.429   4.757   9.100 -2.2948  0.2691 -1.6897
 5180TIP3    H239736   2.347   4.656   9.178 -0.2497  0.0249  0.2471
 5181TIP3   OH239737   3.697   4.736   8.789  0.0762  0.7995  0.5676
 5181TIP3    H139738   3.650   4.778   8.861  0.1754 -1.6243  2.1841
 5181TIP3    H239739   3.630   4.720   8.723 -0.5134  1.0455  1.0982
 5182TIP3   OH239740   4.072   4.105   7.740  0.0878 -0.0801  0.3816
 5182TIP3    H139741   4.057   4.170   7.671 -1.4915 -0.1902  0.5860
 5182TIP3    H239742   3.986   4.064   7.753  0.9203 -1.8554  0.6181
 5183TIP3   OH239743   0.070   4.303   9.310 -0.0905  0.1551 -0.0046
 5183TIP3    H139744   0.011   4.246   9.359  0.4382 -0.6584 -0.2944
 5183TIP3    H239745   0.016   4.377   9.283 -1.0879 -0.7903 -0.6467
 5184TIP3   OH239746   4.598   2.795   8.484  0.0041  0.6188  0.0719
 5184TIP3    H139747   4.590   2.709   8.444 -0.4135 -0.3085  2.0571
 5184TIP3    H239748   4.681   2.793   8.530 -0.9628  0.4814  1.8757
 5185TIP3   OH239749   4.666   2.783   8.834 -0.3724  1.0058  0.1459
 5185TIP3    H139750   4.728   2.752   8.900 -0.5403  2.6118  1.1136
 5185TIP3    H239751   4.715   2.847   8.783 -0.9763  1.6495  0.3658
 5186TIP3   OH239752   0.291   6.414   7.924  0.3482 -0.5436  0.0379
 5186TIP3    H139753   0.222   6.348   7.915  0.1972 -0.3267 -0.4228
 5186TIP3    H239754   0.371   6.368   7.897  0.1437 -0.3595 -0.9192
 5187TIP3   OH239755   3.585   0.032   8.224 -0.1189  0.4609 -0.0652
 5187TIP3    H139756   3.512   0.017   8.165 -0.4010  0.0703  0.3732
 5187TIP3    H239757   3.663   0.014   8.172 -0.3962 -1.0151 -0.0166
 5188TIP3   OH239758   4.045   3.014   8.142 -0.6828 -0.8054  0.1739
 5188TIP3    H139759   4.015   2.965   8.065 -1.1176 -1.0660  0.5043
 5188TIP3    H239760   4.098   2.951   8.191 -0.0493 -0.5145 -0.1187
 5189TIP3   OH239761   3.921   1.101   8.390 -0.0347  0.7208 -0.2253
 5189TIP3    H139762   3.845   1.134   8.438  0.2871  1.9945 -0.5423
 5189TIP3    H239763   3.990   1.091   8.456 -0.7335 -1.4437  0.2513
 5190TIP3   OH239764   3.190   1.157   8.896 -0.4557  0.2929  0.4435
 5190TIP3    H139765   3.170   1.175   8.804 -1.2409  0.8058  0.6987
 5190TIP3    H239766   3.228   1.069   8.896  0.5753  0.7291 -0.4847
 5191TIP3   OH239767   1.576   1.389   8.034  0.8299 -0.2707 -0.6063
 5191TIP3    H139768   1.669   1.375   8.021  1.2419  0.0452  1.6132
 5191TIP3    H239769   1.570   1.453   8.104 -1.0372 -1.0037 -0.0055
 5192TIP3   OH239770   1.418   6.423   7.097 -0.0738 -0.2498  0.0461
 5192TIP3    H139771   1.371   6.483   7.039 -0.7481 -0.5728  0.2481
 5192TIP3    H239772   1.400   6.457   7.185 -1.6600 -1.5532  0.2683
 5193TIP3   OH239773   7.576   6.827   8.080  0.5363  0.6250 -0.2833
 5193TIP3    H139774   7.651   6.881   8.107  2.0288 -0.9448 -1.0923
 5193TIP3    H239775   7.542   6.790   8.162  1.1064  0.7971  0.0359
 5194TIP3   OH239776   3.203   4.764   9.694 -0.1839 -0.1699  0.3811
 5194TIP3    H139777   3.168   4.694   9.639  0.7072 -0.2296 -0.1366
 5194TIP3    H239778   3.206   4.726   9.782 -1.3321 -0.1803  0.4219
 5195TIP3   OH239779   3.153   6.405   7.529 -0.0904  0.5978 -0.6307
 5195TIP3    H139780   3.111   6.322   7.549  2.5798 -1.0430 -1.3172
 5195TIP3    H239781   3.119   6.428   7.442  0.0190 -0.4273 -0.9624
 5196TIP3   OH239782   4.366   6.903   9.542 -0.1921  0.1980  0.9285
 5196TIP3    H139783   4.400   6.894   9.453 -2.0703 -0.6531  0.2450
 5196TIP3    H239784   4.310   6.980   9.539 -0.6592 -0.1283  1.2416
 5197TIP3   OH239785   4.487   2.566   8.805 -0.1622 -0.3368 -0.4692
 5197TIP3    H139786   4.406   2.563   8.855 -0.1646 -0.9412 -0.4998
 5197TIP3    H239787   4.515   2.657   8.810  0.5629 -0.6178  1.8170
 5198TIP3   OH239788   2.370   5.314   8.599  0.2362 -0.4128  0.5622
 5198TIP3    H139789   2.422   5.266   8.534  1.3290  1.0109  0.3150
 5198TIP3    H239790   2.375   5.406   8.570 -1.0027 -0.0175  1.5136
 5199TIP3   OH239791   5.946   2.763   8.693  0.1574  0.3157 -0.1218
 5199TIP3    H139792   5.987   2.752   8.607  0.2757 -0.4139  0.0221
 5199TIP3    H239793   5.888   2.687   8.703 -1.2493  1.3310 -0.3165
 5200TIP3   OH239794   7.438   5.743   7.858  0.2250 -0.1411  0.1430
 5200TIP3    H139795   7.451   5.836   7.843 -1.0099  0.3492  1.7491
 5200TIP3    H239796   7.348   5.726   7.829  0.2935 -0.7210  0.2523
 5201TIP3   OH239797   2.335   0.724   9.463  0.0882  0.1997 -0.1864
 5201TIP3    H139798   2.330   0.641   9.415  3.1286 -0.5589  0.6150
 5201TIP3    H239799   2.404   0.773   9.418 -0.6733  1.7274  0.2479
 5202TIP3   OH239800   1.336   1.981   8.272  0.0583 -0.1720 -0.0484
 5202TIP3    H139801   1.270   1.946   8.211  0.4563  1.1891 -1.3123
 5202TIP3    H239802   1.293   1.979   8.357 -0.1339 -3.1908 -0.0831
 5203TIP3   OH239803   1.040   1.104   7.303 -0.9704  0.1998  0.3552
 5203TIP3    H139804   1.058   1.154   7.223 -2.4980  1.3058  0.6615
 5203TIP3    H239805   1.116   1.120   7.359 -0.5257  0.5489 -0.3290
 5204TIP3   OH239806   3.650   5.283   8.384 -0.3771  0.4487 -0.5068
 5204TIP3    H139807   3.709   5.229   8.330 -1.2422 -1.1443  0.0666
 5204TIP3    H239808   3.596   5.330   8.321  0.7158  1.0460 -1.0286
 5205TIP3   OH239809   6.032   1.545   9.075  0.3991  0.4255  0.6208
 5205TIP3    H139810   5.994   1.548   8.987  1.4357 -2.6677 -0.0829
 5205TIP3    H239811   5.960   1.514   9.130  0.1491  0.8978  0.5601
 5206TIP3   OH239812   0.145   1.202   8.191 -0.0704  0.3157  0.2272
 5206TIP3    H139813   0.214   1.231   8.251 -1.1481 -1.4896  2.5118
 5206TIP3    H239814   0.166   1.110   8.175 -0.5786  0.4200 -1.1211
 5207TIP3   OH239815   4.668   7.242   7.866  0.5233 -0.3732 -0.0935
 5207TIP3    H139816   4.576   7.218   7.876  0.5786 -0.1657  1.0582
 5207TIP3    H239817   4.703   7.242   7.955  0.9930  2.1246 -0.2095
 5208TIP3   OH239818   0.728   0.883   7.302 -0.3689  0.1700  0.3272
 5208TIP3    H139819   0.736   0.960   7.246 -1.4263 -0.6767 -1.0568
 5208TIP3    H239820   0.634   0.863   7.302 -0.3757  0.0324  2.2907
 5209TIP3   OH239821   4.261   7.113   7.439 -0.3448 -1.1341 -0.2871
 5209TIP3    H139822   4.269   7.186   7.500 -2.4418 -0.0247 -1.2610
 5209TIP3    H239823   4.217   7.044   7.490 -0.5877 -0.8330 -0.0896
 5210TIP3   OH239824   6.088   6.873   9.363 -0.0420 -0.1139 -0.1848
 5210TIP3    H139825   6.108   6.791   9.408  0.6913 -0.3918 -0.9781
 5210TIP3    H239826   5.993   6.872   9.354 -0.2018 -0.0622  1.2976
 5211TIP3   OH239827   0.180   5.698   8.897 -0.4610 -0.3437  0.1216
 5211TIP3    H139828   0.146   5.729   8.980  0.8500 -0.4085  0.7083
 5211TIP3    H239829   0.124   5.739   8.831 -1.5298 -0.3222  1.0277
 5212TIP3   OH239830   6.598   2.634   8.240 -0.0264  0.2518 -0.2507
 5212TIP3    H139831   6.604   2.543   8.209 -0.9284  0.0582  0.0866
 5212TIP3    H239832   6.677   2.647   8.292 -0.7857 -1.0023  1.3051
 5213TIP3   OH239833   6.346   7.245   9.244  0.0648  0.4867  0.1171
 5213TIP3    H139834   6.417   7.180   9.235 -0.8620 -0.8780  1.9950
 5213TIP3    H239835   6.373   7.299   9.319 -0.6586  0.2326  0.5665
 5214TIP3   OH239836   2.443   4.685   8.543  0.6709 -0.2802 -0.2436
 5214TIP3    H139837   2.370   4.689   8.605  0.3137 -2.4248 -0.4493
 5214TIP3    H239838   2.490   4.767   8.556 -1.3637  0.8470  0.4035
 5215TIP3   OH239839   2.505   1.102   7.043 -0.8674 -0.0886 -0.3908
 5215TIP3    H139840   2.470   1.108   7.132 -2.2142 -2.9248 -0.5828
 5215TIP3    H239841   2.432   1.066   6.991  1.0381 -2.4033 -1.7096
 5216TIP3   OH239842   2.121   5.228   7.540 -0.3011 -0.2799  0.6690
 5216TIP3    H139843   2.215   5.210   7.537 -0.2463  0.0594  0.0601
 5216TIP3    H239844   2.090   5.207   7.452 -0.6489  0.3649  0.6327
 5217TIP3   OH239845   6.345   4.036   8.538  0.3472  0.1302  0.5906
 5217TIP3    H139846   6.304   4.014   8.454  1.0111  2.4395 -0.4104
 5217TIP3    H239847   6.313   3.969   8.598  0.9149 -2.4556 -1.7523
 5218TIP3   OH239848   6.301   5.090   9.409  0.1451 -0.3206 -0.2131
 5218TIP3    H139849   6.375   5.149   9.423  0.6859 -0.8778 -0.6899
 5218TIP3    H239850   6.341   5.006   9.387 -0.6290 -0.3193 -1.7105
 5219TIP3   OH239851   6.535   3.124   9.072 -0.4128 -0.3217 -0.1586
 5219TIP3    H139852   6.510   3.032   9.058 -0.6716 -0.0920 -1.2957
 5219TIP3    H239853   6.606   3.120   9.136 -0.8932 -1.2620  0.3418
 5220TIP3   OH239854   7.134   5.733   8.523  0.2792  0.0597  0.2923
 5220TIP3    H139855   7.094   5.653   8.488 -0.6003  0.7463 -0.3210
 5220TIP3    H239856   7.113   5.731   8.616  0.5550 -0.5944  0.3428
 5221TIP3   OH239857   1.419   4.495   9.486  0.3892  0.0468  0.1391
 5221TIP3    H139858   1.475   4.536   9.552  0.0229  0.8736 -0.0539
 5221TIP3    H239859   1.351   4.560   9.468 -0.6175 -0.9264  0.3272
 5222TIP3   OH239860   2.708   3.172   7.759 -0.3765  0.0729  0.8846
 5222TIP3    H139861   2.704   3.088   7.803  1.4944 -1.5093 -1.6737
 5222TIP3    H239862   2.657   3.161   7.679  1.9515  0.3633 -0.7758
 5223TIP3   OH239863   5.971   4.853   7.720 -0.1030  0.1322  0.9408
 5223TIP3    H139864   6.031   4.798   7.770 -0.0539 -0.6007  0.1071
 5223TIP3    H239865   5.900   4.793   7.695 -0.8620  0.8368  1.3800
 5224TIP3   OH239866   3.414   2.293   7.564 -0.2453  0.1166  0.2840
 5224TIP3    H139867   3.506   2.269   7.576 -0.1128  0.0860 -0.7190
 5224TIP3    H239868   3.367   2.236   7.624  0.3343 -0.3662  0.2967
 5225TIP3   OH239869   1.140   5.121   6.968 -0.1900  0.3999 -0.3191
 5225TIP3    H139870   1.225   5.080   6.953 -0.3194  0.5535 -1.6481
 5225TIP3    H239871   1.121   5.166   6.885 -2.3420 -1.0516 -0.6881
 5226TIP3   OH239872   0.839   4.203   8.523 -0.2255  0.4628 -0.2829
 5226TIP3    H139873   0.758   4.192   8.472 -0.3763 -2.6850  0.4885
 5226TIP3    H239874   0.908   4.176   8.463 -0.1151 -0.3161  0.1860
 5227TIP3   OH239875   0.778   4.396   7.627 -0.0196 -0.3502  0.1510
 5227TIP3    H139876   0.808   4.370   7.714 -1.7136  0.6781  1.1239
 5227TIP3    H239877   0.706   4.336   7.607 -1.0268  0.7157  0.4430
 5228TIP3   OH239878   6.904   5.688   9.618  0.4797  1.0165 -0.1563
 5228TIP3    H139879   6.896   5.751   9.546  0.6489  0.8855 -0.2900
 5228TIP3    H239880   6.969   5.625   9.588  0.1150  0.6243 -0.1348
 5229TIP3   OH239881   0.779   3.452   8.952 -0.1249 -0.2700  0.7214
 5229TIP3    H139882   0.752   3.472   9.042 -2.0261 -1.2512  0.4152
 5229TIP3    H239883   0.821   3.366   8.959  0.1629 -0.1296  0.7338
 5230TIP3   OH239884   7.219   3.486   7.312 -0.0313 -0.4111 -0.7187
 5230TIP3    H139885   7.234   3.579   7.332  0.7870 -0.0672 -2.6798
 5230TIP3    H239886   7.171   3.453   7.388 -0.0434  1.5242  0.1919
 5231TIP3   OH239887   7.586   5.756   7.398  0.3293 -0.4813  0.0228
 5231TIP3    H139888   7.674   5.788   7.419  0.5915 -0.7284 -0.6774
 5231TIP3    H239889   7.600   5.669   7.361 -0.2811 -0.8733  0.6875
 5232TIP3   OH239890   2.619   5.275   9.424  0.3887  0.5445  0.0395
 5232TIP3    H139891   2.687   5.271   9.357 -0.0980  4.4425 -0.9774
 5232TIP3    H239892   2.539   5.294   9.375 -0.5698  0.4781  1.5313
 5233TIP3   OH239893   5.915   7.661   8.149  0.1764  0.4095  0.5253
 5233TIP3    H139894   5.941   7.657   8.241  0.9871 -1.0093  0.2560
 5233TIP3    H239895   5.994   7.641   8.100 -0.8141 -1.5842 -0.3803
 5234TIP3   OH239896   7.474   7.106   8.519  0.0933 -0.3567 -0.0318
 5234TIP3    H139897   7.459   7.055   8.599 -0.3505 -0.8648 -0.4320
 5234TIP3    H239898   7.440   7.050   8.449  0.0937  0.2687 -0.5332
 5235TIP3   OH239899   3.689   1.003   8.057  0.1437  0.1914  0.5391
 5235TIP3    H139900   3.653   0.955   8.131 -0.0230 -3.0176 -1.4152
 5235TIP3    H239901   3.772   0.959   8.038  0.4725  1.3138 -0.7982
 5236TIP3   OH239902   6.196   6.605   8.175 -0.0180 -0.6439  0.2476
 5236TIP3    H139903   6.251   6.661   8.230 -0.4589 -0.2087  0.2520
 5236TIP3    H239904   6.119   6.586   8.228 -1.2911  1.2421 -0.8000
 5237TIP3   OH239905   5.130   7.323   8.675  0.1003  0.1437 -0.0981
 5237TIP3    H139906   5.209   7.336   8.623  0.2056 -1.9075 -0.5100
 5237TIP3    H239907   5.065   7.291   8.612 -0.2682 -0.7507  0.7100
 5238TIP3   OH239908   3.243   3.042   6.431 -0.0441 -0.1814 -0.2449
 5238TIP3    H139909   3.229   3.109   6.364 -0.4881 -1.2602 -1.2582
 5238TIP3    H239910   3.305   3.082   6.492  0.8476  0.6192 -1.6242
 5239TIP3   OH239911   6.373   1.604   8.524 -0.5738  0.3097 -0.4139
 5239TIP3    H139912   6.425   1.582   8.601  0.7166  1.3632 -0.9438
 5239TIP3    H239913   6.422   1.565   8.451 -2.0647 -1.1520 -0.6811
 5240TIP3   OH239914   7.389   6.293   8.875 -0.1068 -0.4278 -0.6163
 5240TIP3    H139915   7.449   6.321   8.806  1.2909  1.0643  1.1007
 5240TIP3    H239916   7.424   6.210   8.906  0.4745 -0.1059 -0.3791
 5241TIP3   OH239917   1.881   3.086   8.839 -0.0021  0.3566 -0.0366
 5241TIP3    H139918   1.830   3.166   8.829 -0.2174  0.4202  1.3014
 5241TIP3    H239919   1.888   3.050   8.751  0.5500  2.1117 -0.7509
 5242TIP3   OH239920   5.022   4.336   9.207 -0.7321 -0.0964 -0.1907
 5242TIP3    H139921   5.082   4.279   9.160  1.5905 -0.7220  3.1901
 5242TIP3    H239922   5.051   4.424   9.186  1.3093 -0.3879  1.1882
 5243TIP3   OH239923   4.988   5.741   8.687 -0.0693 -0.4496 -0.0137
 5243TIP3    H139924   4.966   5.828   8.721  1.5863  0.8583 -2.0771
 5243TIP3    H239925   5.026   5.695   8.762  0.1674  1.0385  0.8242
 5244TIP3   OH239926   7.255   2.996   7.700 -0.1444 -0.0797 -0.5163
 5244TIP3    H139927   7.264   2.903   7.720 -2.0947 -0.3502 -0.7197
 5244TIP3    H239928   7.288   3.041   7.778  0.5796 -0.9344 -0.3142
 5245TIP3   OH239929   6.271   1.658   8.954 -0.2758  0.5837  0.1983
 5245TIP3    H139930   6.209   1.603   9.001  0.0320  0.2932  0.2643
 5245TIP3    H239931   6.215   1.715   8.900 -0.5847 -0.1162 -0.2371
 5246TIP3   OH239932   1.494   3.435   8.495 -0.2766 -0.2552  0.1858
 5246TIP3    H139933   1.472   3.368   8.430  0.8953 -0.8344  0.3641
 5246TIP3    H239934   1.583   3.461   8.474  0.4966 -1.1527  2.1267
 5247TIP3   OH239935   7.422   4.483   8.211 -0.1024  0.5696  0.5441
 5247TIP3    H139936   7.517   4.480   8.205 -0.2124 -0.7421 -1.7926
 5247TIP3    H239937   7.396   4.391   8.223 -1.1325  0.4945 -1.7520
 5248TIP3   OH239938   1.207   0.665   8.147  0.3178  0.4631  0.2045
 5248TIP3    H139939   1.168   0.720   8.214  1.1526  1.1995  0.1055
 5248TIP3    H239940   1.253   0.727   8.089 -1.2316 -0.0148 -1.6562
 5249TIP3   OH239941   3.901   4.031   8.993  0.1188 -0.2686  0.2871
 5249TIP3    H139942   3.888   4.031   9.088 -0.8825  0.9308  0.1831
 5249TIP3    H239943   3.829   4.085   8.960  0.1830 -1.0608 -1.1954
 5250TIP3   OH239944   4.790   6.988   8.262  0.2136  0.4553 -0.1985
 5250TIP3    H139945   4.829   6.984   8.174 -1.4206 -0.2504 -0.9282
 5250TIP3    H239946   4.862   6.964   8.320  0.5252 -2.4770 -1.6189
 5251TIP3   OH239947   7.040   5.089   7.581 -0.9151  0.6536 -0.4203
 5251TIP3    H139948   7.076   5.115   7.665 -0.1202  1.7212 -1.0616
 5251TIP3    H239949   6.949   5.067   7.599 -0.8760  1.3028  0.6355
 5252TIP3   OH239950   5.624   1.596   7.625  0.0956 -0.1273  0.0899
 5252TIP3    H139951   5.647   1.503   7.621  1.3645  0.1305  0.6987
 5252TIP3    H239952   5.634   1.628   7.535  0.2715 -0.4509 -0.0054
 5253TIP3   OH239953   3.667   5.354   7.854  0.4258 -0.3938 -0.2549
 5253TIP3    H139954   3.631   5.265   7.861  1.1342 -0.6476  0.2605
 5253TIP3    H239955   3.747   5.343   7.802 -0.3931  0.2237 -1.7152
 5254TIP3   OH239956   3.692   5.057   8.958 -0.0704 -0.2436 -0.0962
 5254TIP3    H139957   3.737   5.092   9.035  1.4487 -2.0467 -0.0748
 5254TIP3    H239958   3.706   5.123   8.890  1.0146  0.1121  0.4426
 5255TIP3   OH239959   5.269   2.358   7.652  0.0645  0.3318  0.6538
 5255TIP3    H139960   5.354   2.392   7.624  0.0087  1.1253  1.3919
 5255TIP3    H239961   5.277   2.263   7.643  0.9935  0.4029  0.6257
 5256TIP3   OH239962   3.307   5.167   7.480  0.2576  0.6262  0.2660
 5256TIP3    H139963   3.340   5.114   7.407  0.9045 -1.6195  2.0628
 5256TIP3    H239964   3.375   5.233   7.494  0.6865  0.3473 -0.4231
 5257TIP3   OH239965   1.171   6.082   7.840  0.4384 -0.3181  0.3871
 5257TIP3    H139966   1.195   6.010   7.899  0.4074 -0.6308  0.0182
 5257TIP3    H239967   1.088   6.115   7.877 -2.2560 -3.5830 -2.0682
 5258TIP3   OH239968   6.153   7.670   8.025 -1.3414 -0.2587  0.0205
 5258TIP3    H139969   6.212   7.742   8.000 -1.5324 -0.6849 -1.7965
 5258TIP3    H239970   6.211   7.603   8.062 -0.5847 -0.7673 -1.9517
 5259TIP3   OH239971   4.101   0.887   8.993 -0.1752  0.2146 -0.2205
 5259TIP3    H139972   4.148   0.807   8.969  0.7491  0.4231  0.7969
 5259TIP3    H239973   4.106   0.890   9.088 -0.8005  1.1274 -0.2028
 5260TIP3   OH239974   5.062   0.670   9.423  0.1828 -0.3363 -0.0439
 5260TIP3    H139975   5.139   0.613   9.431 -0.5224 -1.1687  1.1574
 5260TIP3    H239976   5.054   0.712   9.509  2.3215  3.8637 -1.6059
 5261TIP3   OH239977   2.720   4.409   9.265  0.0488  0.3795  0.5255
 5261TIP3    H139978   2.802   4.369   9.235  1.1514  1.4466  1.9251
 5261TIP3    H239979   2.659   4.336   9.274  0.9100 -0.4788 -0.3259
 5262TIP3   OH239980   5.101   4.447   8.200 -0.7270 -0.4736 -0.0402
 5262TIP3    H139981   5.153   4.500   8.139 -2.1619 -0.1512 -1.0197
 5262TIP3    H239982   5.010   4.463   8.175 -1.4206  0.1767  2.5953
 5263TIP3   OH239983   4.625   0.751   7.757 -0.6884 -0.0658  0.0445
 5263TIP3    H139984   4.664   0.663   7.763 -1.1414 -0.2118  1.1000
 5263TIP3    H239985   4.698   0.810   7.777 -0.3028 -0.1647 -0.9888
 5264TIP3   OH239986   3.622   7.512   7.398 -0.3113 -0.0516 -0.0212
 5264TIP3    H139987   3.544   7.457   7.401  0.3568 -1.0020  2.3586
 5264TIP3    H239988   3.695   7.451   7.404  0.5150  0.9776  0.7973
 5265TIP3   OH239989   4.048   3.308   9.311  0.5046 -0.2965  0.8892
 5265TIP3    H139990   4.063   3.359   9.390  0.6431  1.7503 -0.3855
 5265TIP3    H239991   4.114   3.340   9.249 -1.1745 -0.0055 -0.8475
 5266TIP3   OH239992   0.563   5.900   8.429  0.4011  0.5226  0.1354
 5266TIP3    H139993   0.633   5.921   8.367 -0.4720 -2.8452 -2.2422
 5266TIP3    H239994   0.486   5.883   8.375 -2.0764  2.9792  2.5984
 5267TIP3   OH239995   1.517   2.118   7.223 -0.1207 -0.0656  0.1049
 5267TIP3    H139996   1.557   2.033   7.238  1.6056  0.4442 -1.1753
 5267TIP3    H239997   1.425   2.100   7.204  0.5557 -1.8378 -1.8313
 5268TIP3   OH239998   3.337   6.201   8.611  0.0563  0.4328  0.0819
 5268TIP3    H139999   3.428   6.230   8.616  0.2884  0.2069 -1.7890
 5268TIP3    H240000   3.296   6.262   8.549 -0.9379  0.2267  0.5198
 5269TIP3   OH240001   4.378   3.762   9.311 -0.0293 -0.4339 -0.2641
 5269TIP3    H140002   4.314   3.726   9.250 -0.8103 -0.5716  0.6300
 5269TIP3    H240003   4.330   3.826   9.363  1.3687  2.2286 -1.9969
 5270TIP3   OH240004   6.812   3.755   8.138  0.1481  0.0424 -0.0892
 5270TIP3    H140005   6.768   3.836   8.165  0.6606 -0.2426  1.7396
 5270TIP3    H240006   6.904   3.769   8.163  0.5758 -0.4654 -1.2984
 5271TIP3   OH240007   3.431   1.741   9.231 -0.4575 -0.1005 -0.1619
 5271TIP3    H140008   3.362   1.682   9.202 -0.1206 -0.4267 -0.3005
 5271TIP3    H240009   3.421   1.744   9.326  0.5538 -1.6902  0.0343
 5272TIP3   OH240010   4.091   3.661   8.695  0.1104 -0.1592  0.5041
 5272TIP3    H140011   4.021   3.600   8.670 -0.3013  0.8415 -0.9112
 5272TIP3    H240012   4.166   3.633   8.643  0.8145 -1.2449  2.0405
 5273TIP3   OH240013   0.913   5.532   7.459  0.5078 -0.5244 -0.0859
 5273TIP3    H140014   0.962   5.464   7.412  0.9770 -1.0673  1.1196
 5273TIP3    H240015   0.838   5.485   7.496  1.0536 -0.4988  1.0988
 5274TIP3   OH240016   7.010   4.442   8.815  0.1114  0.3740  0.2025
 5274TIP3    H140017   7.048   4.437   8.727 -1.0405  0.7878 -0.3320
 5274TIP3    H240018   6.916   4.428   8.801  0.0719 -0.8616  1.5196
 5275TIP3   OH240019   2.568   6.732   6.658  0.1716 -0.2518 -0.0543
 5275TIP3    H140020   2.604   6.665   6.717 -1.2878 -0.5271  0.5510
 5275TIP3    H240021   2.475   6.712   6.653 -0.1058  1.1063 -0.7251
 5276TIP3   OH240022   4.877   7.363   6.824  0.5978  0.0979 -0.5414
 5276TIP3    H140023   4.845   7.448   6.852  1.6426  0.6584 -0.9874
 5276TIP3    H240024   4.972   7.371   6.826  0.7095 -0.8843 -1.0886
 5277TIP3   OH240025   2.673   1.062   7.531 -0.0113 -0.2397 -0.4674
 5277TIP3    H140026   2.684   1.140   7.477  0.7308  0.3159  0.4465
 5277TIP3    H240027   2.762   1.039   7.559 -0.0837 -2.0196 -1.5098
 5278TIP3   OH240028   0.182   6.630   7.640  0.5610 -0.4003  0.1963
 5278TIP3    H140029   0.267   6.649   7.680 -0.1385 -0.5421  1.8376
 5278TIP3    H240030   0.120   6.684   7.689 -0.5852 -1.9809  0.5772
 5279TIP3   OH240031   7.046   1.761   7.333 -0.2654 -0.1799  0.4163
 5279TIP3    H140032   7.105   1.701   7.287 -0.2048  0.2532 -0.0802
 5279TIP3    H240033   6.999   1.706   7.395  0.1846 -0.6470  0.3463
 5280TIP3   OH240034   0.990   0.432   8.071  0.1591  0.9623  0.0480
 5280TIP3    H140035   1.038   0.362   8.026 -0.0440 -0.8045  2.4020
 5280TIP3    H240036   1.059   0.494   8.098  0.3510  1.7010 -1.9428
 5281TIP3   OH240037   1.282   5.060   8.881 -0.1079 -0.1773  0.0287
 5281TIP3    H140038   1.377   5.054   8.883 -0.0652 -0.0042 -0.8132
 5281TIP3    H240039   1.251   4.971   8.893  0.1964 -0.3864 -0.6634
 5282TIP3   OH240040   0.835   3.809   7.798 -0.3732  0.3636 -0.2593
 5282TIP3    H140041   0.910   3.770   7.842 -0.0659 -0.5735 -1.5389
 5282TIP3    H240042   0.770   3.823   7.867 -0.5960 -2.7069  0.2795
 5283TIP3   OH240043   0.884   6.210   8.553  0.4231  1.0435  0.6928
 5283TIP3    H140044   0.970   6.169   8.560 -0.0407 -0.4027 -1.2215
 5283TIP3    H240045   0.825   6.146   8.593  0.0427  1.2667  0.4897
 5284TIP3   OH240046   6.858   3.171   8.258 -0.1478  0.1893  0.8001
 5284TIP3    H140047   6.898   3.215   8.333  0.4200  1.0921 -0.0255
 5284TIP3    H240048   6.852   3.079   8.286  0.7841  0.3653  1.6498
 5285TIP3   OH240049   0.315   0.937   7.845 -0.9224  0.3977 -0.6980
 5285TIP3    H140050   0.311   0.841   7.849 -1.5574  0.4494  0.1607
 5285TIP3    H240051   0.247   0.962   7.783 -0.4369  0.2808 -1.2910
 5286TIP3   OH240052   1.094   3.834   9.215 -0.3123  0.0257  0.0847
 5286TIP3    H140053   1.164   3.769   9.216  0.3583  0.7338  0.1450
 5286TIP3    H240054   1.136   3.914   9.184 -1.2066  0.3467 -0.3244
 5287TIP3   OH240055   4.092   3.594   6.999  0.7693 -0.1808  0.4967
 5287TIP3    H140056   4.118   3.686   7.007  0.8162 -0.1026 -0.5264
 5287TIP3    H240057   4.101   3.574   6.906 -0.4348 -0.8707  0.5124
 5288TIP3   OH240058   5.380   5.936   6.387 -0.0809 -0.5124 -0.7703
 5288TIP3    H140059   5.381   6.007   6.324 -0.8661 -0.2339 -0.4746
 5288TIP3    H240060   5.467   5.938   6.427 -0.0463  0.1884 -0.8716
 5289TIP3   OH240061   4.266   6.435   7.639  0.2060 -0.1396  0.4605
 5289TIP3    H140062   4.349   6.431   7.591 -0.9493  3.1776 -2.2695
 5289TIP3    H240063   4.205   6.383   7.585 -0.4682  1.3034 -0.2300
 5290TIP3   OH240064   2.408   3.095   8.144 -0.0126  0.8447  0.5815
 5290TIP3    H140065   2.426   3.069   8.053 -0.6150 -0.3249  0.7747
 5290TIP3    H240066   2.493   3.122   8.178  0.7874 -1.3426  0.4750
 5291TIP3   OH240067   1.922   2.656   7.798  0.1442 -0.6872 -0.5069
 5291TIP3    H140068   1.994   2.660   7.861 -0.0234 -0.3542 -0.3343
 5291TIP3    H240069   1.869   2.581   7.827 -0.9632  0.5509  0.8840
 5292TIP3   OH240070   6.185   4.528   9.161 -1.1740 -0.3488  0.0656
 5292TIP3    H140071   6.104   4.496   9.121 -0.3140 -2.0066 -0.4284
 5292TIP3    H240072   6.210   4.604   9.107 -1.0704 -1.3727 -1.3700
 5293TIP3   OH240073   0.506   4.876   7.217  0.0423  0.6691  0.1553
 5293TIP3    H140074   0.464   4.839   7.139  0.6685 -0.2870  0.2562
 5293TIP3    H240075   0.597   4.889   7.191  0.1728  0.6792  0.6115
 5294TIP3   OH240076   4.856   2.650   9.256  0.1633 -0.0827  0.5197
 5294TIP3    H140077   4.835   2.639   9.349 -1.4696  2.7217  0.5892
 5294TIP3    H240078   4.940   2.696   9.255 -0.8933  1.9405  0.7443
 5295TIP3   OH240079   0.250   0.670   7.933  0.8472 -0.3234  0.2122
 5295TIP3    H140080   0.281   0.699   8.019  0.3621 -0.3550  0.3986
 5295TIP3    H240081   0.219   0.580   7.948  1.2230 -0.5080 -0.1035
 5296TIP3   OH240082   0.973   4.703   6.964 -0.2052 -0.3381  0.3003
 5296TIP3    H140083   1.006   4.779   7.012 -3.2785  0.8175  0.8048
 5296TIP3    H240084   1.045   4.679   6.905  1.8686  1.2145  2.0146
 5297TIP3   OH240085   1.362   6.576   7.310  0.0336 -0.1176  0.2658
 5297TIP3    H140086   1.329   6.664   7.291  1.1867  0.3313  0.2958
 5297TIP3    H240087   1.352   6.566   7.404  0.8308  0.3747  0.4067
 5298TIP3   OH240088   6.904   7.678   8.319 -0.2914 -0.1182 -0.4785
 5298TIP3    H140089   6.824   7.658   8.367 -0.2516  0.2595 -0.2466
 5298TIP3    H240090   6.890   7.767   8.287  0.8091  0.7163  1.1999
 5299TIP3   OH240091   1.596   0.452   7.738  0.3213  0.1475  0.4643
 5299TIP3    H140092   1.534   0.524   7.728  0.0318 -0.0937  0.4855
 5299TIP3    H240093   1.592   0.406   7.654 -1.2228 -1.1830  1.1954
 5300TIP3   OH240094   4.618   5.757   9.537 -0.1461 -0.0236 -0.2351
 5300TIP3    H140095   4.610   5.840   9.490 -0.0357 -0.3121 -0.7677
 5300TIP3    H240096   4.576   5.692   9.479  2.9367 -1.0018 -1.5536
 5301TIP3   OH240097   0.281   0.833   7.379 -0.6068  0.2454 -0.8438
 5301TIP3    H140098   0.349   0.825   7.313  1.3981 -0.6362  1.1888
 5301TIP3    H240099   0.310   0.903   7.436  0.5783 -2.3531  2.0535
 5302TIP3   OH240100   3.846   5.594   8.439 -0.0412 -0.2544 -0.0317
 5302TIP3    H140101   3.839   5.516   8.384 -0.5437 -0.8201  0.8115
 5302TIP3    H240102   3.880   5.662   8.381 -3.7157  0.1428 -1.9939
 5303TIP3   OH240103   3.961   1.833   8.614  0.4267  0.6153 -0.2582
 5303TIP3    H140104   3.970   1.922   8.649 -0.5432  0.6119  0.0110
 5303TIP3    H240105   3.867   1.821   8.602  0.3220 -1.1963  1.8806
 5304TIP3   OH240106   1.232   6.530   9.537 -0.3341  0.3271  0.5670
 5304TIP3    H140107   1.261   6.602   9.480 -1.0581  1.5390  1.6752
 5304TIP3    H240108   1.313   6.493   9.573  0.2879 -1.5951 -2.4626
 5305TIP3   OH240109   6.472   2.716   7.628 -0.1473  0.3052  0.1574
 5305TIP3    H140110   6.414   2.754   7.693  1.7611  1.4519  1.2850
 5305TIP3    H240111   6.560   2.740   7.657  0.8894 -0.9056 -1.7478
 5306TIP3   OH240112   1.962   5.322   8.414  0.1755  0.1253 -0.5489
 5306TIP3    H140113   1.921   5.408   8.423 -1.0131 -0.3524 -1.0439
 5306TIP3    H240114   1.891   5.266   8.382  1.0822 -0.9026 -0.8106
 5307TIP3   OH240115   1.350   4.142   9.604 -0.0943 -0.5227 -0.8014
 5307TIP3    H140116   1.373   4.233   9.620  1.7299 -0.8396 -1.4144
 5307TIP3    H240117   1.277   4.146   9.541 -1.1337  0.5059  0.4188
 5308TIP3   OH240118   6.639   5.867   8.283  0.7437  0.1190  0.3202
 5308TIP3    H140119   6.725   5.848   8.320 -0.3121 -2.1917  1.8087
 5308TIP3    H240120   6.579   5.809   8.330 -1.5344  1.0702 -1.2213
 5309TIP3   OH240121   2.862   2.577   8.637 -0.1299  0.6071 -0.2998
 5309TIP3    H140122   2.784   2.535   8.673 -0.4116  1.9031  0.6722
 5309TIP3    H240123   2.917   2.596   8.714  1.5803 -1.0579 -1.0220
 5310TIP3   OH240124   2.373   5.000   9.557 -0.0068 -0.1651  0.1070
 5310TIP3    H140125   2.336   5.088   9.564  0.8419  0.2608 -0.4955
 5310TIP3    H240126   2.316   4.954   9.495 -0.7629 -0.2155  0.8325
 5311TIP3   OH240127   3.966   4.613   9.591  0.7220 -0.0654 -0.3544
 5311TIP3    H140128   4.038   4.553   9.607  0.7567  0.5483  2.1920
 5311TIP3    H240129   3.888   4.567   9.622  0.1868 -0.1682 -1.7627
 5312TIP3   OH240130   6.985   2.515   8.226 -0.7506  0.5089  0.2676
 5312TIP3    H140131   6.972   2.511   8.131  1.0413 -0.7552  0.0418
 5312TIP3    H240132   7.074   2.547   8.237 -0.6826 -0.0444  1.5094
 5313TIP3   OH240133   5.394   4.038   7.354  0.1102  0.1937  0.1393
 5313TIP3    H140134   5.373   3.968   7.415 -0.2973  1.4230  1.4714
 5313TIP3    H240135   5.336   4.023   7.279  1.3738 -1.9610 -0.4887
 5314TIP3   OH240136   7.677   6.466   6.918  0.1637 -0.2614 -0.4359
 5314TIP3    H140137   7.589   6.501   6.906  0.0507 -0.6388 -0.7490
 5314TIP3    H240138   7.732   6.543   6.929 -0.2316 -0.0317 -0.0491
 5315TIP3   OH240139   7.355   0.080   8.669  0.1616 -0.9073 -0.1690
 5315TIP3    H140140   7.361  -0.013   8.694 -2.1668 -1.3934 -1.0977
 5315TIP3    H240141   7.263   0.091   8.643  0.1910  1.8649  0.6447
 5316TIP3   OH240142   5.373   3.367   7.046 -0.2554  0.2716 -0.0383
 5316TIP3    H140143   5.467   3.352   7.046  0.0672  2.0970 -0.3632
 5316TIP3    H240144   5.346   3.352   6.956 -0.6039 -1.9120  0.3853
 5317TIP3   OH240145   7.569   0.872   8.909 -0.0530 -0.1424 -0.1707
 5317TIP3    H140146   7.621   0.843   8.834 -0.3368 -0.9207 -0.0810
 5317TIP3    H240147   7.563   0.794   8.964 -1.4263 -0.1168 -0.2582
 5318TIP3   OH240148   0.194   6.254   6.972  0.2610 -0.2338  0.3374
 5318TIP3    H140149   0.236   6.316   6.911  0.1449 -1.2295 -0.7978
 5318TIP3    H240150   0.124   6.305   7.013  1.0945  0.7985  0.5219
 5319TIP3   OH240151   2.640   2.397   8.811 -0.3533  0.0616  0.0079
 5319TIP3    H140152   2.555   2.440   8.802 -0.9602 -1.3074 -1.2715
 5319TIP3    H240153   2.622   2.304   8.793  1.0360 -0.6466  1.8946
 5320TIP3   OH240154   4.072   7.473   8.731  0.3937  0.3426 -0.3448
 5320TIP3    H140155   4.057   7.389   8.773  1.0110  0.5672  0.3534
 5320TIP3    H240156   4.029   7.537   8.788  0.4384  0.5585 -0.5496
 5321TIP3   OH240157   1.728   3.428   7.352  0.4874 -0.1178 -0.2748
 5321TIP3    H140158   1.780   3.395   7.279  2.0377  0.1039  0.6725
 5321TIP3    H240159   1.751   3.371   7.425 -0.4633  0.1172  0.2217
 5322TIP3   OH240160   4.782   6.444   7.190  0.1811  0.0143  0.2874
 5322TIP3    H140161   4.840   6.459   7.264  0.9113  0.7826 -0.4176
 5322TIP3    H240162   4.829   6.479   7.115  0.0677 -1.9840 -0.7960
 5323TIP3   OH240163   5.339   0.134   8.001  0.8236  0.2678  0.2312
 5323TIP3    H140164   5.251   0.139   7.964  1.2118  0.9201 -0.6607
 5323TIP3    H240165   5.343   0.048   8.043  0.3806 -0.6110 -1.4040
 5324TIP3   OH240166   3.380   6.394   7.253 -0.0848  0.0164 -0.4108
 5324TIP3    H140167   3.409   6.320   7.307  0.1059  1.0009  0.8850
 5324TIP3    H240168   3.294   6.369   7.222  0.1565 -0.9366 -0.3441
 5325TIP3   OH240169   1.955   1.785   9.383 -0.2165  0.0564  0.9047
 5325TIP3    H140170   1.926   1.851   9.320  2.2152  1.2342  0.9265
 5325TIP3    H240171   1.874   1.744   9.413 -1.6205  1.1956 -1.0750
 5326TIP3   OH240172   2.915   5.646   7.676 -0.1884 -0.0029  0.0988
 5326TIP3    H140173   2.826   5.662   7.707 -0.4142 -2.3430  0.8650
 5326TIP3    H240174   2.917   5.685   7.588 -1.8675  0.3632  0.1911
 5327TIP3   OH240175   7.415   0.650   8.221  0.3261  0.9026  0.5784
 5327TIP3    H140176   7.372   0.670   8.303 -0.5330 -1.1581  0.6811
 5327TIP3    H240177   7.471   0.575   8.240 -0.2131  0.1131 -0.8015
 5328TIP3   OH240178   2.494   2.337   8.472 -0.0219 -0.4877  0.3644
 5328TIP3    H140179   2.440   2.309   8.547 -2.6651  0.1309 -1.1773
 5328TIP3    H240180   2.463   2.284   8.399  1.0660  0.3367 -0.7261
 5329TIP3   OH240181   0.696   3.120   7.577  0.4420 -0.2519 -0.0762
 5329TIP3    H140182   0.646   3.046   7.541  0.0759  1.2416 -2.8804
 5329TIP3    H240183   0.629   3.182   7.607  0.7351 -0.2947  0.7105
 5330TIP3   OH240184   6.263   6.021   8.201  0.1123 -0.0889  0.1221
 5330TIP3    H140185   6.248   5.995   8.111  0.5795 -0.8438  0.2551
 5330TIP3    H240186   6.354   6.052   8.203  0.0070  0.2182  0.2670
 5331TIP3   OH240187   1.895   0.225   8.872 -0.8325 -0.3562 -0.0719
 5331TIP3    H140188   1.925   0.203   8.960  0.8144 -1.9708 -0.9580
 5331TIP3    H240189   1.852   0.145   8.841  0.2895 -0.5192 -1.3599
 5332TIP3   OH240190   3.062   2.875   8.790 -0.0019 -0.6113 -0.1232
 5332TIP3    H140191   3.061   2.839   8.701  1.2634 -0.4311 -0.2430
 5332TIP3    H240192   3.071   2.798   8.847  0.4221 -0.6552 -0.2411
 5333TIP3   OH240193   3.240   5.003   9.408  0.0416  0.0282 -0.1213
 5333TIP3    H140194   3.270   5.022   9.319  1.7215 -1.7503 -0.0172
 5333TIP3    H240195   3.258   5.083   9.457 -0.9247  1.0386 -1.3465
 5334TIP3   OH240196   7.598   1.773   9.474 -0.1774  0.2344  0.0697
 5334TIP3    H140197   7.567   1.717   9.402  2.0096 -0.5310 -0.3568
 5334TIP3    H240198   7.617   1.712   9.545  0.4492  0.6572  0.2678
 5335TIP3   OH240199   6.931   5.182   8.951  0.0623 -0.4253  0.1828
 5335TIP3    H140200   6.950   5.275   8.949  2.3721 -0.8479  0.1286
 5335TIP3    H240201   6.850   5.172   8.901 -0.1042  1.4978  0.0239
 5336TIP3   OH240202   4.918   5.674   7.580 -0.8016  0.4900 -0.1956
 5336TIP3    H140203   4.885   5.593   7.619 -0.2204  0.3029 -0.0867
 5336TIP3    H240204   4.923   5.654   7.486  0.6986 -0.0949 -0.0132
 5337TIP3   OH240205   4.441   6.210   7.941  0.0630  0.2904 -0.4769
 5337TIP3    H140206   4.353   6.240   7.962 -1.1573 -1.9438 -1.9596
 5337TIP3    H240207   4.497   6.247   8.009 -2.3210  0.1192  1.7063
 5338TIP3   OH240208   6.475   5.309   9.374 -0.6942  0.0606  0.3270
 5338TIP3    H140209   6.518   5.364   9.308  0.6337  0.6804  1.6667
 5338TIP3    H240210   6.413   5.368   9.418 -0.1920  0.1658  0.9052
 5339TIP3   OH240211   2.504   5.021   9.034  0.0814  0.1674 -0.4092
 5339TIP3    H140212   2.599   5.030   9.026  0.2069  0.2553  0.9554
 5339TIP3    H240213   2.478   5.094   9.090 -0.6737 -0.3676 -0.0489
 5340TIP3   OH240214   3.565   7.405   8.664 -0.0381  0.2472  0.2174
 5340TIP3    H140215   3.590   7.480   8.610 -0.7812 -0.8050 -1.7040
 5340TIP3    H240216   3.483   7.432   8.705  0.7373  1.2147  1.1859
 5341TIP3   OH240217   0.205   0.392   8.915  0.2072  1.0292 -0.0515
 5341TIP3    H140218   0.287   0.345   8.901 -0.5879 -0.6584  0.6530
 5341TIP3    H240219   0.212   0.423   9.006  0.0101  0.7621  0.0546
 5342TIP3   OH240220   4.938   7.559   7.934 -0.0785  0.2804 -0.0695
 5342TIP3    H140221   5.000   7.492   7.907  0.3683  0.5210  0.3432
 5342TIP3    H240222   4.960   7.577   8.026  0.9258  2.2041 -0.6228
 5343TIP3   OH240223   1.399   3.691   8.581  0.2748 -0.3909 -0.2200
 5343TIP3    H140224   1.399   3.617   8.642 -1.5534  0.2745  0.6738
 5343TIP3    H240225   1.306   3.709   8.565  0.6778 -0.0281 -2.6229
 5344TIP3   OH240226   4.177   7.522   7.388  0.3214 -0.1244 -0.1541
 5344TIP3    H140227   4.118   7.597   7.380 -0.6793 -0.8518  0.2694
 5344TIP3    H240228   4.133   7.451   7.341 -0.3237 -1.3373  2.1114
 5345TIP3   OH240229   1.143   2.621   6.735  0.7238 -0.1571  0.3041
 5345TIP3    H140230   1.159   2.641   6.643  1.3980  1.0977  0.6738
 5345TIP3    H240231   1.058   2.661   6.754  0.9670  0.2902  0.4407
 5346TIP3   OH240232   5.552   0.331   7.507 -0.4177  0.2926  0.0140
 5346TIP3    H140233   5.503   0.407   7.537  0.4115  2.1710 -2.9577
 5346TIP3    H240234   5.640   0.344   7.541 -0.0667  1.1826 -1.1589
 5347TIP3   OH240235   6.904   3.124   8.900  0.4889  0.3625 -0.4911
 5347TIP3    H140236   6.866   3.208   8.874 -1.1529  0.1024  0.9234
 5347TIP3    H240237   6.829   3.072   8.930  1.6747 -1.0747  0.0803
 5348TIP3   OH240238   0.074   7.115   8.590  0.3363 -0.6363 -0.0951
 5348TIP3    H140239  -0.012   7.112   8.548 -1.1427 -1.1443  2.7433
 5348TIP3    H240240   0.125   7.175   8.536 -1.7868 -0.2930 -1.8575
 5349TIP3   OH240241   5.114   1.731   9.250 -0.2333  0.3487  0.0967
 5349TIP3    H140242   5.027   1.708   9.282 -0.7203  0.2616 -1.2309
 5349TIP3    H240243   5.112   1.711   9.156  1.4672 -0.3717  0.1660
 5350TIP3   OH240244   5.069   3.414   7.964  0.3960  0.5431  0.0529
 5350TIP3    H140245   4.993   3.421   7.905  1.0451  3.9903 -0.5676
 5350TIP3    H240246   5.130   3.356   7.917 -0.5195  0.4026 -1.0108
 5351TIP3   OH240247   0.523   2.982   9.287  0.2045  0.3532 -0.1848
 5351TIP3    H140248   0.496   2.913   9.228 -0.7432 -0.3350  1.0071
 5351TIP3    H240249   0.617   2.993   9.270  0.2362 -0.7787 -0.8323
 5352TIP3   OH240250   0.815   6.064   8.203  0.2671  0.2101  0.1341
 5352TIP3    H140251   0.870   6.097   8.274  0.8648 -3.1693  1.4521
 5352TIP3    H240252   0.875   6.013   8.148 -0.8539 -0.3490 -0.6088
 5353TIP3   OH240253   3.970   5.018   9.429 -0.0554  0.1938 -0.0951
 5353TIP3    H140254   4.052   4.998   9.476  0.7077  0.2532 -1.3655
 5353TIP3    H240255   3.956   4.943   9.372  1.1342  1.7120 -2.5812
 5354TIP3   OH240256   0.149   6.009   6.503  0.1722 -0.0124 -0.2823
 5354TIP3    H140257   0.126   5.947   6.435 -1.4773 -0.3510  0.5365
 5354TIP3    H240258   0.170   5.955   6.579  0.0903  0.3893  0.0310
 5355TIP3   OH240259   3.526   4.251   7.381  0.9375 -0.1101 -0.3739
 5355TIP3    H140260   3.545   4.159   7.402 -0.3681 -0.2545  0.3097
 5355TIP3    H240261   3.439   4.249   7.342  0.8198  0.8572 -0.1786
 5356TIP3   OH240262   2.688   6.586   7.128  0.2185 -0.2097 -0.7388
 5356TIP3    H140263   2.734   6.670   7.133 -1.0014  0.4707 -0.4798
 5356TIP3    H240264   2.683   6.568   7.034 -2.3566  1.6928 -1.0623
 5357TIP3   OH240265   0.749   2.255   8.568  0.0004 -0.0101  0.1403
 5357TIP3    H140266   0.765   2.326   8.506  0.0862 -0.4009 -0.2896
 5357TIP3    H240267   0.654   2.248   8.573 -0.0011 -0.3772 -0.4074
 5358TIP3   OH240268   1.890   0.460   9.125 -0.7436 -0.2792 -0.6797
 5358TIP3    H140269   1.875   0.547   9.162  1.0134  0.4734 -1.6661
 5358TIP3    H240270   1.832   0.455   9.049 -0.7422  0.0750 -0.7019
 5359TIP3   OH240271   3.979   4.482   9.089  0.1871 -0.1624 -0.3935
 5359TIP3    H140272   4.003   4.526   9.170 -0.6385 -0.5494  0.0682
 5359TIP3    H240273   3.980   4.551   9.023  2.1050 -0.0678 -0.3258
 5360TIP3   OH240274   0.536   0.947   7.721  0.5533  0.4134 -0.5846
 5360TIP3    H140275   0.559   0.890   7.794  0.1679  0.7057 -0.2342
 5360TIP3    H240276   0.441   0.957   7.726  0.2519 -1.1269 -2.2741
 5361TIP3   OH240277   4.440   2.810   8.003 -0.0478  0.1484  0.3037
 5361TIP3    H140278   4.515   2.780   7.952 -0.0957  0.6704 -0.0870
 5361TIP3    H240279   4.478   2.857   8.077  0.0351 -1.1910  1.1368
 5362TIP3   OH240280   5.605   5.276   9.264 -0.0407  0.3665  0.1149
 5362TIP3    H140281   5.536   5.226   9.307  0.6974  0.4963  1.5131
 5362TIP3    H240282   5.674   5.212   9.247  0.1810  0.5586  0.2872
 5363TIP3   OH240283   4.000   6.801   8.575 -1.1025 -0.1146 -0.4614
 5363TIP3    H140284   4.070   6.795   8.639 -0.4002  0.2071 -1.1868
 5363TIP3    H240285   4.044   6.798   8.490 -1.9827 -0.1627 -0.9281
 5364TIP3   OH240286   6.060   1.629   8.033 -0.2596  0.2418  0.2992
 5364TIP3    H140287   6.015   1.651   8.115  0.5695  0.0204  0.8281
 5364TIP3    H240288   6.019   1.685   7.968 -3.9705 -2.5555 -0.0910
 5365TIP3   OH240289   2.074   1.111   8.233 -0.1586 -0.0562 -0.2973
 5365TIP3    H140290   2.061   1.162   8.312  1.6909 -1.2138  0.8270
 5365TIP3    H240291   2.129   1.166   8.177  1.4315 -0.5669  0.7085
 5366TIP3   OH240292   2.988   6.406   7.837 -0.0651  0.8807 -0.2951
 5366TIP3    H140293   2.901   6.392   7.873 -0.7587  0.2717 -2.0683
 5366TIP3    H240294   3.017   6.320   7.807  0.6802  1.2482 -0.6966
 5367TIP3   OH240295   1.693   3.795   8.744 -0.1736 -0.3014 -0.5827
 5367TIP3    H140296   1.778   3.826   8.775 -0.7832 -2.6918  4.3978
 5367TIP3    H240297   1.635   3.871   8.753  0.4549  0.0126  1.1046
 5368TIP3   OH240298   1.841   2.435   8.547  0.1777  0.7350 -0.5445
 5368TIP3    H140299   1.915   2.424   8.606  0.3660  0.9407 -0.7432
 5368TIP3    H240300   1.802   2.519   8.573 -0.1279  0.5208 -0.2881
 5369TIP3   OH240301   4.616   3.954   7.990 -0.0909 -0.2471 -0.0187
 5369TIP3    H140302   4.699   3.997   8.011 -0.8293  0.2363  2.2060
 5369TIP3    H240303   4.639   3.861   7.983  0.5735 -0.1823  1.0523
 5370TIP3   OH240304   3.450   0.855   9.555 -0.1097 -0.6286  0.1749
 5370TIP3    H140305   3.406   0.937   9.577  0.0589 -0.4540 -0.1528
 5370TIP3    H240306   3.378   0.791   9.549 -0.0860 -0.9249  2.2902
 5371TIP3   OH240307   4.552   1.991   7.336 -0.1485 -0.1520 -0.3475
 5371TIP3    H140308   4.604   1.964   7.260  2.1163  1.4080  0.5493
 5371TIP3    H240309   4.585   1.938   7.408  0.8360  1.3769  0.3846
 5372TIP3   OH240310   4.846   6.825   9.578  0.4938 -0.1453 -0.0910
 5372TIP3    H140311   4.782   6.773   9.530  1.3105  0.2615 -1.7203
 5372TIP3    H240312   4.928   6.812   9.530  1.3739  0.2723  1.2363
 5373TIP3   OH240313   3.263   5.760   9.559 -0.5759 -0.3549 -0.5176
 5373TIP3    H140314   3.314   5.683   9.582  0.0972  0.1083 -0.4261
 5373TIP3    H240315   3.326   5.819   9.517 -0.8081  0.5989  0.4124
 5374TIP3   OH240316   6.626   7.616   7.420 -0.2253  0.0855 -0.2393
 5374TIP3    H140317   6.611   7.556   7.347  0.0773 -1.4775  0.9244
 5374TIP3    H240318   6.542   7.617   7.467 -0.0585  0.1025  0.0623
 5375TIP3   OH240319   6.430   5.293   7.890 -0.1556  0.0971  0.0575
 5375TIP3    H140320   6.468   5.214   7.852 -2.3354 -0.6781 -0.6585
 5375TIP3    H240321   6.474   5.303   7.974 -1.0449 -2.9277  1.0035
 5376TIP3   OH240322   7.055   0.697   8.588 -0.0581 -0.6171  0.2542
 5376TIP3    H140323   6.983   0.758   8.597 -1.0272 -1.5476 -0.8159
 5376TIP3    H240324   7.090   0.687   8.676  0.5726  1.9472  0.3779
 5377TIP3   OH240325   3.490   4.796   9.574  0.1445 -0.6588  0.2116
 5377TIP3    H140326   3.556   4.848   9.619 -0.7922  0.8657 -0.0980
 5377TIP3    H240327   3.409   4.846   9.585 -0.3850 -0.9373 -1.9595
 5378TIP3   OH240328   4.561   6.723   6.860  0.3746  0.3775  0.0295
 5378TIP3    H140329   4.583   6.716   6.768  1.7840  0.8863  0.3028
 5378TIP3    H240330   4.636   6.684   6.906 -0.3038  0.1206  0.9627
 5379TIP3   OH240331   3.363   1.992   7.283 -0.2258 -0.0088  0.2882
 5379TIP3    H140332   3.361   1.957   7.194 -0.4372  0.6528  0.0273
 5379TIP3    H240333   3.404   2.078   7.274  2.3499 -1.0140  1.2234
 5380TIP3   OH240334   4.208   2.032   8.141 -0.0300 -0.4330  0.4009
 5380TIP3    H140335   4.294   1.991   8.150 -0.5557 -1.6007  0.2773
 5380TIP3    H240336   4.185   2.060   8.230  0.3389 -0.3878  0.4835
 5381TIP3   OH240337   1.714   1.670   8.511  0.2860 -0.2196 -0.0290
 5381TIP3    H140338   1.665   1.743   8.473  0.0248 -0.4313 -0.0993
 5381TIP3    H240339   1.712   1.686   8.606  0.8934  0.2800 -0.0979
 5382TIP3   OH240340   0.920   3.937   9.429 -0.3474 -0.2426  0.2592
 5382TIP3    H140341   0.978   3.889   9.370 -0.5525 -1.0544  0.7105
 5382TIP3    H240342   0.964   4.022   9.442  0.0634 -0.3390 -0.4596
 5383TIP3   OH240343   3.160   5.205   8.206 -0.6027  0.5316  0.2303
 5383TIP3    H140344   3.179   5.290   8.245  1.3374  1.1964 -1.9494
 5383TIP3    H240345   3.131   5.225   8.117 -0.2245 -1.0821 -0.2888
 5384TIP3   OH240346   5.308   6.889   9.167 -0.6750 -0.1579  0.1446
 5384TIP3    H140347   5.233   6.945   9.188 -0.7487 -0.3346  0.3591
 5384TIP3    H240348   5.270   6.803   9.153 -0.9951  0.4058 -3.2925
 5385TIP3   OH240349   3.725   0.864   7.544  0.4449 -0.3697 -0.2747
 5385TIP3    H140350   3.718   0.915   7.624  0.9675  1.0365 -1.0952
 5385TIP3    H240351   3.814   0.829   7.546  0.1227 -1.2039  0.2331
 5386TIP3   OH240352   2.765   4.471   8.595 -0.5226  0.0866 -0.0309
 5386TIP3    H140353   2.673   4.470   8.620 -1.2427  0.5954 -2.4293
 5386TIP3    H240354   2.770   4.415   8.517  1.6368 -1.6978  1.2689
 5387TIP3   OH240355   5.246   7.391   9.128 -0.5480  0.3650 -0.5045
 5387TIP3    H140356   5.166   7.397   9.180 -0.5168 -3.3106  0.2162
 5387TIP3    H240357   5.314   7.428   9.185 -1.0721 -0.4351  0.6877
 5388TIP3   OH240358   5.388   1.808   7.772 -0.6053 -0.7491  0.0958
 5388TIP3    H140359   5.364   1.727   7.727 -0.7368 -0.5517 -0.1972
 5388TIP3    H240360   5.305   1.856   7.779 -0.3449 -0.1658 -0.7136
 5389TIP3   OH240361   6.336   1.240   7.129 -0.3950 -0.4251  0.0117
 5389TIP3    H140362   6.354   1.176   7.060 -1.0412 -0.4443 -0.1452
 5389TIP3    H240363   6.323   1.187   7.208 -1.2735 -0.5098 -0.1903
 5390TIP3   OH240364   0.978   2.134   7.351 -0.0864 -0.4090  0.3907
 5390TIP3    H140365   0.909   2.077   7.318 -0.5767 -0.5999  1.6680
 5390TIP3    H240366   1.023   2.082   7.418  0.3939  0.1968  0.5529
 5391TIP3   OH240367   2.086   1.582   0.677 -0.2119  0.4270  0.1746
 5391TIP3    H140368   2.102   1.672   0.707  1.1979  0.5166 -0.7616
 5391TIP3    H240369   2.142   1.528   0.732 -0.0112  0.2691 -0.1808
 5392TIP3   OH240370   2.526   6.554   2.696  0.5686 -0.6723 -0.0541
 5392TIP3    H140371   2.483   6.478   2.657  2.0366 -2.0477  0.9110
 5392TIP3    H240372   2.499   6.553   2.787  0.4806  0.0685 -0.0628
 5393TIP3   OH240373   6.371   3.138   1.892 -0.0003  0.2966 -0.0554
 5393TIP3    H140374   6.322   3.220   1.894 -0.3867  0.0597  1.4730
 5393TIP3    H240375   6.463   3.165   1.888 -0.1765  0.7496 -1.7765
 5394TIP3   OH240376   6.678   6.657   2.296 -0.1634  0.2118  0.6575
 5394TIP3    H140377   6.616   6.626   2.230 -0.6585 -0.1192  1.2682
 5394TIP3    H240378   6.764   6.641   2.257 -0.4511  0.3167 -0.0347
 5395TIP3   OH240379   5.763   5.397   2.900 -0.8369 -0.1096  0.0204
 5395TIP3    H140380   5.823   5.355   2.963 -0.3390  0.0276 -0.3608
 5395TIP3    H240381   5.777   5.349   2.818 -0.0038  1.0219 -0.5173
 5396TIP3   OH240382   3.200   3.413   2.814 -0.3853 -0.4907  0.4548
 5396TIP3    H140383   3.292   3.409   2.840 -0.7426  0.2407  1.9292
 5396TIP3    H240384   3.200   3.465   2.734  0.6887 -2.2826 -0.7726
 5397TIP3   OH240385   1.079   0.863   2.672 -0.2624 -0.3947 -0.1705
 5397TIP3    H140386   1.092   0.791   2.610 -1.2712  0.4169 -1.4091
 5397TIP3    H240387   1.085   0.823   2.758  0.8666 -1.6384 -0.8003
 5398TIP3   OH240388   5.378   7.316   1.506  1.1013  0.5129 -0.7280
 5398TIP3    H140389   5.318   7.257   1.460 -1.0250  1.7897  0.2391
 5398TIP3    H240390   5.441   7.258   1.549 -0.9391 -1.0815  0.2708
 5399TIP3   OH240391   2.708   4.458   2.560 -0.2329  0.1942  0.0967
 5399TIP3    H140392   2.744   4.504   2.636  0.6658 -0.5141  0.1126
 5399TIP3    H240393   2.679   4.528   2.501  0.1422  0.7610  0.5774
 5400TIP3   OH240394   7.280   3.041   1.244 -0.7019  0.0562 -0.1062
 5400TIP3    H140395   7.323   3.001   1.168 -1.4603  1.3298 -1.2566
 5400TIP3    H240396   7.190   3.009   1.240 -1.8780  3.1608 -2.1769
 5401TIP3   OH240397   0.323   4.349   2.581  0.0046 -1.0113  0.2195
 5401TIP3    H140398   0.411   4.313   2.578 -0.5479 -2.3510 -0.4260
 5401TIP3    H240399   0.267   4.275   2.601 -0.9540 -0.1016  1.0232
 5402TIP3   OH240400   6.998   6.942   3.062  0.4176 -0.0284 -0.1866
 5402TIP3    H140401   7.084   6.899   3.062  0.8177  0.7243  1.0920
 5402TIP3    H240402   6.950   6.899   3.133  0.7024  1.3510  0.8854
 5403TIP3   OH240403   0.418   6.917   0.818  0.0067 -0.5144 -0.1893
 5403TIP3    H140404   0.322   6.915   0.819 -0.0623  0.3648 -1.3688
 5403TIP3    H240405   0.445   6.826   0.824 -0.8559 -0.6814  1.5117
 5404TIP3   OH240406   0.498   3.756   0.798  0.1655  0.2085 -0.1042
 5404TIP3    H140407   0.493   3.850   0.781 -0.1881  0.3877  0.9252
 5404TIP3    H240408   0.412   3.734   0.834  0.5847 -0.3080  0.6018
 5405TIP3   OH240409   1.063   3.208   1.003 -0.9500 -0.6313 -0.2107
 5405TIP3    H140410   1.111   3.267   1.061 -0.2668 -1.1391 -0.2578
 5405TIP3    H240411   0.979   3.252   0.989 -0.2640  0.5640 -0.6552
 5406TIP3   OH240412   2.197   3.288   2.710  0.6523  0.1240 -0.4105
 5406TIP3    H140413   2.181   3.275   2.616  0.1922 -0.7302 -0.2164
 5406TIP3    H240414   2.280   3.336   2.712  0.3326  0.7581 -1.2710
 5407TIP3   OH240415   5.903   7.654   3.239 -0.1583 -0.4003 -0.4292
 5407TIP3    H140416   5.985   7.604   3.232  0.3554  0.2153  0.9299
 5407TIP3    H240417   5.834   7.587   3.234  0.4031 -0.9438 -1.4237
 5408TIP3   OH240418   4.146   4.125   2.904 -0.1378  0.2335  0.0527
 5408TIP3    H140419   4.211   4.059   2.929  0.6564  0.9852 -0.0171
 5408TIP3    H240420   4.062   4.088   2.934  0.2447 -0.9744 -0.3147
 5409TIP3   OH240421   5.842   7.288   1.162  0.0520  0.0408  0.1316
 5409TIP3    H140422   5.776   7.288   1.093 -0.8911 -0.4278  1.0193
 5409TIP3    H240423   5.795   7.312   1.241  1.2344  1.1483  0.5346
 5410TIP3   OH240424   6.521   7.228   1.805  0.2137  0.4571  0.2266
 5410TIP3    H140425   6.498   7.142   1.840 -0.7777  0.0031 -1.4366
 5410TIP3    H240426   6.438   7.274   1.797  0.2649  0.2401 -2.2236
 5411TIP3   OH240427   5.361   1.836   1.491  0.4446 -0.3049 -0.0681
 5411TIP3    H140428   5.389   1.846   1.400  0.0666 -1.6080 -0.3495
 5411TIP3    H240429   5.285   1.894   1.499  1.0818  0.5759 -0.2844
 5412TIP3   OH240430   3.155   6.159   3.413  0.3762 -0.2166  0.9458
 5412TIP3    H140431   3.232   6.142   3.359  0.6091  0.3122  1.1139
 5412TIP3    H240432   3.142   6.253   3.409 -0.0505 -0.2592  1.2142
 5413TIP3   OH240433   2.829   6.760   3.171  0.0594 -0.0284 -0.9726
 5413TIP3    H140434   2.896   6.810   3.217 -0.8915  1.4817 -1.1552
 5413TIP3    H240435   2.865   6.747   3.083  0.6991 -0.4628 -0.6486
 5414TIP3   OH240436   6.119   6.622   1.235  0.6265  0.5037 -0.0314
 5414TIP3    H140437   6.077   6.576   1.163  0.0050  1.4878 -0.3269
 5414TIP3    H240438   6.200   6.656   1.198  2.0559 -1.8943  0.6964
 5415TIP3   OH240439   6.578   6.900   2.042  0.4337 -0.6232 -0.5706
 5415TIP3    H140440   6.616   6.812   2.031 -0.4914 -0.9355 -1.4754
 5415TIP3    H240441   6.532   6.916   1.960  1.9705  1.4252 -1.1271
 5416TIP3   OH240442   2.855   5.520   0.458  0.5282  0.2849  0.3620
 5416TIP3    H140443   2.910   5.455   0.413  0.9008  1.1832 -0.5089
 5416TIP3    H240444   2.810   5.470   0.525  0.5677 -0.9550 -0.4946
 5417TIP3   OH240445   1.579   5.075   1.347  0.7915 -0.0826  0.1309
 5417TIP3    H140446   1.614   5.153   1.392  0.8113  0.3464 -0.6184
 5417TIP3    H240447   1.521   5.035   1.412  2.2027 -0.4776  1.1867
 5418TIP3   OH240448   0.427   5.895   0.491 -0.3305 -0.0849  0.2528
 5418TIP3    H140449   0.503   5.851   0.530  0.5896  0.7937 -0.4788
 5418TIP3    H240450   0.378   5.825   0.448  1.3680 -0.3950 -1.3191
 5419TIP3   OH240451   2.428   3.421   2.658 -0.3618  0.2742  0.3606
 5419TIP3    H140452   2.504   3.395   2.606  0.2784 -0.5356  1.6525
 5419TIP3    H240453   2.457   3.413   2.748 -1.7977  0.5752  0.8731
 5420TIP3   OH240454   4.383   7.038   0.468 -0.1817  0.7223  0.2712
 5420TIP3    H140455   4.382   7.023   0.562  3.5543 -2.5651  0.0323
 5420TIP3    H240456   4.473   7.067   0.449  0.5622 -2.7378 -2.5715
 5421TIP3   OH240457   6.070   2.322   2.322 -0.2149 -0.4075  0.1513
 5421TIP3    H140458   6.112   2.387   2.378 -1.9585  0.6875  0.2380
 5421TIP3    H240459   6.089   2.350   2.233  0.3946 -0.7182  0.1745
 5422TIP3   OH240460   1.575   5.864   1.362  0.3918  0.2981 -0.1775
 5422TIP3    H140461   1.608   5.775   1.366 -2.0624 -0.7305 -0.7792
 5422TIP3    H240462   1.586   5.891   1.271  2.4580  1.2372  0.2881
 5423TIP3   OH240463   0.774   3.872   2.591 -0.1193 -0.1702 -0.5414
 5423TIP3    H140464   0.683   3.842   2.601 -0.4056  0.7485 -0.2603
 5423TIP3    H240465   0.771   3.932   2.517  0.1822  0.1689 -0.2786
 5424TIP3   OH240466   2.270   6.913   1.643 -0.2392 -0.5632  0.1482
 5424TIP3    H140467   2.274   7.006   1.663  1.2256 -0.7005  0.6681
 5424TIP3    H240468   2.335   6.901   1.573  0.9975 -1.4515  1.3743
 5425TIP3   OH240469   6.062   5.640   3.610 -0.0328 -0.8391 -0.1374
 5425TIP3    H140470   6.041   5.704   3.543  0.4842 -0.5385 -0.0208
 5425TIP3    H240471   6.038   5.682   3.693 -1.4470 -1.5252 -0.1658
 5426TIP3   OH240472   3.744   2.357   1.459 -0.6413 -0.7765  0.1170
 5426TIP3    H140473   3.808   2.419   1.425 -0.9886 -0.8496 -0.7036
 5426TIP3    H240474   3.680   2.411   1.506  0.4198 -0.7780  1.6224
 5427TIP3   OH240475   4.528   1.050   1.105  0.0411  0.5446 -0.8020
 5427TIP3    H140476   4.518   1.145   1.100  3.0524  0.9636 -0.7293
 5427TIP3    H240477   4.484   1.026   1.187  0.2579  2.0534 -0.2083
 5428TIP3   OH240478   5.770   6.897   1.860 -0.2245  0.7233  0.1427
 5428TIP3    H140479   5.829   6.918   1.933 -0.6725 -0.1934  0.7829
 5428TIP3    H240480   5.748   6.805   1.872 -2.1003  1.1321  0.1240
 5429TIP3   OH240481   1.120   2.759   0.747 -0.1699  0.4839 -0.4700
 5429TIP3    H140482   1.111   2.734   0.839  0.8813 -0.2491 -0.5484
 5429TIP3    H240483   1.030   2.765   0.715 -0.5266 -0.0299  0.3985
 5430TIP3   OH240484   6.201   4.061   0.838 -0.0875 -0.2590  0.4383
 5430TIP3    H140485   6.248   4.123   0.781 -0.1925  0.3707  1.0294
 5430TIP3    H240486   6.230   3.975   0.808  1.4556  0.1109  0.7907
 5431TIP3   OH240487   1.626   0.585   1.616  0.4674  0.1860  0.2235
 5431TIP3    H140488   1.655   0.588   1.525  0.3667 -0.5544  0.1588
 5431TIP3    H240489   1.556   0.650   1.622  0.7328  0.5016 -0.1348
 5432TIP3   OH240490   0.476   0.263   0.764 -0.5697  0.0432 -0.0302
 5432TIP3    H140491   0.499   0.226   0.678 -2.9056 -2.1235  0.1644
 5432TIP3    H240492   0.395   0.219   0.788 -0.2516  0.9419  3.1128
 5433TIP3   OH240493   0.392   2.777   0.928  0.4671 -0.2964 -0.0391
 5433TIP3    H140494   0.325   2.740   0.870  0.0844 -0.3907  0.4592
 5433TIP3    H240495   0.462   2.805   0.869  0.7267 -1.7254 -0.4372
 5434TIP3   OH240496   3.934   0.658   0.811  0.4142 -0.1963  0.4325
 5434TIP3    H140497   3.876   0.588   0.780 -0.2506 -0.2210  1.6490
 5434TIP3    H240498   4.009   0.656   0.751 -0.1824 -1.1055 -0.3138
 5435TIP3   OH240499   5.377   2.967   0.607 -0.1179 -0.0823  0.0519
 5435TIP3    H140500   5.413   2.895   0.658 -0.9897  0.8601  2.1487
 5435TIP3    H240501   5.371   2.934   0.518  2.5255 -1.4471  0.3081
 5436TIP3   OH240502   6.141   3.877   1.574 -0.6274  0.1053  0.1430
 5436TIP3    H140503   6.111   3.885   1.483  0.0832 -1.2485 -0.2364
 5436TIP3    H240504   6.179   3.789   1.579 -0.1257  0.3816  1.5991
 5437TIP3   OH240505   0.034   3.904   2.839 -0.7023 -0.1534 -0.0683
 5437TIP3    H140506   0.080   3.844   2.898  0.9283 -0.0433 -1.1693
 5437TIP3    H240507   0.036   3.860   2.754 -0.5092  0.9257 -0.6374
 5438TIP3   OH240508   2.442   0.440   0.986 -0.3496  0.0618  0.2553
 5438TIP3    H140509   2.441   0.461   0.893  0.8378 -0.7814  0.0236
 5438TIP3    H240510   2.487   0.513   1.027 -0.7908  0.3898  0.1565
 5439TIP3   OH240511   4.317   1.519   1.368  0.1240  0.7599 -0.2207
 5439TIP3    H140512   4.341   1.450   1.430  0.0421 -0.7971 -1.8240
 5439TIP3    H240513   4.221   1.517   1.366  0.1305 -0.3777 -1.5524
 5440TIP3   OH240514   7.109   2.028   0.345  0.1229  0.0247 -0.3218
 5440TIP3    H140515   7.046   1.960   0.323 -0.8679 -0.3208  2.9426
 5440TIP3    H240516   7.170   1.985   0.406 -0.0268  1.7906  1.1517
 5441TIP3   OH240517   0.680   4.700   1.903 -0.1026 -0.0631  0.0735
 5441TIP3    H140518   0.639   4.768   1.955  0.8108 -0.3394  1.2080
 5441TIP3    H240519   0.774   4.711   1.918  0.1814 -0.3318 -1.3109
 5442TIP3   OH240520   4.935   1.198   0.854  0.3744 -0.4202  0.2219
 5442TIP3    H140521   4.859   1.216   0.910  1.1135 -1.0164  1.4713
 5442TIP3    H240522   4.943   1.275   0.798 -0.6054  0.0480  0.7009
 5443TIP3   OH240523   2.185   6.682   1.764 -0.3589  0.0042 -0.3698
 5443TIP3    H140524   2.213   6.763   1.721 -0.3922  0.1293 -0.1566
 5443TIP3    H240525   2.137   6.635   1.696 -1.1894  0.6122 -0.2185
 5444TIP3   OH240526   6.899   7.376   2.295 -0.1038 -0.3315 -0.1773
 5444TIP3    H140527   6.938   7.388   2.208  0.7738 -0.1362  0.2290
 5444TIP3    H240528   6.895   7.464   2.331 -1.6064 -0.2514 -0.4742
 5445TIP3   OH240529   1.069   2.617   2.357  0.4558 -0.3693  0.7355
 5445TIP3    H140530   1.155   2.651   2.329 -0.7735  0.1382 -2.9449
 5445TIP3    H240531   1.090   2.546   2.418  3.4325  0.4312  0.7989
 5446TIP3   OH240532   3.515   4.900   2.866 -0.3549 -0.3235 -0.3530
 5446TIP3    H140533   3.508   4.881   2.959 -0.9877 -0.9033 -0.5082
 5446TIP3    H240534   3.570   4.830   2.831  2.2609  1.3877 -0.0024
 5447TIP3   OH240535   4.601   7.346   1.395 -0.2275  0.0460 -0.1478
 5447TIP3    H140536   4.555   7.298   1.326 -2.3559 -2.1076  2.5294
 5447TIP3    H240537   4.648   7.415   1.349 -1.0001 -1.6057 -3.7706
 5448TIP3   OH240538   5.226   5.482   2.997 -0.3116 -0.1316  0.0337
 5448TIP3    H140539   5.147   5.520   2.958  2.0673  5.2344 -0.3939
 5448TIP3    H240540   5.212   5.488   3.091 -0.4412  0.7677 -0.0376
 5449TIP3   OH240541   7.209   4.058   2.905  0.1180  0.0904  0.2767
 5449TIP3    H140542   7.182   3.966   2.910  1.2907 -0.4600 -2.0347
 5449TIP3    H240543   7.300   4.058   2.934  0.5023  0.2636 -0.8602
 5450TIP3   OH240544   5.486   6.980   0.989  0.4791  0.4323  0.0022
 5450TIP3    H140545   5.404   6.978   1.038  0.8892  0.8074  0.7270
 5450TIP3    H240546   5.522   7.067   1.007  1.3384  0.0495  0.2120
 5451TIP3   OH240547   0.225   3.378   1.618  0.7617 -0.0228  0.0559
 5451TIP3    H140548   0.147   3.326   1.635  0.7025  0.3323  0.9483
 5451TIP3    H240549   0.218   3.451   1.679  1.3627  0.4750 -0.4589
 5452TIP3   OH240550   3.630   5.470   1.253 -0.4431 -0.1926 -0.5951
 5452TIP3    H140551   3.566   5.452   1.184  0.0584 -1.0500 -0.8443
 5452TIP3    H240552   3.657   5.561   1.237 -0.8869 -0.1374 -1.0636
 5453TIP3   OH240553   6.890   3.951   3.315 -0.7330  0.7364 -0.6810
 5453TIP3    H140554   6.814   3.902   3.282  0.5929 -0.0101 -2.8214
 5453TIP3    H240555   6.943   3.884   3.359 -0.7074  1.0093 -0.2956
 5454TIP3   OH240556   0.342   6.161   0.509  0.1232 -0.5096 -0.4476
 5454TIP3    H140557   0.434   6.181   0.491  0.0627 -0.0295 -0.2417
 5454TIP3    H240558   0.319   6.094   0.445  0.3893 -0.0441 -1.0374
 5455TIP3   OH240559   3.138   6.547   2.827  0.4796 -0.3083  0.6125
 5455TIP3    H140560   3.062   6.599   2.801  0.4846 -0.5570  0.0869
 5455TIP3    H240561   3.152   6.570   2.919  0.5272  0.6815  0.3744
 5456TIP3   OH240562   0.076   3.613   2.759  0.1296 -0.3518  0.3891
 5456TIP3    H140563   0.044   3.561   2.686  0.0991  0.2455 -0.0309
 5456TIP3    H240564   0.061   3.558   2.836 -1.3065 -0.3552  0.1365
 5457TIP3   OH240565   4.366   5.111   3.034  0.2826 -0.3616  0.0009
 5457TIP3    H140566   4.443   5.148   3.075 -1.3129  0.0686  2.8494
 5457TIP3    H240567   4.329   5.184   2.984  0.3346  0.2038  0.7655
 5458TIP3   OH240568   6.831   1.399   0.755  0.0076  0.5148  0.8841
 5458TIP3    H140569   6.760   1.458   0.731  0.7373  1.0341 -0.0471
 5458TIP3    H240570   6.910   1.440   0.720  0.3714 -1.7427 -1.2292
 5459TIP3   OH240571   2.875   0.829   1.742 -0.1179  0.1578 -0.7879
 5459TIP3    H140572   2.809   0.826   1.672  0.2357 -1.4173 -1.0810
 5459TIP3    H240573   2.838   0.777   1.813  0.0963  0.6744 -0.2852
 5460TIP3   OH240574   0.726   6.530   2.132 -0.3839 -0.0123  0.1931
 5460TIP3    H140575   0.753   6.614   2.097  0.7936 -0.2955  0.3980
 5460TIP3    H240576   0.698   6.550   2.222  0.7776  0.0372  0.5637
 5461TIP3   OH240577   4.686   6.376   0.985  0.4283 -0.6834  0.0873
 5461TIP3    H140578   4.660   6.342   1.071 -1.2567 -1.1999 -0.5778
 5461TIP3    H240579   4.708   6.468   1.001 -0.7388 -0.5307  0.9449
 5462TIP3   OH240580   5.207   4.764   3.295  0.1388 -0.4454  0.2057
 5462TIP3    H140581   5.244   4.852   3.303  1.3393 -0.8623 -0.4880
 5462TIP3    H240582   5.158   4.751   3.376  0.3635  0.6680  0.5377
 5463TIP3   OH240583   3.418   4.673   1.305 -0.6530 -0.1352 -0.3772
 5463TIP3    H140584   3.497   4.717   1.274 -0.6640  1.0450  1.1238
 5463TIP3    H240585   3.381   4.734   1.369 -1.3764 -1.7757  0.8282
 5464TIP3   OH240586   0.199   0.141   0.787 -0.5709 -0.4331 -0.6371
 5464TIP3    H140587   0.124   0.188   0.749  0.8620  2.2273 -0.4623
 5464TIP3    H240588   0.198   0.055   0.745 -3.4991 -0.3843 -0.8597
 5465TIP3   OH240589   3.235   1.356   2.010 -0.8974  0.5833 -0.2444
 5465TIP3    H140590   3.173   1.413   1.965 -0.8478  0.1876 -0.8255
 5465TIP3    H240591   3.180   1.288   2.051 -1.0925  1.8390  1.6939
 5466TIP3   OH240592   3.619   0.016   1.967  0.0194 -0.0939 -0.1429
 5466TIP3    H140593   3.548  -0.036   1.928  2.1472 -1.9386 -1.8200
 5466TIP3    H240594   3.622  -0.014   2.058 -0.7927 -0.6272 -0.2741
 5467TIP3   OH240595   4.103   4.845   1.207 -0.2286 -0.5020  0.1939
 5467TIP3    H140596   4.170   4.793   1.252  1.2601  2.0996  1.2508
 5467TIP3    H240597   4.054   4.887   1.278 -0.0323  1.0659 -0.5471
 5468TIP3   OH240598   0.156   4.978   0.777 -0.0494  0.1535 -0.5551
 5468TIP3    H140599   0.212   5.045   0.739 -0.1199 -0.5425 -1.9477
 5468TIP3    H240600   0.072   5.021   0.789  0.5284  0.9808  0.8271
 5469TIP3   OH240601   2.147   5.089   1.567 -0.0646 -0.6118 -0.1177
 5469TIP3    H140602   2.136   5.096   1.662  0.8285 -2.0575  0.1236
 5469TIP3    H240603   2.061   5.063   1.535 -0.4260  0.0937  0.2532
 5470TIP3   OH240604   3.811   0.027   2.532  0.4159  0.4968 -0.0814
 5470TIP3    H140605   3.904   0.042   2.548  0.9720 -1.6472 -1.0077
 5470TIP3    H240606   3.807  -0.061   2.495 -1.8234  1.1105 -1.5034
 5471TIP3   OH240607   2.031   1.304   0.665 -0.2063 -0.0609 -0.7205
 5471TIP3    H140608   2.121   1.332   0.682 -0.9996  1.1631  2.2097
 5471TIP3    H240609   1.991   1.378   0.619 -0.0927  0.0007 -0.7201
 5472TIP3   OH240610   5.507   4.481   3.185 -0.2208  0.0746  0.3676
 5472TIP3    H140611   5.534   4.566   3.220  0.4885  0.7547 -1.6625
 5472TIP3    H240612   5.579   4.422   3.208  0.7787  0.7685 -0.8348
 5473TIP3   OH240613   2.953   4.269   1.470  0.3427 -0.0549  0.9150
 5473TIP3    H140614   2.917   4.191   1.428 -0.9557  1.6006 -1.2615
 5473TIP3    H240615   3.045   4.270   1.442  0.7557 -1.4753  2.1013
 5474TIP3   OH240616   4.222   4.292   0.787  0.1263 -0.4514  0.4712
 5474TIP3    H140617   4.206   4.261   0.876  1.2583  0.5798  1.0603
 5474TIP3    H240618   4.301   4.346   0.794  1.1795 -1.6452 -1.4690
 5475TIP3   OH240619   4.574   1.589   2.152  0.1081  0.5171 -0.4325
 5475TIP3    H140620   4.599   1.550   2.236 -1.4710 -1.1171 -0.6465
 5475TIP3    H240621   4.652   1.637   2.123  0.9938  0.3356  1.5087
 5476TIP3   OH240622   7.277   1.057   2.101  0.1736  0.2800  0.0833
 5476TIP3    H140623   7.265   1.151   2.113  0.9841  0.3946  0.0426
 5476TIP3    H240624   7.301   1.025   2.188 -1.9243 -0.2096  0.5352
 5477TIP3   OH240625   2.402   7.303   0.947 -0.2183 -0.9404 -0.0642
 5477TIP3    H140626   2.310   7.309   0.922  0.0284 -0.1703 -0.8172
 5477TIP3    H240627   2.440   7.243   0.883  0.1041 -0.1137 -0.6630
 5478TIP3   OH240628   0.193   2.803   0.422  0.1830  0.4652 -0.4457
 5478TIP3    H140629   0.164   2.763   0.340  0.7599  1.5114 -1.1764
 5478TIP3    H240630   0.112   2.830   0.465 -0.0750  1.0414 -1.2695
 5479TIP3   OH240631   7.577   4.921   2.333  0.3849  0.1174  0.0723
 5479TIP3    H140632   7.551   4.982   2.264  0.3784  0.6325  0.5265
 5479TIP3    H240633   7.496   4.877   2.358  0.2656  0.4083  0.2099
 5480TIP3   OH240634   1.827   7.544   0.669  0.3015  0.1262  0.1080
 5480TIP3    H140635   1.813   7.636   0.646 -0.6698 -0.1128 -0.3451
 5480TIP3    H240636   1.868   7.505   0.591 -1.2414 -0.2640 -0.5648
 5481TIP3   OH240637   4.992   4.465   2.806  0.0772 -0.3727 -0.1210
 5481TIP3    H140638   5.035   4.544   2.773 -0.2898  1.0237  2.4191
 5481TIP3    H240639   4.913   4.457   2.753 -0.7302  2.0006  0.5752
 5482TIP3   OH240640   3.616   5.249   3.053 -0.0586 -0.6212  0.4602
 5482TIP3    H140641   3.685   5.203   3.005  0.5683  0.4841  0.2586
 5482TIP3    H240642   3.647   5.252   3.143 -0.0948 -0.5881  0.4715
 5483TIP3   OH240643   3.059   3.930   0.540 -0.1151  0.2804  0.2523
 5483TIP3    H140644   3.012   3.883   0.471  2.1082  1.3499 -2.1414
 5483TIP3    H240645   3.065   4.020   0.508  3.3671  0.2380  0.4325
 5484TIP3   OH240646   0.663   6.569   2.406  0.0013 -0.3985  0.7651
 5484TIP3    H140647   0.569   6.578   2.424 -0.1507 -0.0958 -0.1279
 5484TIP3    H240648   0.705   6.591   2.489 -0.6907  0.1870  0.9755
 5485TIP3   OH240649   1.441   1.169   0.869 -0.2226  0.2032  0.2003
 5485TIP3    H140650   1.377   1.236   0.845  0.1724  0.7595  0.6638
 5485TIP3    H240651   1.519   1.191   0.818 -0.2626 -0.2294 -0.0529
 5486TIP3   OH240652   1.157   1.996   1.187  0.5857 -0.1389  0.2303
 5486TIP3    H140653   1.222   1.952   1.133  0.4358  0.0766 -0.1275
 5486TIP3    H240654   1.185   1.979   1.277  0.4808 -1.0277  0.0994
 5487TIP3   OH240655   0.213   1.258   2.150 -0.1728  0.2966  0.1806
 5487TIP3    H140656   0.166   1.226   2.227 -0.2057  0.6701  0.3160
 5487TIP3    H240657   0.282   1.193   2.135 -0.5401 -0.0961  0.1610
 5488TIP3   OH240658   4.638   1.731   1.022  0.4353  0.4086 -0.1319
 5488TIP3    H140659   4.601   1.817   1.003  0.3866  0.7448  1.3591
 5488TIP3    H240660   4.682   1.742   1.106  1.0378 -0.8482 -0.2624
 5489TIP3   OH240661   7.565   6.494   1.630  0.0545 -0.3423 -0.0279
 5489TIP3    H140662   7.530   6.556   1.566  0.3525 -0.4333 -0.2818
 5489TIP3    H240663   7.633   6.446   1.583  0.9674  0.2658  0.6309
 5490TIP3   OH240664   2.257   4.021   3.202 -0.1751 -0.5096  0.0018
 5490TIP3    H140665   2.166   4.039   3.224 -0.7080 -0.0290 -2.2834
 5490TIP3    H240666   2.308   4.082   3.255 -1.4240  1.6107 -1.1014
 5491TIP3   OH240667   1.461   1.791   0.734  0.2584 -0.1091 -0.1743
 5491TIP3    H140668   1.410   1.787   0.653 -0.5799  0.2578  0.3221
 5491TIP3    H240669   1.534   1.850   0.713  1.6506 -2.1582 -1.4925
 5492TIP3   OH240670   4.989   4.721   1.562  0.5176  0.0447  0.2236
 5492TIP3    H140671   4.958   4.673   1.485 -1.0362 -0.2342  0.9842
 5492TIP3    H240672   4.914   4.721   1.621  1.0646  1.8947  0.9721
 5493TIP3   OH240673   0.098   4.129   2.309  0.3757 -0.2775  0.4415
 5493TIP3    H140674   0.125   4.212   2.270 -1.4866 -0.0512 -0.5018
 5493TIP3    H240675   0.130   4.063   2.248 -1.6510  0.0220 -1.0494
 5494TIP3   OH240676   2.667   6.418   0.680  0.4694 -0.7710 -0.7031
 5494TIP3    H140677   2.630   6.370   0.606  1.0573 -0.1212 -1.4370
 5494TIP3    H240678   2.758   6.437   0.654  0.7319 -0.6580  0.2423
 5495TIP3   OH240679   1.772   5.190   0.756 -0.0811  0.1979 -0.2252
 5495TIP3    H140680   1.712   5.179   0.829  1.4810  0.2531  1.1303
 5495TIP3    H240681   1.781   5.285   0.746  0.2013  0.1921 -0.0474
 5496TIP3   OH240682   3.615   0.248   0.846  0.2159 -0.1823 -0.0690
 5496TIP3    H140683   3.702   0.286   0.855  0.0398  0.1781  0.1377
 5496TIP3    H240684   3.566   0.311   0.793  0.5822 -1.2249 -1.7137
 5497TIP3   OH240685   6.261   6.106   1.696 -0.2876  0.1806 -0.8775
 5497TIP3    H140686   6.186   6.054   1.664 -1.6113  0.5829  1.3461
 5497TIP3    H240687   6.222   6.189   1.723  1.0458  0.5655 -0.0813
 5498TIP3   OH240688   1.995   5.836   2.671  0.0215  0.1172 -0.3788
 5498TIP3    H140689   1.990   5.764   2.734 -0.1823  0.2975 -0.1882
 5498TIP3    H240690   1.920   5.823   2.613  1.4959 -1.4288 -2.0837
 5499TIP3   OH240691   1.338   0.057   1.333 -0.0258 -0.1857  0.0449
 5499TIP3    H140692   1.317  -0.034   1.311  0.7357 -0.8046  1.6513
 5499TIP3    H240693   1.332   0.104   1.251 -3.8389 -1.0025 -0.3266
 5500TIP3   OH240694   1.278   4.695   1.664 -0.2531 -0.2599  0.6014
 5500TIP3    H140695   1.236   4.756   1.603 -1.7197 -0.6379  1.1941
 5500TIP3    H240696   1.338   4.644   1.609  1.8849  2.4282  0.2836
 5501TIP3   OH240697   6.133   7.045   0.844 -0.6835  0.2028 -0.6554
 5501TIP3    H140698   6.155   7.068   0.754  2.6278  0.8450  0.1657
 5501TIP3    H240699   6.193   7.098   0.897 -0.2550 -2.4738  1.7750
 5502TIP3   OH240700   4.933   0.111   1.448  0.0356 -0.6292 -0.1527
 5502TIP3    H140701   4.840   0.114   1.473 -0.0705 -0.5890 -0.5456
 5502TIP3    H240702   4.974   0.057   1.515 -0.6171 -2.2903 -1.0312
 5503TIP3   OH240703   7.502   6.404   1.226 -0.2663 -0.5112 -0.2550
 5503TIP3    H140704   7.459   6.384   1.142  2.5269 -3.0623 -1.2591
 5503TIP3    H240705   7.457   6.349   1.290 -0.6808 -0.5735 -0.5975
 5504TIP3   OH240706   2.878   3.005   1.027 -0.1217 -0.1431 -0.6737
 5504TIP3    H140707   2.972   3.013   1.045 -0.4791  1.5053  0.8000
 5504TIP3    H240708   2.836   3.047   1.103 -2.0342 -0.4963 -1.4847
 5505TIP3   OH240709   5.996   5.126   1.654  0.1083  0.1717 -0.8424
 5505TIP3    H140710   5.955   5.202   1.612 -1.9173 -0.4704 -0.1443
 5505TIP3    H240711   5.946   5.114   1.735  3.4390  0.9835  1.5527
 5506TIP3   OH240712   1.799   1.381   2.024 -0.0897  0.8365 -0.0317
 5506TIP3    H140713   1.748   1.456   2.054 -0.5460  0.3792  0.3523
 5506TIP3    H240714   1.811   1.327   2.102 -0.6534 -0.0009 -0.5165
 5507TIP3   OH240715   7.225   5.538   0.579 -0.4923 -0.6905 -0.1608
 5507TIP3    H140716   7.194   5.517   0.667 -0.0541  0.8533  0.3918
 5507TIP3    H240717   7.206   5.459   0.528 -1.4907 -1.3253  1.1151
 5508TIP3   OH240718   1.856   2.755   2.500 -0.2802 -0.1872 -0.3981
 5508TIP3    H140719   1.819   2.783   2.584  0.4660 -2.4617  0.7936
 5508TIP3    H240720   1.787   2.771   2.437 -0.6837  2.0876  0.5086
 5509TIP3   OH240721   1.940   5.561   0.805  0.3586  0.0042  0.2580
 5509TIP3    H140722   1.869   5.502   0.780 -0.3179  0.3199  1.3535
 5509TIP3    H240723   1.926   5.639   0.751  1.1671 -0.7572 -1.0834
 5510TIP3   OH240724   3.404   0.398   1.614  0.5431 -0.3799  0.4787
 5510TIP3    H140725   3.340   0.369   1.679 -0.0766 -0.0197  0.0327
 5510TIP3    H240726   3.432   0.484   1.644 -0.1078 -0.0035  0.0043
 5511TIP3   OH240727   0.083   4.893   3.011  0.5894  0.7213 -0.3462
 5511TIP3    H140728  -0.002   4.852   2.995  0.7771  0.3681 -0.4524
 5511TIP3    H240729   0.119   4.846   3.086  0.9048  0.5397 -0.6097
 5512TIP3   OH240730   2.592   4.775   0.413  0.1620 -0.4221 -0.1934
 5512TIP3    H140731   2.537   4.820   0.477  0.2353 -1.0059  0.2905
 5512TIP3    H240732   2.531   4.740   0.349 -0.2675 -2.7838  1.3989
 5513TIP3   OH240733   1.345   7.282   3.149  0.1218 -0.5281 -0.3221
 5513TIP3    H140734   1.352   7.191   3.176 -0.5303  0.0810  2.1921
 5513TIP3    H240735   1.254   7.293   3.122  0.7675 -1.1293 -3.0110
 5514TIP3   OH240736   0.012   6.102   1.961 -0.2713  0.0752  0.6454
 5514TIP3    H140737  -0.054   6.036   1.938  0.2171  0.5086 -2.4033
 5514TIP3    H240738  -0.010   6.178   1.908  1.1076  1.1983  1.6073
 5515TIP3   OH240739   6.691   0.359   0.871  0.3662 -0.3179  0.1294
 5515TIP3    H140740   6.766   0.331   0.923  1.1674  0.9332 -0.3054
 5515TIP3    H240741   6.621   0.373   0.935  0.6129 -1.0785  0.5850
 5516TIP3   OH240742   4.013   2.843   0.825  0.0688  0.0052 -0.5699
 5516TIP3    H140743   4.004   2.760   0.778 -0.3617  0.5720 -1.5278
 5516TIP3    H240744   4.079   2.825   0.892 -0.7117 -1.3702 -0.1240
 5517TIP3   OH240745   4.905   1.598   9.362  0.5301  0.0251 -0.1624
 5517TIP3    H140746   4.843   1.593   9.290 -0.2779 -1.0060  0.5867
 5517TIP3    H240747   4.856   1.568   9.439  1.2900  1.3396  0.8802
 5518TIP3   OH240748   1.994   1.994   2.303 -0.3103  0.0584  0.4314
 5518TIP3    H140749   1.986   1.903   2.274  0.5430  0.0706  0.1516
 5518TIP3    H240750   2.081   2.022   2.274 -1.1478  1.4755 -0.9208
 5519TIP3   OH240751   0.275   4.851   0.350  0.3952  0.4755  0.1398
 5519TIP3    H140752   0.305   4.926   0.299 -0.2034  0.4730 -0.2271
 5519TIP3    H240753   0.179   4.856   0.347  0.3358  0.4967  1.2960
 5520TIP3   OH240754   7.556   3.521   0.752  0.5473  0.1164 -0.4769
 5520TIP3    H140755   7.600   3.520   0.668  2.0590 -3.6265  0.1517
 5520TIP3    H240756   7.473   3.475   0.736  0.2091  0.6015 -0.1631
 5521TIP3   OH240757   3.595   2.657   2.264  0.3150  0.3370 -0.0810
 5521TIP3    H140758   3.560   2.746   2.265 -1.6353 -0.3644 -0.8495
 5521TIP3    H240759   3.542   2.610   2.329 -0.6063 -0.8806 -1.6264
 5522TIP3   OH240760   6.095   3.122   1.081 -0.4021 -0.2855  0.0392
 5522TIP3    H140761   6.116   3.204   1.036 -0.3526 -1.3007 -1.9227
 5522TIP3    H240762   6.017   3.089   1.036 -1.8045 -0.2370  2.3057
 5523TIP3   OH240763   0.074   4.471   3.505  0.0448  0.6808 -0.2719
 5523TIP3    H140764   0.072   4.560   3.541 -2.0347  0.7033 -0.3213
 5523TIP3    H240765  -0.016   4.453   3.480  0.6264 -1.0395 -1.3281
 5524TIP3   OH240766   0.013   1.255   2.381  0.6677  0.6714 -0.1190
 5524TIP3    H140767   0.022   1.281   2.473 -2.5683 -1.2204  0.8821
 5524TIP3    H240768  -0.041   1.324   2.342 -1.5395 -0.5552  0.5960
 5525TIP3   OH240769   4.934   0.990   1.063  0.3920  0.1491  0.3437
 5525TIP3    H140770   4.905   0.910   1.019  0.2279  0.7584 -0.6892
 5525TIP3    H240771   4.996   1.030   1.001  1.8029 -0.0300  1.5742
 5526TIP3   OH240772   4.727   0.881   0.545  0.4953  0.3475 -0.1894
 5526TIP3    H140773   4.798   0.844   0.597 -0.6667  0.4733  1.5519
 5526TIP3    H240774   4.744   0.975   0.545  0.8953  0.2861 -0.7099
 5527TIP3   OH240775   6.702   1.779   2.874 -0.1964 -0.3201  0.2686
 5527TIP3    H140776   6.654   1.709   2.917  2.2929 -2.2390  0.1409
 5527TIP3    H240777   6.764   1.735   2.817  1.3579  1.9770  0.0397
 5528TIP3   OH240778   3.544   6.780   2.653 -0.3263 -0.4528  0.3516
 5528TIP3    H140779   3.514   6.694   2.624 -1.2673 -0.3955  1.0959
 5528TIP3    H240780   3.482   6.805   2.722 -0.8009  1.3325 -0.6498
 5529TIP3   OH240781   0.937   7.482   9.336  0.0897  0.0986 -0.1998
 5529TIP3    H140782   0.959   7.539   9.262  1.1451 -1.2642 -0.9865
 5529TIP3    H240783   1.022   7.452   9.369 -0.3700  0.4824  1.4404
 5530TIP3   OH240784   4.470   7.227   1.170  0.6167  0.2138 -0.7625
 5530TIP3    H140785   4.375   7.233   1.174  0.6566  0.0750  2.4007
 5530TIP3    H240786   4.495   7.291   1.103 -1.5996  1.2989 -0.6392
 5531TIP3   OH240787   0.050   4.216   1.328  0.1795 -0.0877 -1.0270
 5531TIP3    H140788   0.006   4.301   1.328 -0.5354 -0.4450  0.0375
 5531TIP3    H240789   0.054   4.191   1.235 -1.9353 -0.0852 -1.1503
 5532TIP3   OH240790   2.548   5.697   2.231 -0.0736  0.2892 -0.5562
 5532TIP3    H140791   2.620   5.644   2.196  0.5838  1.3127 -0.7987
 5532TIP3    H240792   2.492   5.713   2.155  0.1935  0.6714 -0.6757
 5533TIP3   OH240793   2.100   1.522   2.765 -0.0040 -0.2369 -0.5692
 5533TIP3    H140794   2.162   1.449   2.763 -0.1901 -0.4038 -3.1709
 5533TIP3    H240795   2.054   1.517   2.682 -2.9580  0.4087  0.9018
 5534TIP3   OH240796   4.177   6.200   1.682  0.4510 -0.2589  0.3075
 5534TIP3    H140797   4.176   6.115   1.725 -1.7827  0.2050  1.3259
 5534TIP3    H240798   4.113   6.192   1.611  0.8179  0.3347 -0.1013
 5535TIP3   OH240799   1.078   6.496   3.200  0.1282 -0.9854  0.7449
 5535TIP3    H140800   1.125   6.453   3.129 -2.8312 -0.3061 -1.8377
 5535TIP3    H240801   1.010   6.433   3.226 -1.0927  0.1276  0.3913
 5536TIP3   OH240802   1.379   0.744   1.663 -0.3029  0.4021 -0.0547
 5536TIP3    H140803   1.440   0.795   1.716 -0.6784 -1.5925  2.5030
 5536TIP3    H240804   1.297   0.794   1.665 -0.3726  0.2508  1.4810
 5537TIP3   OH240805   1.975   1.765   3.074 -0.8131 -0.0979  0.0118
 5537TIP3    H140806   1.916   1.764   2.998  1.1493 -0.8088 -1.5813
 5537TIP3    H240807   2.061   1.745   3.038  0.4331  0.8471  2.2666
 5538TIP3   OH240808   3.309   2.125   2.739  0.0261 -0.2197 -0.0684
 5538TIP3    H140809   3.297   2.052   2.679 -0.4634 -0.5022  0.3575
 5538TIP3    H240810   3.287   2.089   2.825 -3.3143  1.1551 -0.1903
 5539TIP3   OH240811   5.581   0.022   2.707  0.1599 -0.2012 -0.0946
 5539TIP3    H140812   5.559   0.109   2.672 -0.1702 -0.5829 -0.8513
 5539TIP3    H240813   5.570  -0.037   2.633 -0.4725 -1.0227  0.6358
 5540TIP3   OH240814   4.037   2.916   2.543  0.0701  0.2161  0.0751
 5540TIP3    H140815   4.055   2.929   2.636  0.0523  1.4597 -0.0777
 5540TIP3    H240816   3.953   2.959   2.528  0.0780  0.0416 -0.5164
 5541TIP3   OH240817   3.542   0.099   2.916  0.0386  0.1655 -0.4248
 5541TIP3    H140818   3.560   0.011   2.884 -0.0675  0.0435 -0.1566
 5541TIP3    H240819   3.616   0.119   2.974 -0.4248 -0.1395  0.2859
 5542TIP3   OH240820   1.308   0.321   1.508 -0.1404 -0.5890  0.3013
 5542TIP3    H140821   1.307   0.335   1.603 -1.5660 -0.2813  0.2487
 5542TIP3    H240822   1.389   0.271   1.493  1.6414  1.7794  1.3100
 5543TIP3   OH240823   7.659   5.746   3.379 -0.2249  0.0595 -0.6299
 5543TIP3    H140824   7.608   5.736   3.459 -1.7467  0.1774 -1.5434
 5543TIP3    H240825   7.676   5.657   3.350 -0.2813  0.0191 -0.5387
 5544TIP3   OH240826   5.892   7.445   0.446 -0.0966 -0.5272 -0.1828
 5544TIP3    H140827   5.961   7.507   0.422 -0.1613  0.1971  1.3792
 5544TIP3    H240828   5.823   7.460   0.381 -0.2463  1.2768  0.3337
 5545TIP3   OH240829   5.356   4.022   3.043  0.1679  0.1012  0.7358
 5545TIP3    H140830   5.424   3.972   3.087  0.4833 -0.2263 -0.1046
 5545TIP3    H240831   5.394   4.109   3.030  0.2122  0.0873  0.7745
 5546TIP3   OH240832   2.346   5.229   1.932 -0.4999  0.2419 -0.3371
 5546TIP3    H140833   2.365   5.292   1.862 -0.6559 -0.4338 -1.0075
 5546TIP3    H240834   2.423   5.234   1.989 -0.4679  0.9639 -0.4295
 5547TIP3   OH240835   1.717   2.068   2.584  0.0991  0.6280 -0.6856
 5547TIP3    H140836   1.631   2.097   2.555 -1.0036 -0.5410  1.1631
 5547TIP3    H240837   1.728   2.110   2.670  0.6646 -0.4301 -0.2197
 5548TIP3   OH240838   3.856   1.833   1.248 -0.1822 -0.0002 -0.7313
 5548TIP3    H140839   3.868   1.760   1.308 -1.1861  0.2732 -0.1817
 5548TIP3    H240840   3.763   1.832   1.227 -0.1553  0.9549 -0.9256
 5549TIP3   OH240841   1.402   3.961   1.663 -0.2740 -0.4821 -0.3524
 5549TIP3    H140842   1.347   4.037   1.676  1.0910  0.6931 -1.1670
 5549TIP3    H240843   1.452   3.952   1.745 -0.4741 -0.5366 -0.2372
 5550TIP3   OH240844   5.732   2.151   2.271  0.0765  0.3071  0.1671
 5550TIP3    H140845   5.779   2.068   2.279 -2.3268 -1.1321  0.5288
 5550TIP3    H240846   5.741   2.191   2.357  3.0140  1.5438 -0.6023
 5551TIP3   OH240847   1.075   0.730   2.902 -0.4727  0.2346 -0.5680
 5551TIP3    H140848   1.143   0.664   2.918  0.4529  1.2654 -0.0712
 5551TIP3    H240849   0.994   0.689   2.930  0.6143  0.8460  4.4176
 5552TIP3   OH240850   0.791   7.445   2.637  0.2750  0.1142 -0.1349
 5552TIP3    H140851   0.825   7.492   2.561 -0.5201 -0.5567 -0.9143
 5552TIP3    H240852   0.719   7.499   2.668  0.8379  0.5821  0.3902
 5553TIP3   OH240853   1.847   6.279   0.787  0.2790  0.7212 -0.3045
 5553TIP3    H140854   1.904   6.202   0.786  1.5098  1.6032  0.0696
 5553TIP3    H240855   1.787   6.264   0.860  0.9465  0.4131  0.1897
 5554TIP3   OH240856   6.083   2.067   2.202 -0.0485 -0.2096 -0.5550
 5554TIP3    H140857   6.173   2.035   2.198 -0.3738 -1.0626 -3.0804
 5554TIP3    H240858   6.091   2.159   2.229  1.7377  0.1805 -2.1927
 5555TIP3   OH240859   1.325   0.770   1.197  0.1294 -0.2825  0.7012
 5555TIP3    H140860   1.374   0.690   1.175 -1.6077 -0.9775 -0.9091
 5555TIP3    H240861   1.363   0.837   1.140  0.7343 -0.2433  1.1352
 5556TIP3   OH240862   4.486   3.523   0.926 -0.2689 -0.3402  0.1627
 5556TIP3    H140863   4.425   3.537   0.854 -1.1464 -0.0818  0.9383
 5556TIP3    H240864   4.564   3.573   0.901 -0.4012 -0.5803 -0.7827
 5557TIP3   OH240865   1.499   0.106   0.531  0.3846 -0.2019  0.1554
 5557TIP3    H140866   1.416   0.060   0.524 -0.3318  1.0414  0.2481
 5557TIP3    H240867   1.556   0.064   0.466 -0.6578 -0.3492 -0.6896
 5558TIP3   OH240868   5.081   3.211   2.871  0.1542 -0.0557  0.4014
 5558TIP3    H140869   5.043   3.140   2.818  1.0821  0.7230 -1.3928
 5558TIP3    H240870   5.004   3.257   2.907 -0.5897  0.1468 -1.3374
 5559TIP3   OH240871   3.591   6.084   1.438  0.6110  0.7197  0.7668
 5559TIP3    H140872   3.579   6.158   1.378  0.0449  0.7999  0.9689
 5559TIP3    H240873   3.516   6.090   1.498 -0.1945 -0.8153 -0.0419
 5560TIP3   OH240874   6.576   5.622   1.369 -0.1456  0.3979  0.5035
 5560TIP3    H140875   6.550   5.694   1.311 -0.7498  0.5760  0.9917
 5560TIP3    H240876   6.647   5.659   1.422 -0.1253  0.4780  0.4218
 5561TIP3   OH240877   4.703   6.770   2.323  0.2766 -0.7879  0.1592
 5561TIP3    H140878   4.647   6.813   2.258  1.7878 -0.9886 -1.3352
 5561TIP3    H240879   4.671   6.803   2.407  0.5943  2.3593 -0.8406
 5562TIP3   OH240880   0.949   1.943   0.629  0.4122  0.6968  0.4092
 5562TIP3    H140881   0.928   2.003   0.557  0.2280  1.7497  1.3071
 5562TIP3    H240882   1.013   1.882   0.592 -0.4168  0.5955 -0.9167
 5563TIP3   OH240883   6.127   6.765   0.404  0.1447  1.2260 -0.1412
 5563TIP3    H140884   6.035   6.765   0.378 -0.0928  0.9051  0.6893
 5563TIP3    H240885   6.144   6.676   0.435  1.6150  0.2817 -3.2621
 5564TIP3   OH240886   5.247   6.891   0.533  0.2839 -0.2282 -0.2451
 5564TIP3    H140887   5.283   6.934   0.610  2.6030  0.0876 -1.4059
 5564TIP3    H240888   5.192   6.957   0.491  0.6372  0.2688  0.0691
 5565TIP3   OH240889   0.417   1.923   0.608 -0.0998  0.0742  0.1407
 5565TIP3    H140890   0.357   1.929   0.533 -0.3688  0.6093  0.3933
 5565TIP3    H240891   0.389   1.845   0.655 -2.8620  2.0742  2.1464
 5566TIP3   OH240892   5.840   4.908   3.128  0.5948  0.0186  0.1818
 5566TIP3    H140893   5.905   4.876   3.190  1.1394 -1.8580 -1.2887
 5566TIP3    H240894   5.890   4.955   3.062  0.4658 -1.2309 -0.8314
 5567TIP3   OH240895   6.161   5.318   1.908  0.1537  0.2891 -0.4484
 5567TIP3    H140896   6.240   5.372   1.916  1.0796 -0.7726 -1.7725
 5567TIP3    H240897   6.152   5.304   1.813 -1.4516  0.1153 -0.2944
 5568TIP3   OH240898   7.490   0.089   1.048 -0.5110 -0.2748 -0.3769
 5568TIP3    H140899   7.581   0.061   1.060  0.1951  1.8365 -0.3003
 5568TIP3    H240900   7.439   0.008   1.052  1.1734 -1.3375  1.3912
 5569TIP3   OH240901   6.240   5.306   1.195 -0.0371 -0.2885 -0.0763
 5569TIP3    H140902   6.220   5.328   1.286 -1.7953  0.5197 -0.5967
 5569TIP3    H240903   6.165   5.254   1.166  0.5044 -0.5539 -1.0499
 5570TIP3   OH240904   5.191   3.015   1.846 -0.0664 -0.1596  0.0454
 5570TIP3    H140905   5.151   2.961   1.778 -1.5529 -0.5433  1.1708
 5570TIP3    H240906   5.124   3.022   1.914 -0.1236  3.4127 -0.1913
 5571TIP3   OH240907   6.093   5.948   0.463  0.1796 -0.6415  0.1958
 5571TIP3    H140908   6.185   5.970   0.445  0.5519 -0.1333  2.4857
 5571TIP3    H240909   6.047   6.032   0.455 -0.0367 -0.8209 -0.5277
 5572TIP3   OH240910   2.185   0.758   3.101 -0.0883  0.0870 -0.3954
 5572TIP3    H140911   2.205   0.671   3.065  2.5663  0.3661  0.1934
 5572TIP3    H240912   2.271   0.798   3.116 -1.2264  2.4745  0.2219
 5573TIP3   OH240913   2.636   6.597   1.336  0.0256 -0.4476 -0.3856
 5573TIP3    H140914   2.713   6.567   1.385  0.3937  0.1778 -0.5633
 5573TIP3    H240915   2.601   6.518   1.296 -0.0303 -0.9094  0.5303
 5574TIP3   OH240916   0.181   2.658   0.807  0.2133  0.1624 -0.2939
 5574TIP3    H140917   0.197   2.578   0.857  1.8307  0.5792 -0.0894
 5574TIP3    H240918   0.090   2.681   0.827  0.7963  0.3365  2.4887
 5575TIP3   OH240919   1.265   1.610   1.280 -0.2411  0.2981  0.3037
 5575TIP3    H140920   1.310   1.686   1.314  1.9904 -1.0390  0.5301
 5575TIP3    H240921   1.231   1.565   1.358 -0.7106  0.5391  0.2426
 5576TIP3   OH240922   6.067   5.965   1.503 -0.2861  0.9128  0.1600
 5576TIP3    H140923   6.056   5.874   1.475  0.6594  0.7817  0.1875
 5576TIP3    H240924   5.980   6.004   1.491 -0.4898  0.2362 -0.6906
 5577TIP3   OH240925   0.395   6.136   0.984  0.1565 -0.0576  0.2250
 5577TIP3    H140926   0.459   6.065   0.980  0.1386 -0.1487  1.2241
 5577TIP3    H240927   0.311   6.095   0.964 -0.2446 -0.8816  3.1511
 5578TIP3   OH240928   7.360   5.227   2.424 -0.3184 -0.5332  0.2047
 5578TIP3    H140929   7.344   5.321   2.427 -2.6463 -0.7838 -1.4737
 5578TIP3    H240930   7.361   5.206   2.331  3.2846 -1.7906  0.3913
 5579TIP3   OH240931   2.845   3.684   1.304 -0.3172  0.0389  0.4134
 5579TIP3    H140932   2.830   3.712   1.214  0.7672 -0.6232  0.0046
 5579TIP3    H240933   2.940   3.692   1.316 -0.5062  0.7268  1.7163
 5580TIP3   OH240934   4.617   4.149   0.980  0.2971 -0.1852 -0.2413
 5580TIP3    H140935   4.649   4.172   1.067  1.9229 -1.2260 -0.5112
 5580TIP3    H240936   4.551   4.082   0.995  0.3209 -0.1070  0.2122
 5581TIP3   OH240937   2.481   6.426   3.223 -0.1478 -0.5164  0.0896
 5581TIP3    H140938   2.485   6.347   3.169  2.6564 -2.9285  3.3508
 5581TIP3    H240939   2.540   6.488   3.180 -1.0961 -0.7538 -1.6439
 5582TIP3   OH240940   1.537   2.913   1.825 -0.4645 -0.3002 -0.2734
 5582TIP3    H140941   1.512   2.869   1.744 -0.5005 -1.6895  0.4704
 5582TIP3    H240942   1.514   2.851   1.895  1.1971  0.1097  0.7019
 5583TIP3   OH240943   4.439   6.789   2.235 -0.1826 -0.4747  0.1152
 5583TIP3    H140944   4.428   6.795   2.140 -1.4216 -1.2733  0.1907
 5583TIP3    H240945   4.442   6.695   2.253 -0.5578 -0.3407  0.9292
 5584TIP3   OH240946   0.469   0.979   2.852  0.5945 -0.2907  0.0456
 5584TIP3    H140947   0.420   1.008   2.929 -0.5394 -0.9193 -0.4089
 5584TIP3    H240948   0.502   0.893   2.876  2.3939  0.5376  0.7202
 5585TIP3   OH240949   1.340   6.379   0.684  0.8064  0.1279 -0.1346
 5585TIP3    H140950   1.308   6.395   0.595 -0.1938  2.0197  0.5044
 5585TIP3    H240951   1.421   6.430   0.690  0.7238  0.2311  0.1159
 5586TIP3   OH240952   1.167   3.599   1.777 -0.0396 -0.1682 -0.3824
 5586TIP3    H140953   1.090   3.560   1.737 -0.8322  1.8126 -0.9083
 5586TIP3    H240954   1.173   3.686   1.737  1.9579  0.0550  0.2983
 5587TIP3   OH240955   1.536   4.157   3.491  1.0158  0.3682 -0.0602
 5587TIP3    H140956   1.458   4.128   3.446  1.3582 -1.2974  0.3531
 5587TIP3    H240957   1.506   4.229   3.547 -0.9844 -2.2367  2.5235
 5588TIP3   OH240958   0.721   4.616   1.336 -0.7709  0.0204  0.1011
 5588TIP3    H140959   0.780   4.684   1.304 -0.1300  0.1249  1.4191
 5588TIP3    H240960   0.636   4.660   1.347 -0.9917 -0.0074 -1.3162
 5589TIP3   OH240961   2.234   5.980   0.717  0.0814  0.4123 -0.2594
 5589TIP3    H140962   2.218   5.930   0.797 -1.0586  0.0933 -0.6673
 5589TIP3    H240963   2.303   5.931   0.672 -0.4473 -0.3371 -0.2641
 5590TIP3   OH240964   4.953   3.981   1.152  0.2138 -0.0619  0.5961
 5590TIP3    H140965   5.008   4.011   1.079  0.3775 -2.3092 -0.2670
 5590TIP3    H240966   4.881   4.044   1.154 -0.1540 -0.2880 -1.9683
 5591TIP3   OH240967   2.644   7.056   1.145 -0.6197 -0.3004 -0.2184
 5591TIP3    H140968   2.577   7.050   1.076  0.6823  2.0303 -1.8354
 5591TIP3    H240969   2.716   7.002   1.113 -0.3750  0.0318 -0.2276
 5592TIP3   OH240970   7.302   3.962   1.354 -0.2781 -0.3702  0.3979
 5592TIP3    H140971   7.289   4.018   1.277 -2.7752  0.3076  1.2157
 5592TIP3    H240972   7.397   3.951   1.360  0.1279  1.5212 -1.3742
 5593TIP3   OH240973   4.781   3.242   1.343 -0.4171  0.5693  0.4100
 5593TIP3    H140974   4.809   3.295   1.269 -0.0329  1.6922  1.3269
 5593TIP3    H240975   4.691   3.271   1.359  0.1233  1.7533  1.5496
 5594TIP3   OH240976   1.368   3.245   2.790  0.5210 -0.1996 -0.6789
 5594TIP3    H140977   1.274   3.238   2.804 -0.0554 -0.0933 -3.7772
 5594TIP3    H240978   1.406   3.238   2.878 -2.3350 -0.2187  0.6711
 5595TIP3   OH240979   0.892   5.808   1.751 -0.1829  0.3231 -0.1070
 5595TIP3    H140980   0.858   5.791   1.839  3.9502  0.6836  1.8109
 5595TIP3    H240981   0.869   5.898   1.732 -1.2742  0.1847  0.5107
 5596TIP3   OH240982   2.098   6.192   1.376  0.3791 -0.1766  0.4311
 5596TIP3    H140983   2.035   6.187   1.448  0.6829 -0.3801  0.6862
 5596TIP3    H240984   2.044   6.193   1.297  0.0543 -0.2869  0.6496
 5597TIP3   OH240985   1.631   1.817   1.638 -0.1488 -0.5867 -0.0495
 5597TIP3    H140986   1.695   1.809   1.709 -1.6995 -2.7440  1.2522
 5597TIP3    H240987   1.663   1.889   1.585  3.9856 -2.2283 -0.1851
 5598TIP3   OH240988   0.472   2.921   3.512  0.1043 -0.0301  0.2220
 5598TIP3    H140989   0.395   2.925   3.456  0.1608 -1.2527  0.0328
 5598TIP3    H240990   0.526   2.851   3.475  1.6574  1.2467 -0.0660
 5599TIP3   OH240991   4.033   3.282   1.852 -0.1274 -0.2652 -0.6181
 5599TIP3    H140992   3.990   3.311   1.933  3.4651  1.6361  0.8468
 5599TIP3    H240993   3.962   3.254   1.795 -2.9657 -0.1885  2.5989
 5600TIP3   OH240994   4.781   6.121   0.852  0.2266  0.9151 -0.2735
 5600TIP3    H140995   4.788   6.163   0.938  1.0280  0.8340 -0.2879
 5600TIP3    H240996   4.827   6.180   0.792 -0.3582  0.9867 -0.6598
 5601TIP3   OH240997   6.129   1.632   0.648  0.0838  0.0510 -0.0350
 5601TIP3    H140998   6.203   1.670   0.601  0.8760 -0.4492  0.7858
 5601TIP3    H240999   6.091   1.704   0.698 -0.6372  0.5421 -1.2373
 5602TIP3   OH241000   4.718   5.893   0.627  0.4249  0.2888 -0.4267
 5602TIP3    H141001   4.726   5.955   0.700 -1.0162  0.3029 -0.2510
 5602TIP3    H241002   4.706   5.808   0.670  2.0852 -0.1126 -0.6684
 5603TIP3   OH241003   6.001   0.697   0.633  0.6540  0.9548  0.1687
 5603TIP3    H141004   5.986   0.772   0.575 -0.0632  1.1028  0.5353
 5603TIP3    H241005   5.915   0.676   0.668  1.2032  1.6245  2.0900
 5604TIP3   OH241006   4.555   1.037   2.801  0.0398  0.6313 -0.2549
 5604TIP3    H141007   4.649   1.049   2.817  0.4320 -1.3897 -0.7165
 5604TIP3    H241008   4.516   1.122   2.822  1.8420  1.2411  0.8864
 5605TIP3   OH241009   2.106   7.525   1.366  0.4765 -0.2879  0.4394
 5605TIP3    H141010   2.047   7.514   1.292  0.3832 -0.5695  0.5500
 5605TIP3    H241011   2.053   7.570   1.432  0.0471 -1.4585  0.9202
 5606TIP3   OH241012   2.902   7.579   1.556  0.0498  0.1241  0.5755
 5606TIP3    H141013   2.812   7.554   1.576 -0.5835  1.6357 -0.2738
 5606TIP3    H241014   2.935   7.509   1.500  0.2980 -1.7544  2.8946
 5607TIP3   OH241015   6.575   3.743   1.283 -0.1007 -0.2640 -0.5554
 5607TIP3    H141016   6.620   3.665   1.250  1.7952  0.9764 -1.0468
 5607TIP3    H241017   6.594   3.744   1.377  1.4707  0.5675 -0.8550
 5608TIP3   OH241018   0.781   6.635   1.132 -0.4421  0.6424 -0.2083
 5608TIP3    H141019   0.837   6.580   1.078  0.2176 -0.7996  1.8469
 5608TIP3    H241020   0.836   6.709   1.157 -0.4209  0.7603 -0.5887
 5609TIP3   OH241021   6.737   5.181   1.035  0.4054  0.0370  0.3832
 5609TIP3    H141022   6.766   5.243   1.102  1.1694 -1.7895  1.8344
 5609TIP3    H241023   6.643   5.171   1.050  0.5875 -0.4436  1.3089
 5610TIP3   OH241024   1.146   2.568   0.965  0.5151  0.3584 -0.4963
 5610TIP3    H141025   1.131   2.480   1.000  0.6158  0.9110  1.0391
 5610TIP3    H241026   1.211   2.556   0.896  0.4319 -0.7862 -0.3943
 5611TIP3   OH241027   7.490   2.647   0.632 -0.7799  0.1145 -0.3168
 5611TIP3    H141028   7.524   2.717   0.576 -3.3351  1.4068 -0.3545
 5611TIP3    H241029   7.507   2.677   0.721 -0.8357  0.2184 -0.3415
 5612TIP3   OH241030   7.266   5.303   2.071 -0.1891  0.3211 -0.1760
 5612TIP3    H141031   7.184   5.339   2.105 -0.3507 -1.3576  1.4054
 5612TIP3    H241032   7.334   5.364   2.101 -0.5202 -0.1989  1.7807
 5613TIP3   OH241033   7.287   4.982   1.240  0.3774  0.1282  0.5464
 5613TIP3    H141034   7.204   4.979   1.192  1.1845 -1.2600 -0.8556
 5613TIP3    H241035   7.297   5.074   1.265 -0.8108  0.6101 -0.6267
 5614TIP3   OH241036   6.411   5.198   2.515  0.6681  0.2684 -0.2062
 5614TIP3    H141037   6.375   5.122   2.561 -1.4839  1.7870  0.8078
 5614TIP3    H241038   6.493   5.167   2.477  0.5743 -2.1514  1.3555
 5615TIP3   OH241039   3.462   3.960   2.619  0.0785 -0.1449 -0.1324
 5615TIP3    H141040   3.413   4.040   2.638 -0.0924 -0.2948  0.0571
 5615TIP3    H241041   3.405   3.912   2.558  1.1410  0.8883 -2.0510
 5616TIP3   OH241042   6.024   6.540   2.875  0.4703  0.3913 -0.3187
 5616TIP3    H141043   6.058   6.539   2.964 -1.3041 -1.6583  0.4079
 5616TIP3    H241044   6.036   6.630   2.845 -0.4521  1.5818  2.6045
 5617TIP3   OH241045   0.935   0.058   1.397 -0.6787  0.1017 -0.1294
 5617TIP3    H141046   0.988   0.137   1.387 -0.6282  0.0537 -0.2412
 5617TIP3    H241047   0.976   0.011   1.470 -1.2999  0.6552  0.5917
 5618TIP3   OH241048   6.925   0.952   1.308 -0.0168 -0.3624 -0.2484
 5618TIP3    H141049   6.879   1.010   1.369  0.0463 -0.0269 -0.5162
 5618TIP3    H241050   6.991   0.908   1.362 -1.2004 -1.4926  0.3165
 5619TIP3   OH241051   7.411   2.676   1.865 -0.0586  0.4562 -0.1445
 5619TIP3    H141052   7.478   2.721   1.814 -0.1553 -0.6595 -1.2835
 5619TIP3    H241053   7.341   2.742   1.876  0.8777  1.3925  0.4449
 5620TIP3   OH241054   0.748   3.578   2.705 -0.0607 -0.3189 -0.5840
 5620TIP3    H141055   0.665   3.621   2.685  1.8901  3.8338 -0.7160
 5620TIP3    H241056   0.798   3.582   2.624  1.0273 -0.8318  0.0305
 5621TIP3   OH241057   7.294   5.185   1.451 -0.1624  0.0887 -0.0305
 5621TIP3    H141058   7.251   5.252   1.505  0.1587  0.6318 -0.4354
 5621TIP3    H241059   7.301   5.109   1.509 -0.4427  0.4374  0.4743
 5622TIP3   OH241060   2.163   4.603   1.389  0.2862  0.5887  0.5565
 5622TIP3    H141061   2.203   4.661   1.325  1.3100 -0.6060  0.0827
 5622TIP3    H241062   2.080   4.646   1.412  0.2270  1.3713 -1.0300
 5623TIP3   OH241063   6.072   6.640   2.503  0.2391 -0.1298  0.1051
 5623TIP3    H141064   6.071   6.673   2.593 -0.4387  0.6012 -0.1527
 5623TIP3    H241065   6.030   6.710   2.452  0.6119 -0.5370 -0.7774
 5624TIP3   OH241066   3.942   5.856   2.179  0.4236  0.1260 -0.2438
 5624TIP3    H141067   3.904   5.926   2.232  1.0045  0.8511 -0.7634
 5624TIP3    H241068   3.951   5.782   2.239  0.3210  0.6762  0.4557
 5625TIP3   OH241069   0.785   5.778   1.993  0.5987 -0.2670 -0.3870
 5625TIP3    H141070   0.691   5.781   1.974  0.5677 -2.0623 -0.7197
 5625TIP3    H241071   0.790   5.779   2.089  0.2653  0.1320 -0.3721
 5626TIP3   OH241072   5.563   1.231   1.046  0.1393  0.0085  0.1423
 5626TIP3    H141073   5.522   1.316   1.032  1.4289  0.3834 -1.7166
 5626TIP3    H241074   5.531   1.177   0.974  0.8631 -0.4714  0.1754
 5627TIP3   OH241075   7.533   3.162   0.695  0.1662  0.7395  0.1669
 5627TIP3    H141076   7.454   3.116   0.722 -0.4253  0.2951 -2.1060
 5627TIP3    H241077   7.512   3.255   0.703 -0.0426  0.6239  0.9864
 5628TIP3   OH241078   5.049   0.105   0.782  0.0699 -0.7637  0.8227
 5628TIP3    H141079   4.957   0.080   0.792  0.0963 -0.6995  1.2553
 5628TIP3    H241080   5.080   0.119   0.872  0.2457  0.1223  0.6366
 5629TIP3   OH241081   5.223   5.930   2.441 -0.0175 -0.4222 -0.0399
 5629TIP3    H141082   5.263   5.851   2.405  2.2908  0.6384  0.0662
 5629TIP3    H241083   5.207   5.986   2.365 -1.9039 -1.0259 -0.1486
 5630TIP3   OH241084   0.079   2.616   2.372 -0.3506 -0.4376  0.3911
 5630TIP3    H141085   0.032   2.640   2.292 -0.7048 -0.6497  0.5342
 5630TIP3    H241086   0.084   2.520   2.369 -0.3202 -0.4429  0.5993
 5631TIP3   OH241087   0.494   2.771   2.644 -0.2545  0.1181 -0.4509
 5631TIP3    H141088   0.522   2.863   2.644  0.1677 -0.0073 -1.0412
 5631TIP3    H241089   0.402   2.773   2.618 -0.9024  0.5527  1.6604
 5632TIP3   OH241090   0.544   0.119   0.493 -0.4010  0.2287  0.0936
 5632TIP3    H141091   0.595   0.038   0.496  1.6714  1.3809 -1.4322
 5632TIP3    H241092   0.453   0.089   0.486  0.4069 -2.0686 -2.8664
 5633TIP3   OH241093   0.378   0.368   2.764  0.5858  0.0145 -0.1509
 5633TIP3    H141094   0.310   0.417   2.718  1.2229  0.2030 -0.9066
 5633TIP3    H241095   0.451   0.365   2.703  1.6215  0.6698  1.0163
 5634TIP3   OH241096   0.621   1.427   2.709 -0.1369 -0.0854 -0.1104
 5634TIP3    H141097   0.635   1.440   2.615  0.7041  0.4950  0.0943
 5634TIP3    H241098   0.624   1.332   2.720 -0.0381 -0.1474 -0.6336
 5635TIP3   OH241099   4.960   2.879   0.861 -0.1257 -0.6428 -0.0845
 5635TIP3    H141100   4.916   2.857   0.779  0.4277 -0.1141 -0.5303
 5635TIP3    H241101   5.000   2.964   0.845  1.0362 -1.0883  0.3150
 5636TIP3   OH241102   2.507   7.167   1.406  0.7462 -0.7038 -0.0733
 5636TIP3    H141103   2.553   7.232   1.353  0.0494  0.8374  1.1290
 5636TIP3    H241104   2.548   7.083   1.383  3.8622  0.5233  0.6387
 5637TIP3   OH241105   3.890   5.146   1.880  0.5839  0.3565 -0.1622
 5637TIP3    H141106   3.899   5.220   1.939  1.5506 -0.2236  0.4428
 5637TIP3    H241107   3.939   5.170   1.802  0.7081  0.4531 -0.0546
 5638TIP3   OH241108   0.960   5.044   0.896 -0.3641 -0.0699 -0.4667
 5638TIP3    H141109   0.868   5.017   0.897 -0.2347 -0.5062 -0.2084
 5638TIP3    H241110   1.008   4.962   0.880 -0.0631  0.2656 -1.3270
 5639TIP3   OH241111   7.615   4.883   3.490 -0.1702 -0.2370  0.3179
 5639TIP3    H141112   7.589   4.921   3.407 -0.4157 -1.6232 -0.2753
 5639TIP3    H241113   7.536   4.886   3.544  0.3620  2.0013  1.0717
 5640TIP3   OH241114   5.027   7.561   2.510 -0.0296  0.4302  0.3893
 5640TIP3    H141115   5.083   7.622   2.558  1.4882 -2.0882  2.0366
 5640TIP3    H241116   4.938   7.586   2.533  0.6074  0.9182  2.5105
 5641TIP3   OH241117   2.698   5.950   3.372  0.1043 -0.0854  0.0128
 5641TIP3    H141118   2.755   5.903   3.310 -0.3271 -0.4416 -0.1215
 5641TIP3    H241119   2.758   5.987   3.436  0.5031 -0.3264 -0.2157
 5642TIP3   OH241120   1.299   4.396   1.108 -0.1039 -0.4292  0.2070
 5642TIP3    H141121   1.305   4.322   1.168 -1.0033  0.3221  1.2680
 5642TIP3    H241122   1.318   4.473   1.162 -0.0218  0.1911 -0.6803
 5643TIP3   OH241123   7.421   7.396   0.844 -0.0570 -0.5930 -0.7129
 5643TIP3    H141124   7.348   7.374   0.786 -1.1386  2.5163 -0.7144
 5643TIP3    H241125   7.489   7.428   0.784 -0.8833  1.8710 -0.4358
 5644TIP3   OH241126   3.080   0.616   1.793 -0.6340  0.3118 -0.5092
 5644TIP3    H141127   3.022   0.691   1.800 -0.2065  0.5736  0.4356
 5644TIP3    H241128   3.073   0.588   1.702 -0.6678  1.5985 -0.9195
 5645TIP3   OH241129   2.471   4.479   0.885  0.0869 -0.4061 -0.3335
 5645TIP3    H141130   2.442   4.458   0.796 -0.4617  2.7655 -1.0079
 5645TIP3    H241131   2.390   4.500   0.932  0.4807 -0.9471  0.6080
 5646TIP3   OH241132   6.288   2.077   0.684  0.1024 -0.4594 -0.2046
 5646TIP3    H141133   6.313   2.160   0.646 -0.0495 -0.6539 -0.7364
 5646TIP3    H241134   6.196   2.089   0.709  0.6812  0.2665  1.7829
 5647TIP3   OH241135   5.890   0.593   2.302  0.4653 -0.1674 -0.0457
 5647TIP3    H141136   5.921   0.589   2.393  0.1697 -0.3450  0.0503
 5647TIP3    H241137   5.969   0.590   2.249  0.6147 -0.7764  0.1944
 5648TIP3   OH241138   0.153   3.217   2.336 -0.3031  0.0059 -0.0923
 5648TIP3    H141139   0.184   3.131   2.364  0.4497 -0.0442 -1.0481
 5648TIP3    H241140   0.232   3.269   2.326 -0.2823 -0.4799 -3.7612
 5649TIP3   OH241141   2.112   0.963   0.928  0.1323 -0.3237 -0.2612
 5649TIP3    H141142   2.065   0.880   0.914 -1.1049  0.3180 -0.0384
 5649TIP3    H241143   2.051   1.030   0.899  1.5347  0.4973 -1.4838
 5650TIP3   OH241144   5.233   1.292   2.044  0.2626  0.2517 -0.1018
 5650TIP3    H141145   5.160   1.287   2.105  0.5284  3.4970  0.6300
 5650TIP3    H241146   5.213   1.366   1.987  1.7066 -0.4920 -1.6663
 5651TIP3   OH241147   0.876   2.022   2.007  0.0265 -0.1847  0.2214
 5651TIP3    H141148   0.854   2.111   2.034  1.3899  0.3425 -0.3183
 5651TIP3    H241149   0.945   1.995   2.068 -0.5862 -1.0047  0.5755
 5652TIP3   OH241150   3.309   0.722   1.443 -0.3957  0.2950  0.6932
 5652TIP3    H141151   3.341   0.727   1.533  1.0074 -0.9953  0.3066
 5652TIP3    H241152   3.365   0.657   1.401 -1.5877  0.2312 -0.8924
 5653TIP3   OH241153   5.283   5.544   2.067  0.9634  0.3667  0.2404
 5653TIP3    H141154   5.328   5.574   1.987 -1.5726 -0.4055 -1.6269
 5653TIP3    H241155   5.327   5.462   2.090  1.3212  0.2397 -0.8081
 5654TIP3   OH241156   0.215   6.528   1.592  0.1375  0.4600 -0.3383
 5654TIP3    H141157   0.164   6.605   1.616  0.5292 -0.1718  3.1667
 5654TIP3    H241158   0.153   6.470   1.548 -2.4738 -0.3108  3.8263
 5655TIP3   OH241159   1.890   7.497   1.733  0.2391 -0.1459 -0.1689
 5655TIP3    H141160   1.920   7.410   1.762  0.9186  0.6900  1.7903
 5655TIP3    H241161   1.851   7.537   1.811 -2.5840  0.3304 -1.6890
 5656TIP3   OH241162   1.041   7.003   2.976 -0.1010  0.6677  0.4319
 5656TIP3    H141163   0.978   6.981   2.907 -1.0691 -0.7756  1.7087
 5656TIP3    H241164   1.067   6.919   3.013  0.2064  1.4088  1.9997
 5657TIP3   OH241165   1.373   3.228   3.085  0.4762 -0.0925 -0.1666
 5657TIP3    H141166   1.378   3.301   3.146 -0.6485 -0.2760  0.1801
 5657TIP3    H241167   1.279   3.210   3.076  0.6787 -0.8540 -1.0109
 5658TIP3   OH241168   6.924   1.138   2.023  0.2890  0.5408 -0.1836
 5658TIP3    H141169   6.949   1.212   2.077 -1.2668  0.7065  0.3767
 5658TIP3    H241170   6.967   1.152   1.939  1.7855  0.8998  0.6231
 5659TIP3   OH241171   6.524   5.931   2.103 -0.0330 -0.3278 -0.1850
 5659TIP3    H141172   6.613   5.918   2.137  0.3894  0.3489 -1.0113
 5659TIP3    H241173   6.483   5.844   2.110 -0.0118 -0.2326  2.1175
 5660TIP3   OH241174   7.354   4.372   3.634  0.3413  0.5936 -0.6965
 5660TIP3    H141175   7.420   4.345   3.698  1.0289  0.6183 -1.3851
 5660TIP3    H241176   7.402   4.380   3.552 -0.6550 -0.0716 -1.3621
 5661TIP3   OH241177   3.091   2.926   1.690 -0.5445  0.3602 -0.1639
 5661TIP3    H141178   3.062   2.882   1.610 -0.8700  0.6720 -0.2197
 5661TIP3    H241179   3.067   3.017   1.677 -0.8356  0.3681  0.4006
 5662TIP3   OH241180   7.329   2.464   2.263  0.1236 -0.4555  0.2110
 5662TIP3    H141181   7.292   2.551   2.278  2.0362  0.3807  0.3623
 5662TIP3    H241182   7.346   2.430   2.351 -1.8704 -1.6153  0.2128
 5663TIP3   OH241183   3.924   2.141   1.496 -0.4341  0.1022  0.6527
 5663TIP3    H141184   3.884   2.061   1.527  0.6828  0.1858  2.4501
 5663TIP3    H241185   3.852   2.203   1.485 -1.3160 -1.1356 -0.8704
 5664TIP3   OH241186   0.149   6.497   2.593  0.3113 -0.2584  0.0614
 5664TIP3    H141187   0.236   6.537   2.599  0.8041 -1.4002  0.6421
 5664TIP3    H241188   0.115   6.498   2.682 -0.8728  1.4267 -0.3553
 5665TIP3   OH241189   4.817   3.876   1.641 -0.1230  0.2818  0.2723
 5665TIP3    H141190   4.849   3.944   1.582  0.1774 -0.2718 -0.2172
 5665TIP3    H241191   4.868   3.887   1.721 -0.6634  1.1573  0.5142
 5666TIP3   OH241192   0.055   3.124   1.171 -0.1189  0.2839 -0.1180
 5666TIP3    H141193  -0.019   3.074   1.138  0.2212  0.5138 -1.2722
 5666TIP3    H241194   0.055   3.205   1.119  0.5171  0.6049  0.3560
 5667TIP3   OH241195   1.697   4.091   2.095  0.5550 -0.3507 -1.0953
 5667TIP3    H141196   1.783   4.133   2.099  0.5775 -0.4388 -0.6355
 5667TIP3    H241197   1.664   4.113   2.008  0.4810  0.7727 -0.8024
 5668TIP3   OH241198   7.038   0.828   2.822  0.1452  0.1686  0.1878
 5668TIP3    H141199   6.995   0.913   2.818 -0.4484 -0.1219  0.3840
 5668TIP3    H241200   6.967   0.765   2.828  0.6075 -0.2974  0.8506
 5669TIP3   OH241201   6.865   3.609   1.816  0.0268  0.3463  0.7280
 5669TIP3    H141202   6.799   3.540   1.820 -0.6114  0.9989  1.9617
 5669TIP3    H241203   6.947   3.563   1.797 -0.5484 -0.6263  0.5431
 5670TIP3   OH241204   0.599   6.877   1.645 -0.7063 -0.2763  0.2849
 5670TIP3    H141205   0.665   6.946   1.658 -0.1250 -0.9859  1.2166
 5670TIP3    H241206   0.642   6.797   1.675 -2.0859 -0.7210  1.1452
 5671TIP3   OH241207   2.161   5.244   2.172 -0.4314 -0.1065  0.3434
 5671TIP3    H141208   2.164   5.244   2.076 -1.8792  0.1255  0.2654
 5671TIP3    H241209   2.248   5.272   2.199  0.2685 -1.0140 -0.8800
 5672TIP3   OH241210   1.845   5.766   2.952 -0.4242  0.4270 -0.0216
 5672TIP3    H141211   1.825   5.853   2.916  0.8194  0.2136 -1.2822
 5672TIP3    H241212   1.778   5.709   2.915 -1.0121  0.7569  0.5036
 5673TIP3   OH241213   5.511   1.068   0.832  0.2448 -0.1453  0.2367
 5673TIP3    H141214   5.545   0.979   0.819 -0.0113 -0.3368  0.8316
 5673TIP3    H241215   5.566   1.123   0.775  1.4098 -0.4733  1.0006
 5674TIP3   OH241216   7.182   2.922   1.493  0.5293  0.4317  0.7466
 5674TIP3    H141217   7.129   2.850   1.459  1.4823 -0.5585  1.3096
 5674TIP3    H241218   7.269   2.909   1.456  0.0471  3.0910 -1.6467
 5675TIP3   OH241219   7.049   7.499   2.079 -0.1512 -0.2376 -0.0974
 5675TIP3    H141220   7.014   7.558   2.012 -0.6158 -0.4134 -0.0126
 5675TIP3    H241221   7.103   7.437   2.030  1.5607  1.1348 -0.0337
 5676TIP3   OH241222   3.277   6.845   2.789  0.3800 -0.2213 -0.0772
 5676TIP3    H141223   3.267   6.764   2.840  0.4728 -0.0209  0.2585
 5676TIP3    H241224   3.280   6.915   2.854 -0.1937  0.1051 -0.3888
 5677TIP3   OH241225   6.323   1.735   1.716 -0.1483  0.5549 -0.2355
 5677TIP3    H141226   6.239   1.720   1.672 -0.5800 -1.1618  1.0676
 5677TIP3    H241227   6.299   1.781   1.797  0.3883  1.7042 -0.7144
 5678TIP3   OH241228   3.222   1.754   2.230 -0.3746  0.5050  0.3162
 5678TIP3    H141229   3.211   1.720   2.319 -1.5447 -0.1281 -0.0556
 5678TIP3    H241230   3.184   1.842   2.233 -0.3525  0.5098  0.4620
 5679TIP3   OH241231   4.310   2.523   2.217  0.2033 -0.4170  0.0481
 5679TIP3    H141232   4.313   2.619   2.216 -0.1863 -0.3738 -2.5942
 5679TIP3    H241233   4.228   2.503   2.262  0.5632  0.4347  1.1470
 5680TIP3   OH241234   4.831   1.506   1.921 -0.2315 -0.1560 -0.4904
 5680TIP3    H141235   4.817   1.432   1.981  3.8644 -0.1764  0.7609
 5680TIP3    H241236   4.822   1.583   1.977  1.6050 -0.0874 -0.2254
 5681TIP3   OH241237   1.419   3.827   2.047 -0.0289  0.6018  0.3975
 5681TIP3    H141238   1.468   3.746   2.064 -0.2542 -0.0046 -1.6084
 5681TIP3    H241239   1.328   3.798   2.036 -0.1070  1.1083 -0.3385
 5682TIP3   OH241240   5.897   3.796   2.000  0.0183 -0.3632 -0.1154
 5682TIP3    H141241   5.894   3.842   2.084  1.5160 -1.2735  0.4842
 5682TIP3    H241242   5.876   3.863   1.935 -1.9860  0.1725  1.0144
 5683TIP3   OH241243   6.955   5.464   2.552  0.1713  0.0237 -0.0167
 5683TIP3    H141244   6.986   5.400   2.615 -0.5838 -0.2228  0.1089
 5683TIP3    H241245   6.862   5.446   2.543  0.0787  0.6932 -0.4607
 5684TIP3   OH241246   3.965   7.411   0.460  0.0207 -0.4881  0.3929
 5684TIP3    H141247   4.014   7.467   0.520  2.1622 -0.5395 -1.1651
 5684TIP3    H241248   3.965   7.460   0.377 -2.6327 -0.5085  0.3057
 5685TIP3   OH241249   3.384   5.836   1.295  0.6449  0.1127  0.3270
 5685TIP3    H141250   3.460   5.836   1.237  0.4685 -1.1322  0.0522
 5685TIP3    H241251   3.374   5.927   1.323  0.5223  0.8231 -1.8660
 5686TIP3   OH241252   3.705   1.547   1.293 -0.2004 -0.5856  0.2720
 5686TIP3    H141253   3.713   1.482   1.223  0.8416 -0.7469  0.5340
 5686TIP3    H241254   3.644   1.611   1.258  0.1209 -0.7887 -0.6978
 5687TIP3   OH241255   5.509   6.236   3.394 -0.1530 -0.0796  0.0795
 5687TIP3    H141256   5.484   6.177   3.323 -2.3193 -1.0460  1.5481
 5687TIP3    H241257   5.591   6.200   3.427  0.0543 -0.5297 -0.8827
 5688TIP3   OH241258   6.256   5.383   3.235 -0.1438 -0.4304  0.2405
 5688TIP3    H141259   6.221   5.402   3.322  0.6425 -2.9120  1.1849
 5688TIP3    H241260   6.351   5.381   3.248 -0.0082 -0.6432 -0.7256
 5689TIP3   OH241261   0.893   1.083   1.619 -0.0903 -0.3450  0.2810
 5689TIP3    H141262   0.827   1.020   1.591  0.1010 -0.6772  0.5729
 5689TIP3    H241263   0.929   1.045   1.699  0.9272 -0.4932 -0.2400
 5690TIP3   OH241264   4.343   1.889   1.886  0.0326  0.2701  0.0225
 5690TIP3    H141265   4.279   1.912   1.818 -0.5646 -2.1689 -0.3387
 5690TIP3    H241266   4.299   1.910   1.968 -0.8112 -0.3520 -0.2551
 5691TIP3   OH241267   5.766   4.154   1.621 -0.0402  0.6139  0.3055
 5691TIP3    H141268   5.787   4.179   1.531 -3.2684 -0.5865 -0.9317
 5691TIP3    H241269   5.724   4.231   1.659 -0.2265  0.5760  0.1794
 5692TIP3   OH241270   1.977   3.444   3.037  0.3634 -0.2459  0.3595
 5692TIP3    H141271   2.069   3.468   3.040  0.6097 -1.1030 -0.0797
 5692TIP3    H241272   1.936   3.495   3.108  0.8209  1.5581 -0.6166
 5693TIP3   OH241273   4.755   1.718   1.283  0.0498 -0.2606  0.0007
 5693TIP3    H141274   4.722   1.798   1.323  1.5963  0.2158  0.3679
 5693TIP3    H241275   4.844   1.709   1.316  0.7800 -0.7895 -1.9715
 5694TIP3   OH241276   6.765   5.409   2.806  0.2338  0.0024  0.4423
 5694TIP3    H141277   6.740   5.358   2.729  2.2976 -0.4216 -0.0168
 5694TIP3    H241278   6.766   5.499   2.776  0.8340 -0.1441 -0.0047
 5695TIP3   OH241279   1.041   4.027   2.223 -0.1580 -0.3501  0.2579
 5695TIP3    H141280   0.985   4.104   2.231  0.7460  0.5826 -1.8065
 5695TIP3    H241281   1.108   4.038   2.291  0.8155  1.4789 -0.9292
 5696TIP3   OH241282   0.555   7.599   0.756  0.3117  0.2209  0.5405
 5696TIP3    H141283   0.555   7.609   0.661 -1.7703  0.9391  0.5864
 5696TIP3    H241284   0.648   7.588   0.778  0.8983  0.6718 -1.4903
 5697TIP3   OH241285   0.760   5.729   2.721 -0.1664 -0.1765  0.1819
 5697TIP3    H141286   0.795   5.642   2.703  0.7546  0.2148 -0.0081
 5697TIP3    H241287   0.672   5.728   2.683  1.0336  0.0382 -2.9668
 5698TIP3   OH241288   4.474   3.499   1.588 -0.5212  0.0682 -0.0267
 5698TIP3    H141289   4.527   3.579   1.599 -2.6202  1.5903 -0.3301
 5698TIP3    H241290   4.423   3.494   1.669  0.2237 -1.5487  0.3885
 5699TIP3   OH241291   6.096   0.880   2.186 -0.5819  0.1454 -0.2211
 5699TIP3    H141292   6.080   0.892   2.092 -1.0702 -1.2422 -0.3452
 5699TIP3    H241293   6.037   0.942   2.229 -1.0585  0.1160 -0.8232
 5700TIP3   OH241294   3.230   2.596   3.449  0.0552 -0.1567  0.9407
 5700TIP3    H141295   3.151   2.610   3.502 -1.5464 -2.4474 -0.6660
 5700TIP3    H241296   3.210   2.637   3.365  1.6618  1.4094  1.2475
 5701TIP3   OH241297   4.466   6.619   1.632 -0.0821 -0.3359 -0.3892
 5701TIP3    H141298   4.402   6.644   1.698 -0.1042  0.7209 -0.7966
 5701TIP3    H241299   4.474   6.695   1.575 -0.2605 -1.3100 -1.7806
 5702TIP3   OH241300   1.703   2.530   1.323  0.3753  0.4846  0.6455
 5702TIP3    H141301   1.621   2.488   1.350  1.0812 -1.3847  0.0360
 5702TIP3    H241302   1.680   2.576   1.242  0.4836 -2.6811 -1.3987
 5703TIP3   OH241303   5.668   2.924   2.043 -0.0380  0.0295  0.1559
 5703TIP3    H141304   5.582   2.883   2.046 -0.7477  1.4483  0.4066
 5703TIP3    H241305   5.730   2.851   2.043 -1.2446 -1.0577 -1.1294
 5704TIP3   OH241306   6.346   2.353   0.691 -0.4255  0.3540  0.6864
 5704TIP3    H141307   6.383   2.355   0.779  0.3376  0.5977  0.3768
 5704TIP3    H241308   6.387   2.429   0.648  0.6702 -0.8292 -0.4374
 5705TIP3   OH241309   3.203   2.679   2.033 -0.5279 -0.3717  0.4388
 5705TIP3    H141310   3.270   2.744   2.012 -0.4128 -0.6555 -0.0962
 5705TIP3    H241311   3.248   2.616   2.090 -0.4511 -0.3415  0.4119
 5706TIP3   OH241312   6.398   4.612   2.242 -0.1585  0.3717  0.1192
 5706TIP3    H141313   6.358   4.527   2.225 -1.2477  0.8939  0.0169
 5706TIP3    H241314   6.385   4.661   2.161 -1.9229  1.5361  1.0390
 5707TIP3   OH241315   1.970   3.408   1.593 -0.1075  0.3641  0.3259
 5707TIP3    H141316   1.981   3.409   1.498 -0.0082  0.4471  0.3379
 5707TIP3    H241317   1.952   3.316   1.614  2.2281 -0.1238  0.4883
 5708TIP3   OH241318   2.071   3.501   0.739  0.0164  0.3168 -0.0397
 5708TIP3    H141319   2.155   3.456   0.727 -0.5024 -0.1240 -2.6980
 5708TIP3    H241320   2.006   3.441   0.702 -1.2342  1.4664  0.1984
 5709TIP3   OH241321   0.438   2.596   2.128 -0.4210  0.1387  0.1961
 5709TIP3    H141322   0.455   2.512   2.170  0.3481  0.3820  0.3800
 5709TIP3    H241323   0.461   2.661   2.193 -0.7763  0.5032 -0.0360
 5710TIP3   OH241324   7.555   5.236   2.796  0.0784 -0.3008 -0.5844
 5710TIP3    H141325   7.499   5.171   2.838  0.0422  0.0734 -0.0421
 5710TIP3    H241326   7.644   5.209   2.818  0.0530  0.0084 -0.0873
 5711TIP3   OH241327   2.821   3.271   0.620 -0.0380  0.1140  0.2064
 5711TIP3    H141328   2.782   3.193   0.581 -0.8924  0.3641  0.5433
 5711TIP3    H241329   2.898   3.239   0.666 -0.9532 -0.6929  1.2199
 5712TIP3   OH241330   6.001   3.003   0.632 -0.5272 -0.3719 -0.0352
 5712TIP3    H141331   6.021   3.089   0.595  0.9131 -0.8556 -0.4384
 5712TIP3    H241332   6.087   2.967   0.656 -1.1080 -1.7250  0.0677
 5713TIP3   OH241333   0.248   7.090   1.491  0.0777  0.0294  0.0136
 5713TIP3    H141334   0.156   7.062   1.496  0.1407 -0.5189 -1.5156
 5713TIP3    H241335   0.254   7.142   1.412  1.0394  0.3145  0.2579
 5714TIP3   OH241336   0.928   2.261   2.330 -0.3544  0.3173  0.3654
 5714TIP3    H141337   0.936   2.356   2.324 -0.0281  0.2987  0.4773
 5714TIP3    H241338   0.921   2.243   2.424 -1.5272  0.3125  0.2883
 5715TIP3   OH241339   6.909   2.155   0.951  0.3724 -0.0208  0.6630
 5715TIP3    H141340   6.954   2.187   1.029 -1.6815  2.1522  1.0701
 5715TIP3    H241341   6.910   2.229   0.890  0.7830 -1.2439 -0.8971
 5716TIP3   OH241342   1.759   5.512   1.109  0.6138 -0.0152 -0.1435
 5716TIP3    H141343   1.837   5.472   1.148  1.3034  0.0507 -1.4068
 5716TIP3    H241344   1.722   5.442   1.056  1.3206  0.7186 -1.6494
 5717TIP3   OH241345   1.565   1.950   2.081  0.0995  0.6163 -0.1451
 5717TIP3    H141346   1.636   1.979   2.139  1.1580  0.3081 -1.2460
 5717TIP3    H241347   1.573   1.855   2.079 -1.4240  0.4383  1.0351
 5718TIP3   OH241348   2.562   2.834   2.142  0.1152 -0.5832  0.2894
 5718TIP3    H141349   2.486   2.828   2.200  0.0697 -0.8544  0.2003
 5718TIP3    H241350   2.550   2.764   2.079 -0.4854  0.4741 -0.8230
 5719TIP3   OH241351   7.001   1.295   1.684 -0.8854  0.3459  0.0239
 5719TIP3    H141352   6.948   1.307   1.606 -0.7835  0.1529 -0.0744
 5719TIP3    H241353   7.067   1.230   1.659 -1.3470 -0.3221  0.5194
 5720TIP3   OH241354   1.264   3.030   1.497 -0.4100  0.5267  0.2147
 5720TIP3    H141355   1.297   3.074   1.418 -0.1066 -0.4956 -0.2370
 5720TIP3    H241356   1.174   3.059   1.505 -0.7226 -0.0626 -1.0318
 5721TIP3   OH241357   4.269   5.977   2.756  0.4917  0.5898 -0.3640
 5721TIP3    H141358   4.337   6.043   2.749 -0.0957  1.0718 -1.9319
 5721TIP3    H241359   4.310   5.896   2.724  0.3600  0.8664 -1.2528
 5722TIP3   OH241360   6.786   2.053   3.280  0.1498 -0.0765 -0.2227
 5722TIP3    H141361   6.805   2.140   3.314  0.4998 -1.2223  2.8705
 5722TIP3    H241362   6.696   2.057   3.250 -0.2670  1.0422  1.1001
 5723TIP3   OH241363   3.767   1.975   2.673  0.4420  0.0898  0.5741
 5723TIP3    H141364   3.784   2.025   2.753 -0.0940  0.9465  0.1734
 5723TIP3    H241365   3.814   1.892   2.685 -0.3488 -0.1627  2.1561
 5724TIP3   OH241366   7.550   6.250   1.782 -0.7683 -0.2613 -0.6009
 5724TIP3    H141367   7.559   6.330   1.731 -0.4389 -1.2042 -2.0710
 5724TIP3    H241368   7.466   6.213   1.754 -0.9653 -0.3969  0.1412
 5725TIP3   OH241369   6.599   7.459   2.095  0.1327 -0.0602 -0.0076
 5725TIP3    H141370   6.565   7.525   2.155 -0.0600 -1.3687  1.3834
 5725TIP3    H241371   6.554   7.476   2.012 -0.8423  0.7767  0.6780
 5726TIP3   OH241372   5.490   3.367   1.912 -0.3111  0.1562 -0.1587
 5726TIP3    H141373   5.424   3.397   1.974  0.2936 -0.8328  1.0199
 5726TIP3    H241374   5.559   3.329   1.967  0.0132 -1.2298 -1.4444
 5727TIP3   OH241375   7.593   2.203   0.499 -0.0395  0.6628  0.1427
 5727TIP3    H141376   7.525   2.204   0.431 -1.6317 -0.1982  1.6316
 5727TIP3    H241377   7.597   2.294   0.528 -2.0332  0.4300  1.3541
 5728TIP3   OH241378   6.947   4.245   1.612  0.2598  0.1224  0.3205
 5728TIP3    H141379   6.863   4.200   1.606  0.0911  0.3555  0.8150
 5728TIP3    H241380   7.012   4.176   1.603  0.0061 -0.1657  0.6446
 5729TIP3   OH241381   1.863   1.269   1.222 -0.1352  0.7580  0.0766
 5729TIP3    H141382   1.853   1.364   1.211 -1.4633  0.7267  0.7275
 5729TIP3    H241383   1.865   1.235   1.133  1.9142  1.5069 -0.2037
 5730TIP3   OH241384   3.463   1.596   0.958 -0.3156  0.8911 -0.2244
 5730TIP3    H141385   3.555   1.587   0.931 -0.1859  3.0153 -0.5997
 5730TIP3    H241386   3.415   1.609   0.876 -0.9266  0.1857  0.0070
 5731TIP3   OH241387   3.317   7.306   2.033 -0.1684  0.1621  0.3167
 5731TIP3    H141388   3.256   7.284   2.104  0.1818 -0.6653  0.3751
 5731TIP3    H241389   3.393   7.249   2.049 -0.1213 -0.0940 -0.7760
 5732TIP3   OH241390   7.459   5.289   0.853 -0.2082 -0.4335  0.2492
 5732TIP3    H141391   7.412   5.310   0.773  1.6237 -0.2165 -0.8147
 5732TIP3    H241392   7.509   5.368   0.874 -0.0169 -0.7750  1.1249
 5733TIP3   OH241393   7.381   4.786   2.033  0.1582  0.0689 -0.2579
 5733TIP3    H141394   7.412   4.843   1.963 -0.4789  0.4735 -0.2139
 5733TIP3    H241395   7.461   4.758   2.078  0.5908 -0.3197 -1.2275
 5734TIP3   OH241396   6.201   0.070   2.481 -0.7533  0.3346 -0.2031
 5734TIP3    H141397   6.238  -0.004   2.432 -0.9206 -0.2940  0.5975
 5734TIP3    H241398   6.182   0.136   2.414  0.0944 -0.0513 -0.8429
 5735TIP3   OH241399   5.471   5.412   0.626  0.9239  0.5992  0.1452
 5735TIP3    H141400   5.468   5.402   0.721  0.0750 -0.6251  0.0118
 5735TIP3    H241401   5.380   5.418   0.599  0.7224 -3.6967 -0.9494
 5736TIP3   OH241402   7.480   5.123   2.167 -0.1715  0.6787 -0.3155
 5736TIP3    H141403   7.551   5.182   2.141  0.5370 -0.5571 -1.3311
 5736TIP3    H241404   7.402   5.162   2.129  0.0995  1.5881  0.0465
 5737TIP3   OH241405   2.951   4.269   0.946  0.1670 -0.7013  0.5386
 5737TIP3    H141406   2.877   4.312   0.990 -0.3010  0.3004 -1.1211
 5737TIP3    H241407   2.926   4.269   0.854  1.8062 -1.2898  0.0706
 5738TIP3   OH241408   6.394   5.636   0.417 -0.7998 -0.0510 -0.1155
 5738TIP3    H141409   6.399   5.713   0.474  1.5610 -2.2016  2.9005
 5738TIP3    H241410   6.475   5.639   0.366 -0.2761 -0.9031  0.6344
 5739TIP3   OH241411   6.651   4.054   2.101 -0.6209  0.9322 -0.4991
 5739TIP3    H141412   6.705   3.978   2.124 -0.2049  1.4801  0.3916
 5739TIP3    H241413   6.666   4.067   2.008  0.2206  0.6336 -0.4139
 5740TIP3   OH241414   1.399   2.818   1.595  0.0294  0.2976 -0.1683
 5740TIP3    H141415   1.365   2.743   1.546 -2.7920  0.7342  0.8871
 5740TIP3    H241416   1.350   2.893   1.561 -1.3555  0.7471  2.5117
 5741TIP3   OH241417   1.388   0.195   0.810 -0.0759  0.0448 -0.1941
 5741TIP3    H141418   1.377   0.189   0.715  1.4616 -1.6451 -0.3334
 5741TIP3    H241419   1.378   0.105   0.841 -2.0423  0.7731  1.4767
 5742TIP3   OH241420   4.477   4.705   1.001  0.1080 -0.0616 -0.2545
 5742TIP3    H141421   4.433   4.693   1.085  2.6447 -0.1959  1.1434
 5742TIP3    H241422   4.502   4.617   0.975 -0.4334  0.0112 -1.0526
 5743TIP3   OH241423   6.692   5.313   8.029  0.3771 -0.6890 -0.2840
 5743TIP3    H141424   6.761   5.359   8.077  1.3270 -1.9882 -0.3571
 5743TIP3    H241425   6.734   5.234   7.997 -0.6663 -0.6140 -1.9391
 5744TIP3   OH241426   7.162   6.137   2.939  0.2524  0.1577  0.3214
 5744TIP3    H141427   7.132   6.210   2.994  0.5928  0.8898 -0.4487
 5744TIP3    H241428   7.143   6.059   2.992 -0.8515  0.7360  0.8309
 5745TIP3   OH241429   0.794   0.786   1.095  0.4986  0.1038  0.3405
 5745TIP3    H141430   0.869   0.798   1.037  0.0042 -0.4745 -0.4292
 5745TIP3    H241431   0.725   0.840   1.057  0.3090  0.0841  0.6523
 5746TIP3   OH241432   2.356   6.412   1.782  1.1069 -0.0356  0.0472
 5746TIP3    H141433   2.364   6.425   1.687 -0.6896  0.0390 -0.1192
 5746TIP3    H241434   2.342   6.318   1.792 -0.9762  0.2383  0.0259
 5747TIP3   OH241435   2.832   5.854   0.754  0.1772 -0.3135  0.1645
 5747TIP3    H141436   2.844   5.919   0.823  3.2551 -0.8900  0.3318
 5747TIP3    H241437   2.873   5.894   0.677  1.1909 -1.5753  0.0131
 5748TIP3   OH241438   2.561   5.950   1.687  0.3531 -0.1588  0.4915
 5748TIP3    H141439   2.650   5.985   1.691  0.4070 -0.0811 -0.9435
 5748TIP3    H241440   2.536   5.958   1.595 -1.3236  0.2829  0.9479
 5749TIP3   OH241441   3.687   3.519   2.077 -0.0213  0.1072  0.3167
 5749TIP3    H141442   3.725   3.570   2.005 -1.0468  0.8603  0.2903
 5749TIP3    H241443   3.611   3.570   2.105 -0.7371 -1.1253  0.6845
 5750TIP3   OH241444   1.002   0.841   2.335 -0.1125 -0.3714 -0.7375
 5750TIP3    H141445   1.091   0.807   2.344 -0.4408 -1.9765 -2.7280
 5750TIP3    H241446   1.011   0.919   2.281  0.1751 -0.0307 -0.1955
 5751TIP3   OH241447   1.133   5.661   1.118  0.1195 -0.4698 -0.5042
 5751TIP3    H141448   1.113   5.740   1.168  0.1358  0.3707 -1.8029
 5751TIP3    H241449   1.124   5.590   1.182 -0.7998  0.4790  0.4667
 5752TIP3   OH241450   5.272   6.387   1.081  0.0902 -0.0104 -0.2824
 5752TIP3    H141451   5.216   6.334   1.024 -0.8344  1.9050 -1.2361
 5752TIP3    H241452   5.211   6.428   1.142  0.4899  1.5816 -0.9072
 5753TIP3   OH241453   2.708   4.450   2.006  0.0888  0.1260 -0.0746
 5753TIP3    H141454   2.636   4.507   2.034 -1.7480 -2.1345  0.0822
 5753TIP3    H241455   2.765   4.444   2.082 -2.4036 -2.1994  1.8138
 5754TIP3   OH241456   5.476   0.077   2.196  0.5617 -0.4219 -0.8516
 5754TIP3    H141457   5.444   0.135   2.264 -0.6511 -0.6944 -1.1652
 5754TIP3    H241458   5.533   0.132   2.141 -0.1940  0.3411 -0.8739
 5755TIP3   OH241459   2.151   6.802   2.559 -0.0352 -0.0804  0.0842
 5755TIP3    H141460   2.212   6.876   2.560 -0.8944  0.6463  0.0249
 5755TIP3    H241461   2.069   6.838   2.592  0.1591 -1.6074  2.4223
 5756TIP3   OH241462   5.681   0.153   1.413  0.5901 -0.1101  0.0208
 5756TIP3    H141463   5.607   0.142   1.354  0.6210  0.5727 -0.1505
 5756TIP3    H241464   5.758   0.146   1.357  0.6151  3.6334 -0.6598
 5757TIP3   OH241465   4.973   2.658   2.191 -0.4168  0.1591  0.7025
 5757TIP3    H141466   4.929   2.672   2.107 -0.9400 -0.1436  0.9221
 5757TIP3    H241467   5.047   2.602   2.170 -1.3191 -1.0636  0.6389
 5758TIP3   OH241468   3.856   3.732   1.076  0.4592  0.3577 -0.3255
 5758TIP3    H141469   3.938   3.694   1.045 -0.5307 -0.8085 -1.6552
 5758TIP3    H241470   3.811   3.659   1.121 -1.0748  0.1058 -2.1313
 5759TIP3   OH241471   0.778   4.303   2.730  0.2885 -0.5171  0.0649
 5759TIP3    H141472   0.820   4.284   2.814 -0.1263 -1.0587  0.1545
 5759TIP3    H241473   0.699   4.249   2.730  0.0171 -0.1206 -0.4521
 5760TIP3   OH241474   3.711   2.867   1.294 -0.5229  0.0234  0.0627
 5760TIP3    H141475   3.620   2.844   1.275 -0.5552  0.2420 -0.0516
 5760TIP3    H241476   3.748   2.893   1.210 -0.8457  1.6019  0.3793
 5761TIP3   OH241477   5.077   3.413   1.676  0.0569  0.2101 -0.0914
 5761TIP3    H141478   5.084   3.493   1.728  1.1727  0.4686 -0.6095
 5761TIP3    H241479   5.155   3.362   1.698 -0.8377 -0.9339  0.5261
 5762TIP3   OH241480   5.899   5.273   3.383 -0.8909 -0.0547 -0.7687
 5762TIP3    H141481   5.811   5.236   3.374 -1.6773  1.3506  0.5888
 5762TIP3    H241482   5.939   5.221   3.453 -1.5488  0.7992  0.2821
 5763TIP3   OH241483   2.147   2.621   0.830 -0.4805 -0.3177  0.3699
 5763TIP3    H141484   2.150   2.526   0.839  0.1894 -0.1446  2.6258
 5763TIP3    H241485   2.062   2.646   0.865 -0.4082 -0.0474  0.3544
 5764TIP3   OH241486   1.971   6.146   2.360 -0.0030  0.3857 -0.7426
 5764TIP3    H141487   2.005   6.117   2.444 -1.5268  0.6000 -0.0095
 5764TIP3    H241488   2.039   6.203   2.324  0.4116  0.7846  0.6370
 5765TIP3   OH241489   1.736   4.941   2.300  0.0052 -0.4018  0.6010
 5765TIP3    H141490   1.785   4.969   2.223  0.2487  1.5950  1.4264
 5765TIP3    H241491   1.765   4.851   2.315  0.6136 -0.5244 -1.0938
 5766TIP3   OH241492   2.417   2.461   2.397 -0.1430  0.3265 -0.0754
 5766TIP3    H141493   2.452   2.428   2.479  2.2636  0.9128 -0.7741
 5766TIP3    H241494   2.339   2.408   2.381 -0.0774 -0.5067  2.0320
 5767TIP3   OH241495   2.080   4.344   2.620  0.2297 -0.0088 -0.5910
 5767TIP3    H141496   2.132   4.366   2.543 -0.3147  1.5172 -0.5714
 5767TIP3    H241497   2.107   4.408   2.686  0.7911 -1.3826  0.5571
 5768TIP3   OH241498   4.994   6.139   3.161 -0.1724 -0.1790  0.0040
 5768TIP3    H141499   5.010   6.071   3.227  1.0000  0.6925  0.6686
 5768TIP3    H241500   4.958   6.213   3.211 -1.2424 -0.2226 -0.6747
 5769TIP3   OH241501   7.380   2.255   1.294 -0.5099 -0.1534 -0.4805
 5769TIP3    H141502   7.319   2.216   1.356  1.9515 -1.6753  1.1678
 5769TIP3    H241503   7.390   2.189   1.226 -0.2906 -0.1483 -0.4537
 5770TIP3   OH241504   1.359   0.231   1.111  0.1749  0.4799  0.4698
 5770TIP3    H141505   1.346   0.326   1.106  0.0768  0.4521  0.1730
 5770TIP3    H241506   1.348   0.201   1.021 -0.6514  0.0772  0.7006
 5771TIP3   OH241507   1.039   1.218   0.980 -0.2374  0.4411  0.2587
 5771TIP3    H141508   0.984   1.294   0.963 -1.4575 -0.4565  0.0587
 5771TIP3    H241509   0.989   1.144   0.945 -0.6754 -0.8926  3.3842
 5772TIP3   OH241510   5.599   4.689   3.371 -0.2117  0.5473  0.1864
 5772TIP3    H141511   5.579   4.635   3.448 -1.6360  2.3748  1.1812
 5772TIP3    H241512   5.687   4.722   3.387  0.0407 -0.1682  0.3351
 5773TIP3   OH241513   1.061   3.625   1.430 -0.7488 -0.1255 -0.3781
 5773TIP3    H141514   1.108   3.694   1.477 -1.4529  0.0289  0.1150
 5773TIP3    H241515   1.108   3.545   1.453 -0.6182  0.0492 -0.0296
 5774TIP3   OH241516   7.594   5.938   2.297 -0.1543  0.1033  0.0623
 5774TIP3    H141517   7.646   5.961   2.221 -0.4378  0.7329  0.0536
 5774TIP3    H241518   7.617   6.003   2.363  0.8961 -1.0569  0.9007
 5775TIP3   OH241519   5.872   5.299   2.162 -0.3723  0.1168  0.2058
 5775TIP3    H141520   5.955   5.289   2.208 -0.7276  0.1573  0.8622
 5775TIP3    H241521   5.888   5.369   2.098  0.2708 -0.2947 -0.0905
 5776TIP3   OH241522   6.669   7.023   1.075 -0.2409  0.1194 -0.7747
 5776TIP3    H141523   6.590   7.032   1.128 -1.6060 -0.9984 -2.4988
 5776TIP3    H241524   6.679   6.929   1.063  2.1641  0.1388  0.4780
 5777TIP3   OH241525   2.648   0.709   2.829  0.1190  0.0211 -0.1781
 5777TIP3    H141526   2.603   0.650   2.889 -1.5087  1.5042  0.1474
 5777TIP3    H241527   2.679   0.780   2.886 -0.9648  1.1670 -0.9623
 5778TIP3   OH241528   0.977   1.991   2.279  0.5179 -0.1222  0.1440
 5778TIP3    H141529   1.063   1.967   2.313  1.0474  0.5396 -0.6863
 5778TIP3    H241530   0.970   2.085   2.294 -0.6241 -0.3886  1.3926
 5779TIP3   OH241531   5.184   0.179   2.929 -0.5455 -0.4189 -0.1385
 5779TIP3    H141532   5.255   0.235   2.960 -0.2977 -1.6453  1.6305
 5779TIP3    H241533   5.140   0.231   2.861  0.8819  1.0951  0.0487
 5780TIP3   OH241534   2.122   1.839   1.057  0.2794 -0.4797 -0.3339
 5780TIP3    H141535   2.058   1.817   1.125  1.6186  0.0525  1.1598
 5780TIP3    H241536   2.207   1.816   1.094  1.4611  3.3666 -0.1427
 5781TIP3   OH241537   7.313   0.358   1.262 -0.4367 -0.2839  0.1303
 5781TIP3    H141538   7.299   0.271   1.298  0.6691 -1.0746 -1.2755
 5781TIP3    H241539   7.373   0.401   1.323  1.3959 -1.5971 -0.6714
 5782TIP3   OH241540   1.236   0.516   2.918  0.1244 -0.1023 -0.3289
 5782TIP3    H141541   1.318   0.560   2.941 -0.9869  2.9421 -1.5944
 5782TIP3    H241542   1.257   0.467   2.839  0.7996  0.5222 -0.5512
 5783TIP3   OH241543   2.846   4.861   2.609 -0.2215  0.1207  0.1381
 5783TIP3    H141544   2.874   4.819   2.690 -0.7038  1.5809  1.1127
 5783TIP3    H241545   2.764   4.817   2.586 -0.9093  0.7243  1.3347
 5784TIP3   OH241546   7.399   3.152   2.095  0.4213  0.1200  0.5227
 5784TIP3    H141547   7.316   3.198   2.103  0.4530  0.5131 -1.1939
 5784TIP3    H241548   7.464   3.216   2.126  0.1352 -0.1186  1.6728
 5785TIP3   OH241549   6.834   4.693   2.854 -0.2058  0.0647 -0.2806
 5785TIP3    H141550   6.864   4.678   2.765  0.6413 -0.8668  0.1419
 5785TIP3    H241551   6.913   4.720   2.902 -0.6508  0.5691  0.1955
 5786TIP3   OH241552   1.062   0.841   1.005 -0.3737 -0.1679  0.2259
 5786TIP3    H141553   1.156   0.835   1.022 -0.6577 -0.6861  1.7492
 5786TIP3    H241554   1.051   0.805   0.917  1.1254  2.2027 -1.0294
 5787TIP3   OH241555   1.004   3.266   2.419  0.1322  0.3379 -0.0743
 5787TIP3    H141556   0.936   3.327   2.444  1.0153  1.6024 -0.6330
 5787TIP3    H241557   0.986   3.246   2.327 -0.2770 -0.4234  0.1654
 5788TIP3   OH241558   6.975   0.551   0.724  0.5714 -0.8696 -0.0119
 5788TIP3    H141559   6.899   0.499   0.751 -1.0106  1.5558  0.5406
 5788TIP3    H241560   7.001   0.598   0.803  1.1345  0.1028 -0.7589
 5789TIP3   OH241561   6.323   6.040   0.338 -0.2187  0.2380 -0.2401
 5789TIP3    H141562   6.337   6.090   0.257 -1.6245  0.2780 -0.4879
 5789TIP3    H241563   6.384   5.967   0.332 -0.8914 -0.2462 -1.7795
 5790TIP3   OH241564   2.275   6.167   1.587 -0.6157 -0.3878 -0.4763
 5790TIP3    H141565   2.223   6.102   1.635 -1.1486  0.7449  0.5442
 5790TIP3    H241566   2.216   6.199   1.519 -1.0046  0.3463  0.1966
 5791TIP3   OH241567   0.045   3.099   2.775 -0.0018  0.6468  0.5746
 5791TIP3    H141568   0.000   3.034   2.722  1.3579  0.6886 -0.6818
 5791TIP3    H241569   0.114   3.050   2.820 -0.3843  0.8308  1.3718
 5792TIP3   OH241570   1.236   5.455   0.773  0.4153  0.7807  0.0786
 5792TIP3    H141571   1.268   5.545   0.772  0.6897  0.6873 -1.1346
 5792TIP3    H241572   1.311   5.402   0.799  0.0149  0.9603  1.7101
 5793TIP3   OH241573   6.663   0.513   1.967 -0.4544  0.2090 -0.0342
 5793TIP3    H141574   6.746   0.503   2.014  0.0428  0.7624 -0.7619
 5793TIP3    H241575   6.684   0.485   1.878 -1.1733 -0.0753 -0.1130
 5794TIP3   OH241576   3.162   6.323   1.509  0.2843 -0.6328  0.5328
 5794TIP3    H141577   3.179   6.360   1.596 -2.4208  0.5662  0.6379
 5794TIP3    H241578   3.159   6.228   1.525  0.2409 -0.4613  1.6692
 5795TIP3   OH241579   6.297   6.948   2.497  0.0499  0.4204  0.1748
 5795TIP3    H141580   6.256   6.884   2.439 -1.5732  0.7244  0.9565
 5795TIP3    H241581   6.356   6.997   2.440 -1.8444  1.0174 -1.3361
 5796TIP3   OH241582   2.711   2.678   1.750  0.0197  0.5903  0.8083
 5796TIP3    H141583   2.729   2.768   1.722 -0.1874  0.3751 -0.0523
 5796TIP3    H241584   2.621   2.662   1.721  0.8432 -0.6852 -1.2342
 5797TIP3   OH241585   6.430   3.974   1.575 -0.1310 -0.0695  0.3615
 5797TIP3    H141586   6.451   3.880   1.573  0.1493 -0.0004 -0.0161
 5797TIP3    H241587   6.344   3.978   1.616 -0.4614 -0.5576 -0.2610
 5798TIP3   OH241588   0.409   0.956   0.958 -0.2090 -0.7607  0.3080
 5798TIP3    H141589   0.360   0.973   1.038 -0.7218 -0.4636 -0.0639
 5798TIP3    H241590   0.422   0.861   0.958 -0.1323 -0.7515  0.7856
 5799TIP3   OH241591   1.980   5.796   1.225  0.0706  0.3113 -0.0682
 5799TIP3    H141592   2.042   5.866   1.206 -0.0452  0.5222  0.3169
 5799TIP3    H241593   2.035   5.719   1.241  0.2903  0.7066  1.1701
 5800TIP3   OH241594   4.425   3.941   0.424  0.3997  0.0314 -0.4195
 5800TIP3    H141595   4.442   3.861   0.473 -1.7162 -1.8320 -2.4685
 5800TIP3    H241596   4.349   3.981   0.466  1.8657  1.4439  1.0256
 5801TIP3   OH241597   3.611   1.211   0.687  0.3732  0.1717  0.2127
 5801TIP3    H141598   3.638   1.175   0.772  2.7069 -2.3929 -1.4278
 5801TIP3    H241599   3.594   1.133   0.634  0.1645  1.6801 -2.0359
 5802TIP3   OH241600   5.693   6.449   2.211 -0.5040 -0.5408  0.2321
 5802TIP3    H141601   5.608   6.442   2.255  0.5004 -0.9063  2.2497
 5802TIP3    H241602   5.738   6.368   2.233  1.5126  0.9089  1.9173
 5803TIP3   OH241603   2.235   2.949   1.677  0.3713 -0.2561 -0.1201
 5803TIP3    H141604   2.217   3.010   1.748  1.3159  1.5701 -1.3850
 5803TIP3    H241605   2.158   2.892   1.674 -1.7245  2.3646 -0.3820
 5804TIP3   OH241606   4.412   3.824   2.639 -0.0710 -0.1440 -0.6904
 5804TIP3    H141607   4.449   3.749   2.685  0.3434  0.1310 -0.5694
 5804TIP3    H241608   4.447   3.900   2.685 -0.3334  0.1272 -0.9323
 5805TIP3   OH241609   2.889   6.383   1.364 -0.3382 -0.5990 -0.2390
 5805TIP3    H141610   2.882   6.339   1.280  1.7831 -0.4397 -0.5468
 5805TIP3    H241611   2.966   6.343   1.406  0.2957  1.2194  0.4220
 5806TIP3   OH241612   0.606   2.680   2.406 -0.0271  0.4672 -0.0499
 5806TIP3    H141613   0.552   2.690   2.485  2.5796 -0.1752  1.9373
 5806TIP3    H241614   0.683   2.733   2.423  2.6277 -3.0139 -0.1826
 5807TIP3   OH241615   6.044   2.885   2.828 -0.4153 -0.1124 -0.1682
 5807TIP3    H141616   6.009   2.945   2.894  0.9561  0.4790  0.0707
 5807TIP3    H241617   5.973   2.824   2.810 -1.2127  0.4438  0.9854
 5808TIP3   OH241618   1.450   0.531   1.178  0.2715  0.6855  0.1445
 5808TIP3    H141619   1.512   0.525   1.105  0.5473  4.1773 -0.0372
 5808TIP3    H241620   1.504   0.552   1.254 -0.4787  2.3616  0.2569
 5809TIP3   OH241621   4.543   6.585   0.599 -0.8904  0.1780 -0.7349
 5809TIP3    H141622   4.556   6.531   0.677 -1.8898 -0.5959 -1.0776
 5809TIP3    H241623   4.564   6.674   0.627 -0.6599 -0.1756  0.2488
 5810TIP3   OH241624   4.168   1.959   1.660 -0.1885 -0.2837 -0.4494
 5810TIP3    H141625   4.157   1.963   1.565 -1.4357  0.1229 -0.3165
 5810TIP3    H241626   4.079   1.972   1.694  0.3938  0.6137  0.7902
 5811TIP3   OH241627   2.517   2.420   2.640  0.5359  0.2248  0.0283
 5811TIP3    H141628   2.475   2.412   2.726 -1.8919  1.4798 -0.9342
 5811TIP3    H241629   2.572   2.497   2.648  1.5576 -0.5648  0.8844
 5812TIP3   OH241630   6.851   2.913   0.926 -0.3451 -0.2163  0.4602
 5812TIP3    H141631   6.890   2.836   0.885 -0.8159 -0.7904  1.0784
 5812TIP3    H241632   6.831   2.971   0.853  0.5950 -0.4025  0.0380
 5813TIP3   OH241633   2.173   4.199   0.447 -0.0101 -0.3361 -0.0845
 5813TIP3    H141634   2.142   4.113   0.419 -1.5919 -0.4346  1.7654
 5813TIP3    H241635   2.223   4.182   0.527 -0.7867  0.4819  0.6007
 5814TIP3   OH241636   2.003   6.437   1.001 -0.6215  0.1669  0.0634
 5814TIP3    H141637   1.929   6.418   0.943  0.6019 -3.3088 -0.6330
 5814TIP3    H241638   1.970   6.416   1.089 -0.4229 -1.9613 -0.3043
 5815TIP3   OH241639   3.600   7.671   0.758 -0.1046 -0.4108  0.1805
 5815TIP3    H141640   3.524   7.652   0.814 -1.3607  0.4525 -1.1792
 5815TIP3    H241641   3.628   7.758   0.784 -1.7422  0.7157 -1.5897
 5816TIP3   OH241642   5.908   1.868   1.794 -0.0641  0.0714 -0.3721
 5816TIP3    H141643   5.965   1.792   1.784 -0.8594 -0.3766 -1.8457
 5816TIP3    H241644   5.955   1.926   1.854  1.4821 -0.6957 -0.7917
 5817TIP3   OH241645   0.858   3.146   1.830  0.4082 -0.4040 -0.1196
 5817TIP3    H141646   0.873   3.054   1.852 -0.9421 -0.1749  2.0303
 5817TIP3    H241647   0.792   3.144   1.761 -0.2246 -1.0574  0.4896
 5818TIP3   OH241648   7.505   0.594   2.076  0.8505 -0.7627 -0.1331
 5818TIP3    H141649   7.503   0.644   2.158 -0.6854 -0.2641 -0.4391
 5818TIP3    H241650   7.416   0.558   2.068  1.0917 -1.1228 -1.3861
 5819TIP3   OH241651   3.070   3.320   2.085  0.5839  0.1408 -0.1582
 5819TIP3    H141652   3.002   3.315   2.018  1.1501 -0.3710 -0.7128
 5819TIP3    H241653   3.098   3.411   2.085 -1.3627  0.8116  1.3880
 5820TIP3   OH241654   3.097   1.451   0.788 -0.1322 -0.2285  0.4044
 5820TIP3    H141655   3.148   1.529   0.808  2.4269 -1.8041  0.4851
 5820TIP3    H241656   3.124   1.427   0.699 -2.1114 -0.1659 -0.2640
 5821TIP3   OH241657   7.022   5.870   3.647  0.0714  0.1356 -0.3408
 5821TIP3    H141658   6.975   5.953   3.651  0.8536  0.6384 -1.2435
 5821TIP3    H241659   7.104   5.891   3.601  0.8844 -0.8516  0.6209
 5822TIP3   OH241660   5.437   6.846   2.347  0.3733  0.0568  0.2751
 5822TIP3    H141661   5.437   6.921   2.406  5.0089  0.6130  0.0009
 5822TIP3    H241662   5.370   6.866   2.282 -2.1322  1.3277  3.0365
 5823TIP3   OH241663   5.846   5.750   0.825  0.0675  0.2977 -0.0063
 5823TIP3    H141664   5.850   5.725   0.733 -1.8258 -1.3492  0.2906
 5823TIP3    H241665   5.753   5.764   0.842  0.4140  0.9007  1.5811
 5824TIP3   OH241666   4.720   6.640   1.049  0.0291  0.1622 -0.0508
 5824TIP3    H141667   4.783   6.709   1.070  1.1505 -0.2239 -1.9191
 5824TIP3    H241668   4.648   6.686   1.007 -0.3510  0.4521  0.8938
 5825TIP3   OH241669   3.437   2.038   1.805 -0.2509  0.2716 -0.1160
 5825TIP3    H141670   3.513   2.008   1.755  0.4660  0.2474  0.9520
 5825TIP3    H241671   3.425   2.129   1.780  1.0056  0.6884  0.7191
 5826TIP3   OH241672   2.674   1.291   1.685  0.6184  0.0015  0.0602
 5826TIP3    H141673   2.630   1.218   1.728 -0.7316  0.9230  0.3142
 5826TIP3    H241674   2.617   1.312   1.611  1.4546  0.2404 -0.5321
 5827TIP3   OH241675   1.345   0.476   1.759 -0.0075 -0.7329 -0.3600
 5827TIP3    H141676   1.271   0.487   1.819  0.7223 -0.4506  0.5137
 5827TIP3    H241677   1.351   0.558   1.711 -0.8664 -1.1178 -1.1569
 5828TIP3   OH241678   0.426   4.407   1.976  0.2272 -0.4818 -0.5428
 5828TIP3    H141679   0.482   4.445   2.044 -1.0903  0.2946  0.1336
 5828TIP3    H241680   0.487   4.384   1.906  1.3978  0.3762  0.1538
 5829TIP3   OH241681   0.640   7.071   0.707 -0.0447 -0.1222 -0.1390
 5829TIP3    H141682   0.612   7.133   0.640 -0.7536  0.2347  0.4665
 5829TIP3    H241683   0.563   7.016   0.723 -1.1418  2.0333  2.8610
 5830TIP3   OH241684   3.962   0.317   1.943 -0.2134 -0.2006 -0.5260
 5830TIP3    H141685   3.992   0.301   2.032 -0.4230  0.0490 -0.4075
 5830TIP3    H241686   3.991   0.241   1.893  0.2511 -0.1564 -0.3277
 5831TIP3   OH241687   3.408   5.429   0.434  0.3150  0.1220 -0.6991
 5831TIP3    H141688   3.478   5.467   0.486 -0.1777 -0.8053  0.7058
 5831TIP3    H241689   3.441   5.343   0.408 -0.6725 -0.8221  0.9618
 5832TIP3   OH241690   2.904   1.102   1.868 -0.3595  0.1386  0.2422
 5832TIP3    H141691   2.891   1.032   1.804 -1.6992  2.5266 -2.3013
 5832TIP3    H241692   2.853   1.075   1.944 -2.6741 -0.6954 -1.4997
 5833TIP3   OH241693   1.060   4.031   1.954 -0.0479  0.1160 -0.1305
 5833TIP3    H141694   1.068   3.994   2.042  1.1863 -0.4380 -0.4372
 5833TIP3    H241695   1.071   3.955   1.896 -0.3351  0.5532 -0.7629
 5834TIP3   OH241696   6.956   7.323   2.747  0.3584 -0.3322  0.2792
 5834TIP3    H141697   7.011   7.398   2.769  0.8140 -1.3526  3.1173
 5834TIP3    H241698   6.963   7.314   2.652  2.2521  1.6808  0.1485
 5835TIP3   OH241699   7.216   0.562   2.058 -0.4096  0.1761 -0.0308
 5835TIP3    H141700   7.210   0.636   2.119  2.0164  1.0045 -0.6827
 5835TIP3    H241701   7.130   0.558   2.016 -0.7913  2.2729  0.4465
 5836TIP3   OH241702   4.737   6.098   1.619  0.2329  0.0763  0.2552
 5836TIP3    H141703   4.739   6.011   1.579 -0.7829 -0.7343  1.8513
 5836TIP3    H241704   4.806   6.096   1.685  0.1398  0.4458  0.3681
 5837TIP3   OH241705   3.132   5.692   2.266 -0.2612 -0.2591  0.4248
 5837TIP3    H141706   3.143   5.707   2.172 -0.5923  0.1042  0.4383
 5837TIP3    H241707   3.038   5.704   2.281 -0.3568 -1.2576  0.6433
 5838TIP3   OH241708   1.819   2.891   1.759 -0.0673 -0.9310 -0.8812
 5838TIP3    H141709   1.836   2.977   1.721  1.2724 -0.9144 -0.2767
 5838TIP3    H241710   1.736   2.902   1.805  0.6073  0.3508  0.0851
 5839TIP3   OH241711   6.995   7.365   1.526 -0.3250 -0.4854 -0.0672
 5839TIP3    H141712   7.025   7.322   1.606  1.5244  0.3331 -0.2622
 5839TIP3    H241713   6.937   7.301   1.485 -0.3419 -1.4045  1.3065
 5840TIP3   OH241714   6.663   5.088   3.513 -0.0645 -0.0666  0.0912
 5840TIP3    H141715   6.698   5.170   3.549  1.3289 -1.1075  1.2670
 5840TIP3    H241716   6.697   5.084   3.424 -2.1410  1.7332 -0.8771
 5841TIP3   OH241717   2.959   5.180   2.603 -0.4263  0.2515  0.0622
 5841TIP3    H141718   2.952   5.104   2.545  0.5869  0.1632  0.0491
 5841TIP3    H241719   3.031   5.232   2.567  0.0841  0.2998  1.1223
 5842TIP3   OH241720   3.166   5.715   1.393  0.1738 -0.0394  0.2794
 5842TIP3    H141721   3.151   5.795   1.444  1.5679  0.0495  0.5871
 5842TIP3    H241722   3.246   5.733   1.343 -1.5211  0.1931 -2.6301
 5843TIP3   OH241723   2.374   0.602   1.631  0.3550 -0.0148  0.4752
 5843TIP3    H141724   2.285   0.569   1.644  0.1928  0.7967  1.5708
 5843TIP3    H241725   2.362   0.685   1.586  0.4839  0.5434  1.4434
 5844TIP3   OH241726   3.632   0.442   1.940  0.8698 -0.2872  0.3893
 5844TIP3    H141727   3.672   0.387   2.008  0.4444 -0.0909  0.8047
 5844TIP3    H241728   3.646   0.393   1.859  1.0976 -0.6833  0.6616
 5845TIP3   OH241729   2.878   2.139   3.124 -0.0593 -0.6197 -0.4219
 5845TIP3    H141730   2.949   2.080   3.150  0.5365 -0.1066 -0.8276
 5845TIP3    H241731   2.832   2.159   3.205  0.2090 -1.0344 -0.1611
 5846TIP3   OH241732   6.971   3.975   1.020 -0.2519  0.5078  0.4511
 5846TIP3    H141733   7.004   3.966   1.110 -1.0940  1.3347  0.8592
 5846TIP3    H241734   6.929   4.061   1.019  0.7458  1.0127 -1.0654
 5847TIP3   OH241735   5.873   4.337   0.920 -0.1911  0.6065  0.1529
 5847TIP3    H141736   5.903   4.294   0.840  1.0993  0.8889  0.4543
 5847TIP3    H241737   5.863   4.266   0.984 -0.8677  0.4244 -0.1521
 5848TIP3   OH241738   2.189   5.385   0.791  0.3166 -0.3336 -0.5697
 5848TIP3    H141739   2.123   5.455   0.793 -0.7315 -1.2973  1.1046
 5848TIP3    H241740   2.263   5.424   0.745 -0.9009  1.2622 -1.3054
 5849TIP3   OH241741   1.849   6.299   2.662 -0.0986 -0.1417 -0.1733
 5849TIP3    H141742   1.925   6.242   2.659 -0.1393 -0.1646 -1.3846
 5849TIP3    H241743   1.785   6.258   2.603 -0.7721  0.2605  0.2565
 5850TIP3   OH241744   2.414   7.532   1.772 -0.0344  0.7975  0.0822
 5850TIP3    H141745   2.327   7.519   1.735 -0.4868 -3.5590  2.0774
 5850TIP3    H241746   2.401   7.596   1.842 -1.3290  1.1536 -0.4561
 5851TIP3   OH241747   0.317   3.797   1.948  0.1155 -0.4259  0.4833
 5851TIP3    H141748   0.254   3.824   2.014  0.0769 -1.0800  0.7279
 5851TIP3    H241749   0.265   3.779   1.870  0.1054 -0.0947  0.4158
 5852TIP3   OH241750   1.502   0.898   2.939 -0.0459 -0.1508  0.1231
 5852TIP3    H141751   1.518   0.957   2.866 -1.2258 -2.0805 -1.7930
 5852TIP3    H241752   1.486   0.956   3.014 -3.6625  2.1208 -2.1270
 5853TIP3   OH241753   6.783   7.135   2.863  0.2135  0.1834  0.3273
 5853TIP3    H141754   6.841   7.198   2.820  1.8190  0.7735  3.1023
 5853TIP3    H241755   6.701   7.183   2.877 -0.1226  0.1753 -1.3524
 5854TIP3   OH241756   0.538   7.481   1.821  0.3228  0.4350 -0.0476
 5854TIP3    H141757   0.497   7.437   1.746  0.4533 -0.3043  0.3054
 5854TIP3    H241758   0.471   7.539   1.855 -0.6891 -1.2187  0.9187
 5855TIP3   OH241759   5.828   0.198   0.295 -0.8671  0.1221 -0.1705
 5855TIP3    H141760   5.856   0.111   0.269  0.9236  0.4689  0.4034
 5855TIP3    H241761   5.910   0.248   0.301 -1.8697  1.9086 -0.7346
 5856TIP3   OH241762   1.132   2.002   2.674 -0.0879  0.6033 -0.1526
 5856TIP3    H141763   1.211   2.028   2.628  0.7937  0.9598  1.4808
 5856TIP3    H241764   1.163   1.966   2.757 -1.5646 -0.8725 -0.1841
 5857TIP3   OH241765   5.510   7.107   2.139  0.1224 -0.1068  0.2214
 5857TIP3    H141766   5.425   7.133   2.102  0.3893  0.7532  0.2021
 5857TIP3    H241767   5.561   7.188   2.142  1.9102 -1.0233 -2.2933
 5858TIP3   OH241768   0.974   4.246   1.733 -0.5179  0.1076 -0.1046
 5858TIP3    H141769   0.935   4.326   1.767 -3.1220 -1.1420  0.1092
 5858TIP3    H241770   0.956   4.179   1.799  1.9967 -0.6400 -0.0510
 5859TIP3   OH241771   0.474   2.141   0.906 -0.3081 -0.7804  0.1816
 5859TIP3    H141772   0.417   2.102   0.973  0.6681 -0.0750  1.4824
 5859TIP3    H241773   0.443   2.231   0.898  1.4428  0.0695  1.9905
 5860TIP3   OH241774   6.322   5.623   2.702 -0.6213  0.2811 -0.6012
 5860TIP3    H141775   6.345   5.641   2.611  1.0832 -0.6056 -0.3836
 5860TIP3    H241776   6.325   5.528   2.710  2.7310  0.4077  1.1602
 5861TIP3   OH241777   5.380   5.536   2.575  0.3682 -0.1460  0.6222
 5861TIP3    H141778   5.442   5.580   2.633  2.0777 -1.9195  0.2341
 5861TIP3    H241779   5.351   5.459   2.625  0.4638 -0.7099 -0.1631
 5862TIP3   OH241780   6.411   5.773   3.153 -0.1393  1.0504  0.0294
 5862TIP3    H141781   6.416   5.807   3.242  0.0080  0.7943  0.1198
 5862TIP3    H241782   6.477   5.704   3.150 -1.2490 -0.0514  0.2085
 5863TIP3   OH241783   7.508   5.915   1.980 -0.3443 -0.2714 -0.6552
 5863TIP3    H141784   7.511   5.884   2.070  2.6676 -1.5896 -1.0915
 5863TIP3    H241785   7.423   5.958   1.972 -1.9450 -2.5966  1.9627
 5864TIP3   OH241786   6.400   1.686   2.738  0.3140 -0.0413  0.3153
 5864TIP3    H141787   6.338   1.673   2.666  1.2855  0.5310 -0.6508
 5864TIP3    H241788   6.464   1.617   2.728 -0.7738 -1.3888  2.0461
 5865TIP3   OH241789   3.851   0.088   2.209 -0.2064 -0.0861  0.1746
 5865TIP3    H141790   3.767   0.043   2.213 -0.8522  1.0126 -0.4931
 5865TIP3    H241791   3.875   0.103   2.300 -0.5338 -0.7432  0.3783
 5866TIP3   OH241792   4.704   3.265   2.665  0.0689 -0.4107 -0.0203
 5866TIP3    H141793   4.695   3.170   2.674 -0.0979 -0.3061  1.1305
 5866TIP3    H241794   4.638   3.301   2.724  1.8119  0.4019  1.5412
 5867TIP3   OH241795   6.535   4.982   1.729 -0.4210 -0.2381 -0.1233
 5867TIP3    H141796   6.560   4.896   1.696 -0.3824 -0.2683 -0.0169
 5867TIP3    H241797   6.443   4.992   1.707  0.4433  1.3244 -3.7184
 5868TIP3   OH241798   5.909   5.129   2.478 -0.4305 -0.0271 -0.1826
 5868TIP3    H141799   5.983   5.181   2.509  0.6944 -1.0690 -1.0109
 5868TIP3    H241800   5.892   5.066   2.548  1.7810 -2.0506 -1.2940
 5869TIP3   OH241801   3.602   1.791   1.128  0.6898  0.1333  0.0600
 5869TIP3    H141802   3.580   1.716   1.071  2.1551  0.6810 -1.3077
 5869TIP3    H241803   3.533   1.855   1.109 -0.0132 -0.4671  0.4968
 5870TIP3   OH241804   0.805   1.782   2.289  0.6041 -0.5231  0.3232
 5870TIP3    H141805   0.792   1.762   2.196  0.0008 -0.4067  0.3769
 5870TIP3    H241806   0.858   1.862   2.290 -1.1836  0.7199  0.0358
 5871TIP3   OH241807   4.003   0.386   2.225 -0.3558  0.0629 -0.4841
 5871TIP3    H141808   4.006   0.481   2.234 -0.1228 -0.1478  2.8948
 5871TIP3    H241809   3.909   0.366   2.220 -0.5969  0.3643  1.8192
 5872TIP3   OH241810   4.371   5.876   0.944  0.4630 -0.9459  0.1846
 5872TIP3    H141811   4.320   5.805   0.906 -2.0304 -0.3878  2.2178
 5872TIP3    H241812   4.338   5.884   1.034  2.5168  1.0499  0.8554
 5873TIP3   OH241813   3.746   4.672   1.841 -0.0608  0.4015 -0.7745
 5873TIP3    H141814   3.790   4.750   1.807  0.0814  0.5029 -0.3655
 5873TIP3    H241815   3.748   4.683   1.936  0.4402 -0.3579 -0.6836
 5874TIP3   OH241816   5.965   6.537   1.024 -0.1879  0.6685 -0.1714
 5874TIP3    H141817   5.908   6.609   0.997  1.1189  1.2062 -1.6501
 5874TIP3    H241818   6.021   6.521   0.949 -1.2889 -2.8549 -0.4730
 5875TIP3   OH241819   0.506   2.434   0.934 -0.3269 -0.6510 -0.4967
 5875TIP3    H141820   0.426   2.475   0.967  0.6946  0.6348  0.5037
 5875TIP3    H241821   0.493   2.429   0.839 -0.8933  1.1506 -0.5500
 5876TIP3   OH241822   1.918   7.250   2.860  0.2554  0.4434  0.2799
 5876TIP3    H141823   1.887   7.209   2.941  1.2263  1.7607  1.3610
 5876TIP3    H241824   2.012   7.233   2.859  0.6107  2.2425  0.5551
 5877TIP3   OH241825   3.054   2.990   0.642 -0.5715  0.2367  0.0549
 5877TIP3    H141826   3.012   3.045   0.707 -0.2685  0.8238 -0.2373
 5877TIP3    H241827   3.102   3.051   0.586  0.2555 -0.3686  0.0782
 5878TIP3   OH241828   3.168   1.604   2.504  0.1672 -0.1729 -0.6459
 5878TIP3    H141829   3.100   1.669   2.527 -1.6774 -1.7169 -1.4284
 5878TIP3    H241830   3.130   1.521   2.531  0.4085 -1.4398 -3.8169
 5879TIP3   OH241831   7.149   0.843   1.473  0.0911  0.1565  0.5652
 5879TIP3    H141832   7.138   0.751   1.450  0.7185  0.0684  0.6000
 5879TIP3    H241833   7.243   0.853   1.486 -0.2002  0.1983  3.0976
 5880TIP3   OH241834   6.068   5.019   1.316  0.0037  0.4558  0.2119
 5880TIP3    H141835   6.048   4.985   1.229 -2.6369 -1.4439  1.4378
 5880TIP3    H241836   6.163   5.026   1.318  0.1230  1.7764 -3.1937
 5881TIP3   OH241837   0.905   1.476   1.263 -0.6611 -0.3352  0.2687
 5881TIP3    H141838   0.892   1.454   1.171 -1.0047 -0.3618  0.3208
 5881TIP3    H241839   0.923   1.392   1.306 -1.3126 -0.4370  0.3578
 5882TIP3   OH241840   3.491   5.356   0.777 -0.0957 -0.0564 -0.7306
 5882TIP3    H141841   3.400   5.330   0.761 -0.1384  0.1847 -0.8827
 5882TIP3    H241842   3.512   5.414   0.704 -0.2870  1.0614  0.0905
 5883TIP3   OH241843   4.895   4.319   1.373  0.1242 -0.5142  0.0754
 5883TIP3    H141844   4.903   4.385   1.304 -0.2294 -0.1140  0.4100
 5883TIP3    H241845   4.966   4.339   1.434 -0.6903  0.3234  0.7953
 5884TIP3   OH241846   2.747   5.921   2.050  0.3114 -0.2555  0.4938
 5884TIP3    H141847   2.720   6.012   2.040 -2.8083 -1.1349 -0.4734
 5884TIP3    H241848   2.765   5.891   1.960 -0.5810 -1.0119  0.5379
 5885TIP3   OH241849   1.502   0.864   1.870  0.5292 -0.0578  0.0006
 5885TIP3    H141850   1.491   0.848   1.964 -0.9133 -1.7705 -0.4015
 5885TIP3    H241851   1.597   0.867   1.857  0.7807  2.6222  1.8244
 5886TIP3   OH241852   3.935   5.220   1.045  0.1266  0.4569 -0.8642
 5886TIP3    H141853   3.981   5.302   1.027 -0.0425  0.5915 -0.6876
 5886TIP3    H241854   3.875   5.211   0.970  1.4989 -0.5025 -1.8944
 5887TIP3   OH241855   6.779   5.818   3.485  0.1722 -0.6361  0.1637
 5887TIP3    H141856   6.862   5.819   3.532 -0.3022  0.9042  1.0660
 5887TIP3    H241857   6.803   5.802   3.394  1.1805 -2.9355  0.7793
 5888TIP3   OH241858   0.948   1.649   1.449  0.0535  0.1044 -0.0357
 5888TIP3    H141859   0.999   1.590   1.505  0.0768  0.5597  0.4258
 5888TIP3    H241860   0.925   1.595   1.373 -0.3678 -0.6588  0.6198
 5889TIP3   OH241861   5.454   5.220   1.487  0.3258 -0.4550 -0.1149
 5889TIP3    H141862   5.367   5.254   1.509 -0.8634 -2.6426 -1.1675
 5889TIP3    H241863   5.499   5.294   1.446 -0.7759  0.9099  1.0373
 5890TIP3   OH241864   2.820   4.018   1.756  0.0681 -0.0457  0.5847
 5890TIP3    H141865   2.823   4.110   1.730  1.2748 -0.5624 -1.2228
 5890TIP3    H241866   2.837   3.969   1.676 -1.0363 -1.8928  1.4021
 5891TIP3   OH241867   4.983   6.206   1.295 -0.7792 -0.3927 -0.3201
 5891TIP3    H141868   4.948   6.284   1.253 -0.8127 -0.6345 -0.7476
 5891TIP3    H241869   5.048   6.239   1.357 -1.4188  0.0220  0.1291
 5892TIP3   OH241870   1.201   4.901   1.500 -0.6681 -0.4373  0.1262
 5892TIP3    H141871   1.195   4.870   1.409 -0.3607  1.1448 -0.4692
 5892TIP3    H241872   1.166   4.990   1.497  0.7021  0.1840  1.2588
 5893TIP3   OH241873   0.860   4.819   1.173  0.1097  0.5544  0.0028
 5893TIP3    H141874   0.791   4.875   1.136 -0.3503  0.9240  1.3752
 5893TIP3    H241875   0.917   4.879   1.221  0.7404  0.0873 -0.1407
 5894TIP3   OH241876   5.056   6.757   1.673 -0.8588  0.1341 -0.5247
 5894TIP3    H141877   5.049   6.817   1.747 -0.4559  0.0703 -0.4307
 5894TIP3    H241878   4.967   6.749   1.640 -0.9175  0.7897 -0.5401
 5895TIP3   OH241879   6.649   4.381   1.672  0.5170 -0.2073  0.0944
 5895TIP3    H141880   6.660   4.290   1.645  0.5854 -0.9123  2.2702
 5895TIP3    H241881   6.619   4.426   1.594 -0.8804 -2.3790 -0.7143
 5896TIP3   OH241882   1.660   7.657   0.347  0.1174 -0.2689 -0.1033
 5896TIP3    H141883   1.659   7.647   0.252  0.9167 -1.6485 -0.0016
 5896TIP3    H241884   1.746   7.624   0.373 -0.6422 -1.3047  1.2198
 5897TIP3   OH241885   4.146   3.550   1.510 -0.6178  0.0261  0.5893
 5897TIP3    H141886   4.139   3.475   1.451 -0.5866  1.4023 -1.2768
 5897TIP3    H241887   4.067   3.602   1.492  0.1751  1.2705  0.5559
 5898TIP3   OH241888   7.577   7.434   0.601  0.4449 -0.2831 -0.1485
 5898TIP3    H141889   7.609   7.358   0.553  1.2700 -0.1605  0.1792
 5898TIP3    H241890   7.487   7.447   0.571  1.2209  0.3505 -2.3451
 5899TIP3   OH241891   0.117   2.919   2.142  0.1121 -0.0823 -0.3113
 5899TIP3    H141892   0.090   2.865   2.067 -0.0641 -0.4794  0.0342
 5899TIP3    H241893   0.061   2.890   2.214  0.6263 -0.0570  0.1065
 5900TIP3   OH241894   0.031   5.254   2.243 -0.0957 -0.4552  0.0794
 5900TIP3    H141895  -0.010   5.297   2.319  0.0130  2.3034 -1.3062
 5900TIP3    H241896   0.125   5.259   2.261 -0.1333 -2.0533  0.8528
 5901TIP3   OH241897   6.254   7.634   3.088  0.2400  0.0566  0.0103
 5901TIP3    H141898   6.299   7.573   3.030 -0.1779  0.1479 -0.4081
 5901TIP3    H241899   6.191   7.580   3.136  0.6833 -0.0455  0.4958
 5902TIP3   OH241900   2.195   6.504   0.817 -0.0230 -0.6690 -0.3640
 5902TIP3    H141901   2.214   6.412   0.796 -1.5822 -1.1990  0.4262
 5902TIP3    H241902   2.132   6.500   0.888 -1.1970  1.0059 -1.2483
 5903TIP3   OH241903   3.997   6.504   2.451  0.0322  0.3880 -0.1162
 5903TIP3    H141904   4.028   6.484   2.362 -1.3471  0.3255 -0.6101
 5903TIP3    H241905   4.034   6.590   2.470  0.1397  0.5162 -0.8618
 5904TIP3   OH241906   1.606   1.227   2.449  0.1001  0.4269  0.0884
 5904TIP3    H141907   1.645   1.307   2.414  0.1931  0.2255 -0.2726
 5904TIP3    H241908   1.612   1.237   2.544  3.7852 -0.9156  0.1160
 5905TIP3   OH241909   3.655   0.863   2.979 -0.4303  0.1679 -0.3115
 5905TIP3    H141910   3.652   0.939   3.037  1.2788  0.2967 -0.3441
 5905TIP3    H241911   3.738   0.872   2.932 -0.5597 -1.3264 -0.8723
 5906TIP3   OH241912   4.166   4.574   1.524 -0.1650 -0.2707 -0.4185
 5906TIP3    H141913   4.112   4.651   1.509 -1.9712 -1.6577 -1.3976
 5906TIP3    H241914   4.127   4.505   1.470  2.3138 -1.4969 -0.8452
 5907TIP3   OH241915   3.784   3.404   0.740 -0.8451  0.1690 -0.1919
 5907TIP3    H141916   3.842   3.475   0.714 -0.6315  0.1317  0.1662
 5907TIP3    H241917   3.835   3.355   0.805 -1.2456  0.0908  0.0682
 5908TIP3   OH241918   0.919   1.006   1.888 -0.4331  0.0112  0.0998
 5908TIP3    H141919   0.966   0.987   1.969 -0.9530 -1.0412  0.1629
 5908TIP3    H241920   0.859   0.933   1.877 -1.6538  1.0413 -0.2904
 5909TIP3   OH241921   1.578   0.625   0.967  0.0845  0.3471 -0.0604
 5909TIP3    H141922   1.597   0.714   0.938  0.4697  1.3229  2.9233
 5909TIP3    H241923   1.663   0.582   0.972 -0.1537 -0.5726 -2.2747
 5910TIP3   OH241924   6.598   5.694   1.953 -0.5840  0.3085 -0.0687
 5910TIP3    H141925   6.688   5.661   1.952 -0.1669  1.3913  0.3664
 5910TIP3    H241926   6.602   5.775   1.901 -1.7115 -0.6081 -1.6678
 5911TIP3   OH241927   2.471   0.638   0.423  0.7409 -0.0373  0.2887
 5911TIP3    H141928   2.394   0.694   0.412  2.6756  2.8281  0.1782
 5911TIP3    H241929   2.439   0.562   0.471 -2.1277  1.0501  0.2770
 5912TIP3   OH241930   2.567   5.257   1.522  0.3071  0.5411 -0.1035
 5912TIP3    H141931   2.631   5.190   1.543 -0.7443 -0.6547 -0.5391
 5912TIP3    H241932   2.617   5.327   1.480  1.1528 -0.9980 -1.7893
 5913TIP3   OH241933   6.125   6.101   1.979  0.6112 -0.1429  0.0345
 5913TIP3    H141934   6.192   6.165   1.956  0.8382 -0.4301 -0.1222
 5913TIP3    H241935   6.169   6.016   1.967  1.1382 -0.3202  2.6765
 5914TIP3   OH241936   3.557   7.039   0.620 -0.1119 -0.1320 -0.3179
 5914TIP3    H141937   3.552   7.037   0.525 -0.5470 -0.2716 -0.2938
 5914TIP3    H241938   3.547   7.131   0.643 -0.3058 -0.1358 -0.3904
 5915TIP3   OH241939   6.473   3.088   3.127 -0.2090  0.0918 -0.2299
 5915TIP3    H141940   6.455   3.175   3.161 -0.0708  0.6048 -1.4382
 5915TIP3    H241941   6.388   3.044   3.126  0.0355 -0.5925  2.4636
 5916TIP3   OH241942   0.199   5.124   1.296  0.4499  0.2925 -0.1633
 5916TIP3    H141943   0.136   5.087   1.233 -2.3778 -1.0038  3.1092
 5916TIP3    H241944   0.190   5.219   1.286 -1.1001  0.1246 -0.6899
 5917TIP3   OH241945   1.898   5.156   2.164 -0.3645 -0.5220  0.1296
 5917TIP3    H141946   1.861   5.243   2.170  0.0976 -0.3410  0.4029
 5917TIP3    H241947   1.991   5.168   2.183 -0.2988 -1.0732  0.1749
 5918TIP3   OH241948   3.763   5.634   2.653  0.2015  0.0651  0.1178
 5918TIP3    H141949   3.853   5.601   2.645  0.5709  1.0846 -0.0476
 5918TIP3    H241950   3.744   5.630   2.747 -0.3816 -2.1647 -0.0339
 5919TIP3   OH241951   3.005   4.793   0.921 -0.1579 -0.5654 -0.1597
 5919TIP3    H141952   3.038   4.807   0.831  1.4938  1.2395  0.6426
 5919TIP3    H241953   2.926   4.846   0.926  0.5768  0.5729 -0.1461
 5920TIP3   OH241954   0.848   5.087   1.923  0.3160  0.4021  0.6690
 5920TIP3    H141955   0.836   5.078   2.017  0.6659  1.7150  0.8609
 5920TIP3    H241956   0.926   5.034   1.903  1.0066  1.1383  1.3482
 5921TIP3   OH241957   0.922   6.813   2.758 -0.0289 -0.3728  0.4198
 5921TIP3    H141958   0.849   6.841   2.813 -0.5792 -1.1975  0.1327
 5921TIP3    H241959   0.961   6.739   2.805 -1.0821 -1.7011 -0.6841
 5922TIP3   OH241960   4.895   2.815   0.542  0.2877 -0.0464  0.2994
 5922TIP3    H141961   4.805   2.841   0.523  0.9733 -0.2155 -4.6545
 5922TIP3    H241962   4.942   2.898   0.550  0.3026  0.1702 -1.6158
 5923TIP3   OH241963   2.471   6.972   2.143  0.5094 -0.1721 -0.2682
 5923TIP3    H141964   2.474   7.005   2.054  1.1468 -3.1856 -1.5084
 5923TIP3    H241965   2.555   6.925   2.153 -0.1105 -0.9970  1.4211
 5924TIP3   OH241966   5.826   1.561   1.295  0.2389  0.4006  0.6344
 5924TIP3    H141967   5.754   1.588   1.238  0.5489 -0.3349 -0.1228
 5924TIP3    H241968   5.901   1.613   1.265  0.8866 -1.3385 -0.9560
 5925TIP3   OH241969   1.493   1.454   1.409  0.4625 -0.6184  0.2714
 5925TIP3    H141970   1.468   1.361   1.404 -1.5145 -0.0647 -2.3952
 5925TIP3    H241971   1.425   1.499   1.359  1.7241  2.2231  0.9677
 5926TIP3   OH241972   6.215   0.189   2.909  0.2361  0.2026  0.2992
 5926TIP3    H141973   6.173   0.139   2.839  0.2024  0.4061  0.1757
 5926TIP3    H241974   6.259   0.122   2.962 -0.1095  0.0034  0.3386
 5927TIP3   OH241975   3.135   7.374   2.895  0.2277  0.1933  0.1323
 5927TIP3    H141976   3.208   7.323   2.862  2.4070  2.3011  1.3052
 5927TIP3    H241977   3.148   7.376   2.990 -0.8198  1.3745  0.2881
 5928TIP3   OH241978   6.093   7.443   3.251 -0.1537 -0.2971 -0.1552
 5928TIP3    H141979   6.177   7.433   3.295 -0.2430  0.5350  0.2339
 5928TIP3    H241980   6.035   7.380   3.293  0.1460 -0.5399 -0.1019
 5929TIP3   OH241981   0.811   1.619   3.001 -0.0495 -0.1317 -0.8460
 5929TIP3    H141982   0.746   1.685   2.978  0.9169  1.0648 -0.2187
 5929TIP3    H241983   0.773   1.574   3.077 -0.3025  0.3196 -0.6989
 5930TIP3   OH241984   0.345   4.478   0.827  0.1010 -0.5870 -0.4382
 5930TIP3    H141985   0.278   4.527   0.875  2.0552 -0.4533  2.4130
 5930TIP3    H241986   0.407   4.545   0.797 -0.9211 -0.7036 -3.0695
 5931TIP3   OH241987   5.412   2.830   2.077  0.0309  0.2407  0.3248
 5931TIP3    H141988   5.392   2.843   2.170 -0.7890  1.7287 -0.0243
 5931TIP3    H241989   5.342   2.773   2.045 -1.4792  2.1739 -0.0028
 5932TIP3   OH241990   2.943   2.465   2.681 -0.7321  0.6282 -0.1381
 5932TIP3    H141991   2.864   2.469   2.627 -0.4654 -1.4854 -0.7628
 5932TIP3    H241992   2.917   2.415   2.758  0.1214 -0.6319 -0.6419
 5933TIP3   OH241993   3.724   1.128   1.861 -0.1231 -0.5268  0.3399
 5933TIP3    H141994   3.644   1.081   1.886 -0.6366  0.3341  0.3728
 5933TIP3    H241995   3.791   1.061   1.857 -0.8610 -1.2769  0.2815
 5934TIP3   OH241996   3.789   3.717   0.593  0.1009  0.6901  0.1732
 5934TIP3    H141997   3.720   3.679   0.538  0.7658  0.3321 -0.4279
 5934TIP3    H241998   3.746   3.735   0.676 -1.1897  2.1371 -0.7476
 5935TIP3   OH241999   3.413   0.752   2.892  0.0092  0.4729  0.4212
 5935TIP3    H142000   3.501   0.780   2.916 -0.2525  1.6434  0.0743
 5935TIP3    H242001   3.372   0.830   2.854 -0.0666 -0.8461 -2.5282
 5936TIP3   OH242002   5.910   7.201   1.436 -0.2174  0.1726 -0.0469
 5936TIP3    H142003   5.867   7.138   1.493 -1.7284  1.2205  0.0272
 5936TIP3    H242004   5.957   7.148   1.372 -0.9246 -1.0155  0.4029
 5937TIP3   OH242005   5.891   4.259   1.379  0.2721  0.6463 -0.1158
 5937TIP3    H142006   5.877   4.351   1.358  0.1400  0.4193 -1.0727
 5937TIP3    H242007   5.856   4.212   1.304 -0.8044 -0.2454  0.9119
 5938TIP3   OH242008   4.368   5.766   1.789  0.1299 -0.4627  0.8989
 5938TIP3    H142009   4.406   5.719   1.864  1.1569  0.1122  0.7479
 5938TIP3    H242010   4.412   5.729   1.713  0.5381  0.3453  0.7347
 5939TIP3   OH242011   5.260   2.498   2.977 -0.4354 -0.2361  0.4002
 5939TIP3    H142012   5.272   2.408   3.007 -2.1403 -0.4285  0.6139
 5939TIP3    H242013   5.347   2.538   2.985  0.2589 -1.7308  0.6893
 5940TIP3   OH242014   4.978   5.436   3.333  0.1378 -0.1751  0.3568
 5940TIP3    H142015   5.063   5.472   3.307  0.4168 -1.3038 -0.4044
 5940TIP3    H242016   4.984   5.343   3.310 -1.5170 -0.1627 -0.2359
 5941TIP3   OH242017   1.608   5.408   2.481 -0.3667 -0.3631 -0.4913
 5941TIP3    H142018   1.579   5.450   2.561 -0.7222 -1.3602 -0.0772
 5941TIP3    H242019   1.564   5.456   2.411 -2.2486 -1.1962  0.0596
 5942TIP3   OH242020   6.879   0.153   2.455  0.6877  0.6455 -0.4273
 5942TIP3    H142021   6.898   0.190   2.541 -0.2850  0.8461 -0.2781
 5942TIP3    H242022   6.940   0.197   2.396  1.9184 -0.0923  0.2748
 5943TIP3   OH242023   1.390   7.501   2.968  0.1991 -0.2063  0.0375
 5943TIP3    H142024   1.305   7.544   2.958  0.2313 -0.3599 -1.0077
 5943TIP3    H242025   1.376   7.436   3.037  0.2365  1.6426  1.8737
 5944TIP3   OH242026   3.614   3.976   2.283 -0.4073 -0.3037  0.0971
 5944TIP3    H142027   3.666   3.943   2.355  0.1855 -2.2000 -1.1347
 5944TIP3    H242028   3.609   4.071   2.298  2.7468 -0.1279  0.7014
 5945TIP3   OH242029   1.888   5.555   2.587  0.0673 -0.4500 -0.0433
 5945TIP3    H142030   1.809   5.519   2.627 -0.0306  1.8335  2.0917
 5945TIP3    H242031   1.954   5.549   2.656  1.0293  0.0070 -0.9040
 5946TIP3   OH242032   4.225   5.376   0.732 -0.2735  0.2243 -0.5162
 5946TIP3    H142033   4.156   5.398   0.670 -0.1438  1.4452 -0.2542
 5946TIP3    H242034   4.223   5.280   0.737 -0.4431  0.1139 -2.2060
 5947TIP3   OH242035   4.371   1.310   1.554  0.2621 -0.1221  0.3902
 5947TIP3    H142036   4.293   1.284   1.603 -0.7186 -1.0538 -1.5839
 5947TIP3    H242037   4.423   1.230   1.547  0.5616  0.0873  0.2093
 5948TIP3   OH242038   6.889   1.817   2.068  0.5032  0.2904  0.1666
 5948TIP3    H142039   6.945   1.847   2.139  0.6244 -0.7527  0.5405
 5948TIP3    H242040   6.945   1.818   1.991  1.9043 -3.0116  0.9340
 5949TIP3   OH242041   6.149   4.064   1.152  0.1912  0.3046  0.1861
 5949TIP3    H142042   6.237   4.045   1.185 -0.0447 -0.0005  0.6350
 5949TIP3    H242043   6.156   4.049   1.057  0.8430  1.1095  0.0913
 5950TIP3   OH242044   7.606   0.506   1.224 -0.8235  0.0824 -0.3571
 5950TIP3    H142045   7.648   0.588   1.197  1.1271  0.0886  2.2835
 5950TIP3    H242046   7.536   0.534   1.284 -0.0072 -0.1481  0.7282
 5951TIP3   OH242047   3.053   2.394   3.184  0.7898  0.3927  0.1026
 5951TIP3    H142048   3.022   2.304   3.171  0.3855  0.5138  0.2238
 5951TIP3    H242049   2.979   2.449   3.158  0.5332  0.6667  1.3418
 5952TIP3   OH242050   1.466   3.169   2.161  0.5340  0.3146  0.2203
 5952TIP3    H142051   1.386   3.216   2.136 -0.6998 -1.7463  0.0821
 5952TIP3    H242052   1.530   3.193   2.094  0.1331  2.1471  0.4331
 5953TIP3   OH242053   2.640   3.612   1.654  0.3517  0.8272  0.2896
 5953TIP3    H142054   2.562   3.615   1.710  0.8765 -2.4848  1.4014
 5953TIP3    H242055   2.606   3.620   1.565 -1.1068  0.8647  0.8149
 5954TIP3   OH242056   6.749   3.280   1.527 -0.2702 -0.2755 -0.5847
 5954TIP3    H142057   6.801   3.251   1.602  0.5811  0.0328 -1.0379
 5954TIP3    H242058   6.660   3.286   1.560  0.0938 -0.1492  0.3992
 5955TIP3   OH242059   6.732   4.594   0.983 -0.1071 -0.0052  0.2659
 5955TIP3    H142060   6.711   4.624   0.894 -0.0689  0.9193  0.5568
 5955TIP3    H242061   6.827   4.585   0.983 -0.1678 -0.6503  0.0184
 5956TIP3   OH242062   3.939   5.409   8.245  0.0978 -0.2057  0.2481
 5956TIP3    H142063   3.945   5.485   8.188 -0.1294 -1.0593 -0.9480
 5956TIP3    H242064   3.936   5.334   8.186 -0.9707 -1.0890  1.3490
 5957TIP3   OH242065   2.968   0.997   1.151  0.0598  0.6669  0.1279
 5957TIP3    H142066   2.992   0.909   1.121  2.5870  0.7768  1.5225
 5957TIP3    H242067   3.002   1.055   1.084 -1.4829  0.6382 -0.7213
 5958TIP3   OH242068   3.249   6.912   2.192 -0.3758 -0.3492  0.5137
 5958TIP3    H142069   3.210   6.830   2.162  1.5838 -0.8637 -0.9010
 5958TIP3    H242070   3.340   6.907   2.162  0.1277  1.8218  1.4695
 5959TIP3   OH242071   6.582   4.343   2.334 -0.2265 -0.3230  0.1405
 5959TIP3    H142072   6.593   4.372   2.243  0.9643 -0.4897  0.2153
 5959TIP3    H242073   6.543   4.256   2.327 -1.1045  0.0818 -0.1700
 5960TIP3   OH242074   4.972   2.189   2.632  0.5880 -0.4100 -0.3093
 5960TIP3    H142075   4.993   2.168   2.541  1.9344  0.6882 -0.2736
 5960TIP3    H242076   4.902   2.127   2.654  1.7641 -2.2335 -1.3768
 5961TIP3   OH242077   7.462   1.243   2.734 -0.1717 -0.6778 -0.3871
 5961TIP3    H142078   7.419   1.326   2.753  0.0148 -0.9165  1.1588
 5961TIP3    H242079   7.398   1.194   2.683 -1.2439 -0.5159  0.7553
 5962TIP3   OH242080   2.936   5.428   2.356 -0.3807 -0.2166 -0.1981
 5962TIP3    H142081   2.875   5.354   2.345 -0.0182 -0.7915  1.4246
 5962TIP3    H242082   3.021   5.392   2.333 -0.3762  0.0555 -0.6141
 5963TIP3   OH242083   3.874   3.982   0.619  0.0540 -0.1351  0.0347
 5963TIP3    H142084   3.796   4.037   0.617  1.2579  1.7696 -3.3282
 5963TIP3    H242085   3.847   3.901   0.574 -0.1545  0.3397 -0.7278
 5964TIP3   OH242086   6.646   1.416   2.378 -0.6178  0.8526 -0.2378
 5964TIP3    H142087   6.715   1.367   2.332 -0.2714  0.1837  0.9410
 5964TIP3    H242088   6.691   1.454   2.454 -0.9988  2.5936 -0.8283
 5965TIP3   OH242089   2.094   7.330   0.482  0.4568 -0.3924  0.4785
 5965TIP3    H142090   2.106   7.378   0.564  2.3799 -0.3586  0.2313
 5965TIP3    H242091   2.178   7.287   0.467  0.0735 -0.6014 -1.3543
 5966TIP3   OH242092   2.496   7.011   0.405  0.2776  0.5104  0.1953
 5966TIP3    H142093   2.445   7.091   0.391 -1.3100  0.2681  3.6737
 5966TIP3    H242094   2.573   7.040   0.454 -1.9816 -0.2580  4.6344
 5967TIP3   OH242095   7.355   0.330   2.111 -0.1901 -1.1239  0.9909
 5967TIP3    H142096   7.299   0.383   2.054 -1.1355 -3.0591  0.0144
 5967TIP3    H242097   7.417   0.287   2.050  1.2260 -0.3949  1.8593
 5968TIP3   OH242098   0.087   6.757   1.677 -0.7085 -0.7491 -0.1554
 5968TIP3    H142099   0.114   6.722   1.762  1.8388  0.9651 -0.1175
 5968TIP3    H242100   0.053   6.844   1.697  1.1089  0.1939 -0.9261
 5969TIP3   OH242101   4.130   7.298   0.774 -0.6088  0.8507 -0.0558
 5969TIP3    H142102   4.101   7.214   0.808  0.4299  1.0901  1.5548
 5969TIP3    H242103   4.139   7.285   0.680 -1.8383 -0.4022 -0.0208
 5970TIP3   OH242104   5.338   3.541   1.367  0.8141 -0.1198 -0.9185
 5970TIP3    H142105   5.371   3.486   1.438 -0.4353  0.7970  0.4238
 5970TIP3    H242106   5.244   3.550   1.385  0.5424  0.4942 -2.4551
 5971TIP3   OH242107   7.360   2.033   2.069 -0.2563  0.2221  0.1265
 5971TIP3    H142108   7.383   1.942   2.087 -1.1526 -0.2821 -1.1776
 5971TIP3    H242109   7.382   2.046   1.977 -1.8201  0.7765 -0.1921
 5972TIP3   OH242110   3.777   6.921   2.658  0.1558  0.3794  0.2202
 5972TIP3    H142111   3.776   7.016   2.660 -1.8143  0.4502 -1.1138
 5972TIP3    H242112   3.698   6.895   2.705  0.8024 -0.6159  0.7907
 5973TIP3   OH242113   6.645   5.109   2.421  0.5203 -0.7195  0.0467
 5973TIP3    H142114   6.651   5.079   2.331  1.9415 -0.5657  0.0708
 5973TIP3    H242115   6.731   5.092   2.459  0.1926 -0.0853  1.1546
 5974TIP3   OH242116   4.263   0.405   0.336  0.4847 -0.4245 -0.6663
 5974TIP3    H142117   4.324   0.452   0.279 -0.0783  0.5800 -0.4766
 5974TIP3    H242118   4.320   0.354   0.394  1.1701  0.5037 -0.4811
 5975TIP3   OH242119   1.162   7.367   0.733 -0.0201  0.8281  0.2871
 5975TIP3    H142120   1.095   7.341   0.669 -0.4066  2.1305  0.1222
 5975TIP3    H242121   1.236   7.310   0.715 -0.4933  0.4828 -0.6432
 5976TIP3   OH242122   3.379   4.110   1.968  0.5290  0.3141  0.3345
 5976TIP3    H142123   3.430   4.175   1.920  0.1447  1.6887  1.6877
 5976TIP3    H242124   3.289   4.124   1.938  0.4906  0.1994  0.3970
 5977TIP3   OH242125   5.402   1.210   1.855  0.0467 -0.8974  0.5432
 5977TIP3    H142126   5.359   1.143   1.803  0.7380 -0.7738 -0.2153
 5977TIP3    H242127   5.354   1.212   1.937  1.3476 -3.9165  1.5331
 5978TIP3   OH242128   0.854   1.448   0.989  0.1476 -0.1803 -0.0595
 5978TIP3    H142129   0.761   1.427   0.989  0.2566 -0.8127  1.9029
 5978TIP3    H242130   0.864   1.512   0.918 -2.0996  1.2360  0.7973
 5979TIP3   OH242131   0.046   6.754   1.409 -0.0408  0.1765  0.3756
 5979TIP3    H142132   0.092   6.678   1.373  0.0559  0.0854  0.6890
 5979TIP3    H242133   0.062   6.749   1.503 -1.2414 -0.2211  0.5656
 5980TIP3   OH242134   4.335   5.900   0.620 -0.5214  0.5195 -0.4913
 5980TIP3    H142135   4.319   5.993   0.603 -1.4851  0.7075  1.1672
 5980TIP3    H242136   4.428   5.887   0.602  0.3312  2.5027  1.9358
 5981TIP3   OH242137   7.213   2.608   2.768 -0.4547 -0.7307  0.2884
 5981TIP3    H142138   7.275   2.553   2.815 -0.6365  1.6795  3.6504
 5981TIP3    H242139   7.139   2.618   2.827 -0.6866  2.5617 -0.3504
 5982TIP3   OH242140   3.719   6.099   0.487  0.5125  0.0834 -0.2931
 5982TIP3    H142141   3.813   6.101   0.470  0.5643 -0.6055 -0.1117
 5982TIP3    H242142   3.687   6.183   0.454  1.3479  0.7928  0.6313
 5983TIP3   OH242143   2.870   3.394   1.215  0.4225 -0.2760 -0.7663
 5983TIP3    H142144   2.847   3.360   1.128  2.7429 -0.8119 -1.2478
 5983TIP3    H242145   2.867   3.489   1.205 -1.0900 -0.3107 -0.8831
 5984TIP3   OH242146   3.322   7.386   0.885  0.3595  0.0694 -0.1029
 5984TIP3    H142147   3.296   7.471   0.849  0.1430 -0.4680 -1.2676
 5984TIP3    H242148   3.388   7.407   0.950 -0.1723  1.1807  0.1059
 5985TIP3   OH242149   3.805   7.011   0.748 -0.0929 -0.7225 -0.0952
 5985TIP3    H142150   3.779   6.993   0.839  0.7460 -0.8026  0.1313
 5985TIP3    H242151   3.724   7.040   0.706 -0.5691 -1.0287  0.5866
 5986TIP3   OH242152   6.973   3.875   1.806  0.0963  0.2940  0.1699
 5986TIP3    H142153   6.911   3.935   1.847 -1.9996 -2.5192  1.4998
 5986TIP3    H242154   6.944   3.788   1.834  2.6212 -1.4198 -2.0117
 5987TIP3   OH242155   1.694   3.196   2.298 -0.3930  0.3880 -1.1584
 5987TIP3    H142156   1.610   3.180   2.255 -0.2165 -0.7844 -1.0978
 5987TIP3    H242157   1.754   3.132   2.258 -0.1174 -0.4385  0.4908
 5988TIP3   OH242158   3.773   2.600   1.688  0.3014  0.4842 -0.7152
 5988TIP3    H142159   3.708   2.530   1.684  0.8702 -0.0977 -0.0011
 5988TIP3    H242160   3.850   2.565   1.644  0.7102  0.5118 -0.0434
 5989TIP3   OH242161   7.568   3.356   2.188  0.0467  0.2908 -0.3101
 5989TIP3    H142162   7.521   3.433   2.156 -0.6743  0.1107  0.2860
 5989TIP3    H242163   7.661   3.377   2.175 -0.1477  1.1673 -0.3361
 5990TIP3   OH242164   3.946   5.973   0.829 -0.0137 -0.1616  0.1250
 5990TIP3    H142165   4.001   5.918   0.775 -0.5115  1.0280 -1.6869
 5990TIP3    H242166   3.863   5.980   0.781 -0.5619  0.7532  1.1385
 5991TIP3   OH242167   7.110   1.930   1.304  0.3510 -0.4263  0.1284
 5991TIP3    H142168   7.019   1.954   1.320  0.2994 -0.5200 -0.0203
 5991TIP3    H242169   7.106   1.867   1.232  0.5853  0.1153 -0.3730
 5992TIP3   OH242170   3.106   0.773   1.085  0.4828  0.6731 -0.3045
 5992TIP3    H142171   3.186   0.823   1.096 -0.2123  2.1355 -1.5144
 5992TIP3    H242172   3.125   0.688   1.124  2.5409  1.0477 -0.3943
 5993TIP3   OH242173   5.861   4.336   2.514  0.2416  0.0414  0.1096
 5993TIP3    H142174   5.881   4.416   2.563  0.8522 -0.0427 -0.0012
 5993TIP3    H242175   5.812   4.282   2.576  1.0537 -0.0896  0.6476
 5994TIP3   OH242176   7.234   1.383   0.814  0.1103  0.6423 -0.3144
 5994TIP3    H142177   7.162   1.352   0.868  0.4210 -0.7894 -0.6552
 5994TIP3    H242178   7.309   1.330   0.842  1.2066  2.5061  0.4580
 5995TIP3   OH242179   2.133   4.138   1.011  0.3578 -0.5077  0.0274
 5995TIP3    H142180   2.193   4.152   1.084  0.1141 -0.0264  0.1388
 5995TIP3    H242181   2.092   4.054   1.029 -0.7985  0.2749  1.2250
 5996TIP3   OH242182   0.826   7.595   1.853  0.3441  1.1769  0.2851
 5996TIP3    H142183   0.857   7.598   1.762 -0.3817 -1.6988 -0.1679
 5996TIP3    H242184   0.731   7.587   1.846  0.3473 -0.0973  1.2010
 5997TIP3   OH242185   7.571   5.941   1.259 -0.2218 -0.1280 -0.1390
 5997TIP3    H142186   7.560   5.862   1.313 -0.0005 -0.9345 -1.2345
 5997TIP3    H242187   7.648   5.984   1.295 -0.7181 -0.0652  0.8788
 5998TIP3   OH242188   0.335   7.676   1.869 -0.0166 -0.1877 -0.1872
 5998TIP3    H142189   0.258   7.692   1.814  0.4395  0.4039 -0.6660
 5998TIP3    H242190   0.335   7.748   1.932  0.9785  0.6977 -1.1502
 5999TIP3   OH242191   2.304   3.716   0.613  0.1740 -0.1330 -0.1502
 5999TIP3    H142192   2.269   3.628   0.630  1.4748 -0.9995 -1.7201
 5999TIP3    H242193   2.243   3.775   0.658 -1.4026 -1.7632 -0.0425
 6000TIP3   OH242194   0.554   5.380   0.549  0.3317  0.0122 -0.5318
 6000TIP3    H142195   0.648   5.360   0.553  0.1483 -0.7495  0.5177
 6000TIP3    H242196   0.514   5.298   0.521  0.0031  0.4526 -1.3724
 6001TIP3   OH242197   3.073   0.133   1.581 -0.5115 -0.2859 -0.2181
 6001TIP3    H142198   3.015   0.188   1.633  0.3177 -0.7459  1.2252
 6001TIP3    H242199   3.019   0.059   1.555 -1.2832  0.5631 -1.1255
 6002TIP3   OH242200   3.049   5.166   0.521  0.2618  0.0463 -0.5229
 6002TIP3    H142201   3.076   5.249   0.483 -1.2379  1.0063  0.3982
 6002TIP3    H242202   3.012   5.116   0.448 -1.1175  1.2160 -0.6652
 6003TIP3   OH242203   3.752   6.735   1.428  0.4732  0.4223 -0.0175
 6003TIP3    H142204   3.676   6.714   1.482  1.2282  0.8865  1.2766
 6003TIP3    H242205   3.794   6.650   1.411  0.2438  0.2732  0.1612
 6004TIP3   OH242206   5.095   2.563   1.765 -0.5811  0.2696 -0.5555
 6004TIP3    H142207   5.062   2.484   1.808  2.6739 -1.2870 -0.5700
 6004TIP3    H242208   5.169   2.532   1.712  0.1639  3.2067 -1.4351
 6005TIP3   OH242209   7.668   2.403   1.867 -0.4258  0.5478  0.1683
 6005TIP3    H142210   7.578   2.374   1.879  0.0904 -0.9646  0.6220
 6005TIP3    H242211   7.681   2.470   1.935 -1.7429  2.1774 -1.1155
 6006TIP3   OH242212   1.233   2.327   2.747  0.3334 -0.1264  0.0392
 6006TIP3    H142213   1.174   2.303   2.819  0.5934 -1.5760 -0.1890
 6006TIP3    H242214   1.318   2.338   2.789  0.1618  0.6687  0.1832
 6007TIP3   OH242215   3.909   7.562   1.918  0.6255 -0.4565 -0.6146
 6007TIP3    H142216   3.914   7.588   1.826 -2.4429 -0.8479 -1.0008
 6007TIP3    H242217   3.875   7.640   1.963  3.9888  0.4586  0.7039
 6008TIP3   OH242218   3.111   1.310   0.515  0.1605 -0.0447  0.1674
 6008TIP3    H142219   3.076   1.259   0.442  0.1816  1.2279 -0.7586
 6008TIP3    H242220   3.201   1.330   0.490 -0.0865  1.1036  0.1380
 6009TIP3   OH242221   0.848   2.230   1.795  0.0108 -0.4147  0.6444
 6009TIP3    H142222   0.776   2.187   1.748  0.6575 -0.3230 -0.4695
 6009TIP3    H242223   0.903   2.158   1.825 -0.5009 -0.4829  1.4583
 6010TIP3   OH242224   4.703   6.854   1.670 -0.0933 -0.1698  0.3027
 6010TIP3    H142225   4.636   6.912   1.635  0.2757  0.4904  0.6655
 6010TIP3    H242226   4.755   6.829   1.593 -0.1296  0.1454  0.1754
 6011TIP3   OH242227   3.120   5.619   0.960  0.2505  0.0333 -0.0771
 6011TIP3    H142228   3.098   5.537   1.003  1.4949 -1.0504 -1.4178
 6011TIP3    H242229   3.214   5.629   0.976  0.1914  1.0018 -0.2712
 6012TIP3   OH242230   5.236   4.637   1.379 -0.1519 -0.2908 -0.3302
 6012TIP3    H142231   5.315   4.668   1.424  0.0450 -0.2483 -0.7036
 6012TIP3    H242232   5.198   4.716   1.340 -1.5011  0.0626  1.5389
 6013TIP3   OH242233   2.255   5.027   2.326 -0.2110  0.1142 -0.2691
 6013TIP3    H142234   2.186   4.975   2.285 -1.6061 -0.0181  2.0901
 6013TIP3    H242235   2.248   5.113   2.285 -1.9942  0.1857  0.1282
 6014TIP3   OH242236   2.897   1.803   1.064 -0.0133 -0.1659  0.0988
 6014TIP3    H142237   2.843   1.764   0.996 -0.5303 -0.2131  0.5238
 6014TIP3    H242238   2.838   1.861   1.112 -0.0801 -1.2953  1.4687
 6015TIP3   OH242239   0.297   3.028   1.727  0.2001  0.2658 -0.0828
 6015TIP3    H142240   0.265   3.076   1.804 -0.2340 -1.2214  0.6994
 6015TIP3    H242241   0.383   2.995   1.753  0.0123 -0.3204 -0.1941
 6016TIP3   OH242242   3.537   2.018   2.984  0.0249  0.0921  0.0932
 6016TIP3    H142243   3.608   2.058   2.935  0.1553  0.0176  0.2190
 6016TIP3    H242244   3.566   1.927   2.997 -0.2641 -0.0448 -0.1879
 6017TIP3   OH242245   2.492   0.282   1.608  0.2810  0.0876 -0.1721
 6017TIP3    H142246   2.457   0.346   1.546 -0.6482 -0.1527  0.0935
 6017TIP3    H242247   2.440   0.203   1.593  0.8393 -0.3357  0.1038
 6018TIP3   OH242248   3.375   1.337   0.569  0.0990 -0.1485  0.6731
 6018TIP3    H142249   3.431   1.294   0.634  0.3546 -1.0325 -0.1045
 6018TIP3    H242250   3.421   1.419   0.548 -0.2690  0.4201  1.9962
 6019TIP3   OH242251   1.806   6.543   0.761 -0.4213 -0.5092 -0.9023
 6019TIP3    H142252   1.814   6.450   0.739  1.9183 -0.4266 -0.5816
 6019TIP3    H242253   1.878   6.585   0.716  0.2640  0.7196  1.1970
 6020TIP3   OH242254   1.006   1.616   1.838 -0.4541  0.4997  0.1344
 6020TIP3    H142255   0.946   1.548   1.807  0.9037 -0.0537 -1.4397
 6020TIP3    H242256   1.053   1.575   1.910  0.7049 -0.4605 -1.1241
 6021TIP3   OH242257   0.719   2.249   3.535  0.4475  0.6564 -0.0734
 6021TIP3    H142258   0.727   2.329   3.484 -0.0780  1.0005  0.3706
 6021TIP3    H242259   0.676   2.276   3.616  1.7035  0.2101  0.7808
 6022TIP3   OH242260   2.399   2.123   2.886  0.2197 -0.1271 -0.3899
 6022TIP3    H142261   2.405   2.067   2.964  1.5272 -1.1269 -1.1726
 6022TIP3    H242262   2.336   2.079   2.829  0.7670 -0.4669 -0.7361
 6023TIP3   OH242263   0.875   1.207   1.338  0.0828  0.4232 -0.2079
 6023TIP3    H142264   0.851   1.188   1.429  0.4842  1.3830  0.1053
 6023TIP3    H242265   0.956   1.159   1.324  0.4642  0.9349  0.2082
 6024TIP3   OH242266   3.234   5.264   0.742  0.6485  0.6524 -0.1892
 6024TIP3    H142267   3.213   5.211   0.819 -0.0150  1.3947  0.1615
 6024TIP3    H242268   3.184   5.223   0.671 -0.7051  1.3972  0.2942
 6025TIP3   OH242269   4.716   0.247   0.566 -0.1715 -0.1780 -0.0339
 6025TIP3    H142270   4.728   0.338   0.591  0.5645 -0.2962  0.0561
 6025TIP3    H242271   4.798   0.222   0.523 -0.5988 -0.6169 -0.6137
 6026TIP3   OH242272   4.854   6.216   2.320  0.2298 -0.6692  1.1181
 6026TIP3    H142273   4.855   6.309   2.295 -0.2234 -1.0710 -0.5151
 6026TIP3    H242274   4.946   6.195   2.336  0.3720 -0.0190  1.2015
 6027TIP3   OH242275   3.933   5.398   2.844  0.1297 -0.2387  0.2735
 6027TIP3    H142276   3.876   5.327   2.875  0.4064 -0.9726 -0.8212
 6027TIP3    H242277   3.998   5.408   2.914 -0.8075 -0.0102  1.1250
 6028TIP3   OH242278   0.246   4.770   0.937 -0.4194 -0.1512 -0.0857
 6028TIP3    H142279   0.202   4.796   1.018 -0.7430 -0.7083 -0.0794
 6028TIP3    H242280   0.231   4.843   0.878 -0.6844  0.0040  0.1704
 6029TIP3   OH242281   4.663   1.024   2.504 -0.0124 -0.3929  0.1694
 6029TIP3    H142282   4.655   0.983   2.590 -0.0379 -0.2440  0.2393
 6029TIP3    H242283   4.757   1.036   2.493  0.0005 -0.5506  0.1111
 6030TIP3   OH242284   6.893   6.054   2.368 -0.0801  0.5384 -0.1637
 6030TIP3    H142285   6.940   6.105   2.434 -0.3769  0.2060  0.3139
 6030TIP3    H242286   6.856   5.981   2.417  0.0639  0.0428 -0.7773
 6031TIP3   OH242287   5.465   1.894   1.256  0.8441 -0.2264 -0.0745
 6031TIP3    H142288   5.460   1.975   1.204  0.3577 -0.0622  0.2165
 6031TIP3    H242289   5.440   1.825   1.195 -1.8411  0.1954  0.4361
 6032TIP3   OH242290   1.611   5.077   3.193  0.1638 -0.0399 -0.2324
 6032TIP3    H142291   1.548   5.146   3.171 -0.4395 -0.6139 -0.3303
 6032TIP3    H242292   1.620   5.083   3.288 -0.1294 -0.0300 -0.2028
 6033TIP3   OH242293   2.525   6.211   3.030 -0.8342  0.0369  0.0404
 6033TIP3    H142294   2.573   6.132   3.053  0.4921  1.0373  0.8065
 6033TIP3    H242295   2.530   6.214   2.934  2.8022  1.3440  0.1238
 6034TIP3   OH242296   5.805   6.729   0.386 -0.2873 -0.1641  0.3522
 6034TIP3    H142297   5.805   6.680   0.304 -0.5023 -1.3238  1.0250
 6034TIP3    H242298   5.716   6.718   0.421 -0.0583 -0.0940  0.9757
 6035TIP3   OH242299   3.436   6.684   2.281 -0.2346 -0.8776 -0.1308
 6035TIP3    H142300   3.513   6.728   2.316 -0.4877  0.7643 -1.4802
 6035TIP3    H242301   3.462   6.593   2.270  1.4992 -0.3664 -0.4754
 6036TIP3   OH242302   3.054   4.651   0.648  0.4703 -0.2424  0.2508
 6036TIP3    H142303   2.972   4.619   0.685 -0.3391  1.3770 -0.0699
 6036TIP3    H242304   3.091   4.574   0.604 -1.1869 -0.8690 -0.1447
 6037TIP3   OH242305   3.385   3.560   1.771 -0.3592  0.1084 -0.1180
 6037TIP3    H142306   3.400   3.469   1.746  0.7625 -0.0140  0.9024
 6037TIP3    H242307   3.292   3.574   1.758 -0.9102 -1.7503  1.4317
 6038TIP3   OH242308   1.388   2.901   3.318 -0.3429  0.1807  0.4867
 6038TIP3    H142309   1.473   2.895   3.363  1.0717  2.0067 -1.6951
 6038TIP3    H242310   1.330   2.943   3.381  1.9747  4.0914  0.2806
 6039TIP3   OH242311   6.466   4.053   3.259  0.5524  0.0100  0.3442
 6039TIP3    H142312   6.401   4.108   3.303  0.2070  0.3224 -0.5294
 6039TIP3    H242313   6.423   4.027   3.177  0.9030 -1.1529  0.5192
 6040TIP3   OH242314   6.818   4.987   2.025  0.5261 -0.4218  0.1280
 6040TIP3    H142315   6.743   4.952   2.074  0.5060 -1.0962 -0.3762
 6040TIP3    H242316   6.887   4.998   2.091  0.3192 -0.7909  0.4097
 6041TIP3   OH242317   1.302   6.109   2.000 -0.3824  0.4090 -0.0321
 6041TIP3    H142318   1.321   6.020   2.028 -0.1356  0.0628 -1.2453
 6041TIP3    H242319   1.271   6.153   2.080 -0.0885 -0.6261  0.6765
 6042TIP3   OH242320   0.599   4.964   3.630 -0.2345 -0.2252  0.0793
 6042TIP3    H142321   0.562   4.994   3.547 -0.8173 -0.3930  0.2676
 6042TIP3    H242322   0.676   4.913   3.605 -1.4477 -1.8790 -0.5230
 6043TIP3   OH242323   7.149   1.732   1.658 -0.5295 -0.5083  0.5140
 6043TIP3    H142324   7.064   1.735   1.615 -0.0699  0.0138 -0.4079
 6043TIP3    H242325   7.211   1.722   1.585  0.3143  0.8913  1.0039
 6044TIP3   OH242326   4.015   4.372   1.381  0.2136  0.0273  0.0518
 6044TIP3    H142327   4.029   4.283   1.412  4.6043  0.5549  0.2889
 6044TIP3    H242328   3.950   4.364   1.312 -0.4743 -3.1301  0.9152
 6045TIP3   OH242329   0.588   7.044   2.717  0.1472  0.0659  0.1913
 6045TIP3    H142330   0.538   7.105   2.664  0.8188 -0.5201 -1.1546
 6045TIP3    H242331   0.528   7.019   2.787 -0.2349  2.0187  0.6200
 6046TIP3   OH242332   6.239   1.527   2.164  0.8042  0.1718 -0.4556
 6046TIP3    H142333   6.270   1.481   2.087 -0.0955 -1.8563  0.3241
 6046TIP3    H242334   6.318   1.548   2.214  1.1714 -3.1545  0.5578
 6047TIP3   OH242335   6.819   5.551   2.137 -0.5779 -0.6867 -0.5664
 6047TIP3    H142336   6.851   5.625   2.084 -0.1384 -0.5624 -0.1291
 6047TIP3    H242337   6.831   5.579   2.227 -0.2807 -1.3539 -0.3992
 6048TIP3   OH242338   5.261   2.809   2.343 -0.1756  0.2648  0.9838
 6048TIP3    H142339   5.309   2.727   2.339 -1.6241 -0.5631 -1.5182
 6048TIP3    H242340   5.186   2.791   2.399 -1.0128 -0.4629 -0.3363
 6049TIP3   OH242341   7.216   5.762   1.425  0.0844 -0.1010  0.3692
 6049TIP3    H142342   7.183   5.852   1.433  0.8574  0.0907  1.6991
 6049TIP3    H242343   7.311   5.772   1.428  0.3097 -0.7506 -2.2045
 6050TIP3   OH242344   7.565   5.508   1.419 -0.5373  0.1327  0.3572
 6050TIP3    H142345   7.488   5.470   1.461 -0.2408  0.3243  1.0916
 6050TIP3    H242346   7.639   5.463   1.459 -0.2948 -1.6319 -1.9044
 6051TIP3   OH242347   7.306   7.057   2.952 -0.0340 -0.0101 -0.2168
 6051TIP3    H142348   7.280   6.969   2.980 -0.4747  0.4688  0.9791
 6051TIP3    H242349   7.360   7.089   3.024 -2.1577  1.7193  0.7201
 6052TIP3   OH242350   7.436   3.600   2.086 -0.5910  0.2564 -1.2007
 6052TIP3    H142351   7.356   3.615   2.035 -1.9247 -0.9197  0.4560
 6052TIP3    H242352   7.477   3.687   2.091 -1.4187  0.7706 -2.5647
 6053TIP3   OH242353   7.460   4.907   1.028  0.3779 -0.3234  0.0584
 6053TIP3    H142354   7.387   4.942   1.079 -0.2490  1.5217 -1.9253
 6053TIP3    H242355   7.429   4.821   0.998 -0.5536 -0.0227  0.1223
 6054TIP3   OH242356   4.565   1.701   1.841  0.1732 -0.4341 -0.1505
 6054TIP3    H142357   4.491   1.761   1.852  1.0697  0.6911 -0.0116
 6054TIP3    H242358   4.543   1.625   1.894 -1.3310 -0.5547 -0.8946
 6055TIP3   OH242359   1.904   2.781   0.911 -0.7394  0.1140 -0.3031
 6055TIP3    H142360   1.973   2.833   0.952 -3.0095  2.1461  1.2289
 6055TIP3    H242361   1.909   2.804   0.818  0.6188  0.2093 -0.2250
 6056TIP3   OH242362   3.801   4.416   1.636  0.5751 -0.7249  0.0008
 6056TIP3    H142363   3.852   4.463   1.702 -0.4149  0.1550  0.1542
 6056TIP3    H242364   3.856   4.417   1.558  0.4509  0.9876 -0.1031
 6057TIP3   OH242365   4.225   4.646   2.762  0.5387 -0.1035 -0.4010
 6057TIP3    H142366   4.150   4.663   2.818 -1.1653  0.9218 -2.8157
 6057TIP3    H242367   4.300   4.675   2.814 -0.6967 -0.8286  1.9581
 6058TIP3   OH242368   6.286   6.796   0.837 -0.4777  0.2256 -0.5993
 6058TIP3    H142369   6.323   6.804   0.749  0.8157 -0.0626 -0.1079
 6058TIP3    H242370   6.242   6.880   0.852  0.9702  1.0463 -0.7906
 6059TIP3   OH242371   3.895   3.666   1.511  0.0443  0.0670 -0.5757
 6059TIP3    H142372   3.913   3.758   1.527  1.9570 -0.1853 -0.9803
 6059TIP3    H242373   3.808   3.665   1.470 -0.0624  1.6559 -0.4491
 6060TIP3   OH242374   7.211   0.087   0.719 -0.1895 -0.4778 -0.0166
 6060TIP3    H142375   7.298   0.053   0.698 -0.3467 -0.3403 -0.9552
 6060TIP3    H242376   7.201   0.162   0.660  0.4621  1.7222  2.5115
 6061TIP3   OH242377   0.150   0.083   1.099 -0.4544  0.3134  0.0965
 6061TIP3    H142378   0.185  -0.005   1.110  1.3908  0.8137 -1.2279
 6061TIP3    H242379   0.148   0.097   1.004  0.3881  2.0776  0.2920
 6062TIP3   OH242380   3.525   6.553   1.453 -0.3504 -0.3845 -0.1902
 6062TIP3    H142381   3.465   6.581   1.522 -0.0299  1.5428 -0.6249
 6062TIP3    H242382   3.471   6.550   1.374 -0.6166 -2.1416  0.0196
 6063TIP3   OH242383   6.452   0.808   2.765 -0.0276  0.0621 -0.1333
 6063TIP3    H142384   6.455   0.875   2.834  2.1326 -1.8340  1.8270
 6063TIP3    H242385   6.398   0.739   2.802  0.2407 -0.5178 -0.8152
 6064TIP3   OH242386   1.439   2.294   1.691 -0.1450 -0.3182  0.6595
 6064TIP3    H142387   1.477   2.220   1.645  0.3672  1.1100 -1.3462
 6064TIP3    H242388   1.402   2.256   1.771  2.4070 -2.3154  1.0387
 6065TIP3   OH242389   7.512   4.229   0.679 -0.0446  0.2818  0.5740
 6065TIP3    H142390   7.593   4.274   0.701  0.7755 -1.0576  0.3908
 6065TIP3    H242391   7.444   4.275   0.729  0.8746  1.1615  1.0433
 6066TIP3   OH242392   6.157   6.506   0.502 -0.3505  0.7949 -0.0046
 6066TIP3    H142393   6.220   6.442   0.533  1.5857  2.4528 -0.3260
 6066TIP3    H242394   6.094   6.516   0.574 -0.2227 -0.8122  0.3578
 6067TIP3   OH242395   6.451   6.915   1.796  0.8385 -0.6823  0.3159
 6067TIP3    H142396   6.358   6.909   1.776  0.2461 -1.2519  2.9440
 6067TIP3    H242397   6.487   6.831   1.767  0.1413 -1.2452  1.0396
 6068TIP3   OH242398   3.348   3.419   2.037 -0.2598 -0.8468 -0.4434
 6068TIP3    H142399   3.375   3.331   2.011 -0.8444 -1.6201  1.3864
 6068TIP3    H242400   3.308   3.455   1.958 -0.3377 -2.3554 -1.1444
 6069TIP3   OH242401   6.149   2.180   1.830 -0.4464 -0.3035  0.1173
 6069TIP3    H142402   6.176   2.244   1.765  1.1086 -0.1799  0.8490
 6069TIP3    H242403   6.230   2.150   1.871 -1.1463 -2.3893  0.1384
 6070TIP3   OH242404   1.847   6.649   2.422 -0.8738  0.9046 -0.3470
 6070TIP3    H142405   1.792   6.723   2.397 -2.2248 -0.0652 -0.3947
 6070TIP3    H242406   1.804   6.613   2.500  0.1383  0.5690  0.0683
 6071TIP3   OH242407   0.333   4.160   1.458  0.1428 -0.6077  0.3679
 6071TIP3    H142408   0.313   4.117   1.541  1.0345 -0.3263  0.7418
 6071TIP3    H242409   0.249   4.163   1.411 -0.0774 -2.0786  0.6409
 6072TIP3   OH242410   6.061   3.835   1.315  0.1670  0.0710 -0.1380
 6072TIP3    H142411   6.081   3.905   1.253  2.0936 -0.0706  0.2657
 6072TIP3    H242412   6.042   3.759   1.259  1.7152 -0.0123 -0.5858
 6073TIP3   OH242413   3.986   0.117   1.442 -0.1992  0.2532 -0.1783
 6073TIP3    H142414   3.987   0.142   1.349 -1.4204 -0.5925 -0.4463
 6073TIP3    H242415   3.979   0.200   1.489 -1.2463  0.6233 -0.9297
 6074TIP3   OH242416   3.789   6.026   1.782  0.6152  0.5228 -0.2925
 6074TIP3    H142417   3.733   6.103   1.769  0.6574  0.2086 -2.9200
 6074TIP3    H242418   3.864   6.059   1.831  0.0097  1.8522 -0.1950
 6075TIP3   OH242419   5.054   0.509   0.907 -0.3815  0.1906 -0.3211
 6075TIP3    H142420   5.069   0.478   0.817  0.5060 -0.5207  0.0637
 6075TIP3    H242421   5.072   0.434   0.962  1.7900  1.3372  0.6391
 6076TIP3   OH242422   3.823   2.862   1.031  0.2469  0.1010 -0.3794
 6076TIP3    H142423   3.773   2.913   0.968  0.2429 -1.1424 -1.4363
 6076TIP3    H242424   3.888   2.815   0.977 -1.5122 -3.1330  0.0936
 6077TIP3   OH242425   4.758   0.002   1.800  0.1638  0.1990  0.2428
 6077TIP3    H142426   4.830   0.012   1.738 -1.1485 -0.1861 -1.4164
 6077TIP3    H242427   4.783  -0.072   1.855 -0.0129 -1.6348 -1.9633
 6078TIP3   OH242428   3.322   2.779   1.727  0.2313  0.3432  0.3543
 6078TIP3    H142429   3.244   2.835   1.724  0.1970  0.3282  0.8366
 6078TIP3    H242430   3.303   2.709   1.665  0.1904  0.7559 -0.1055
 6079TIP3   OH242431   6.295   1.128   2.069  0.4770 -0.1044  0.7415
 6079TIP3    H142432   6.209   1.094   2.044  0.0644 -0.2555  2.2259
 6079TIP3    H242433   6.284   1.223   2.071  0.8886  0.0086 -0.8373
 6080TIP3   OH242434   5.361   4.361   0.859 -0.2811 -0.4333  0.3185
 6080TIP3    H142435   5.371   4.268   0.840 -1.5808 -0.8752  1.6209
 6080TIP3    H242436   5.443   4.387   0.901  0.4513 -0.7393 -0.8764
 6081TIP3   OH242437   4.291   3.550   0.732 -0.0060 -0.9208 -0.3053
 6081TIP3    H142438   4.278   3.645   0.720  1.8149 -0.6063 -0.0683
 6081TIP3    H242439   4.229   3.510   0.671 -0.6694  0.4243 -0.5607
 6082TIP3   OH242440   6.466   6.030   2.345 -0.4365 -0.6501  0.2854
 6082TIP3    H142441   6.486   6.024   2.252 -0.3834 -1.5866  0.3527
 6082TIP3    H242442   6.391   6.090   2.349  0.0728  0.0453 -0.2750
 6083TIP3   OH242443   4.282   2.558   2.656  0.4977  0.0654  0.3585
 6083TIP3    H142444   4.268   2.477   2.608  2.7398  0.2353 -0.6893
 6083TIP3    H242445   4.274   2.534   2.748  0.0180 -1.0770  0.0297
 6084TIP3   OH242446   3.081   1.346   1.779  0.2659 -0.2894 -0.4186
 6084TIP3    H142447   3.033   1.265   1.796  0.0080  0.3448  2.4641
 6084TIP3    H242448   3.013   1.412   1.765  0.4766 -0.5783 -3.3284
 6085TIP3   OH242449   6.741   2.764   1.422  0.1289 -0.2272 -0.3934
 6085TIP3    H142450   6.677   2.835   1.428  0.4915  0.0396  0.3777
 6085TIP3    H242451   6.755   2.752   1.328 -1.5813 -0.7637 -0.6184
 6086TIP3   OH242452   6.973   7.205   1.777 -0.0404  0.0776 -0.3503
 6086TIP3    H142453   7.047   7.191   1.836 -0.3932  0.8414  0.2916
 6086TIP3    H242454   6.905   7.242   1.833 -1.1419 -1.2009 -0.7934
 6087TIP3   OH242455   2.510   7.354   2.426  0.5232 -0.5862 -0.1962
 6087TIP3    H142456   2.589   7.405   2.444  0.2954 -0.4288  0.3762
 6087TIP3    H242457   2.529   7.267   2.462 -0.5416  0.1645  2.3765
 6088TIP3   OH242458   5.549   5.789   0.829  0.1909  0.1744 -0.3501
 6088TIP3    H142459   5.468   5.743   0.849  0.3050 -1.0114 -2.3959
 6088TIP3    H242460   5.523   5.880   0.817 -1.1352 -0.4030 -2.3672
 6089TIP3   OH242461   1.168   4.580   2.038  0.1486 -0.2022 -0.3580
 6089TIP3    H142462   1.081   4.554   2.069 -0.9003  0.9487 -2.1324
 6089TIP3    H242463   1.204   4.500   1.998  0.3357 -0.9319  1.1985
 6090TIP3   OH242464   0.422   5.666   1.078 -0.0508  0.1429  0.0753
 6090TIP3    H142465   0.327   5.667   1.091  0.0022 -1.4227  0.8576
 6090TIP3    H242466   0.455   5.732   1.139 -0.4307 -1.6060  2.2805
 6091TIP3   OH242467   0.386   1.584   1.120  0.0153  0.6601 -0.0911
 6091TIP3    H142468   0.440   1.661   1.101  0.0406  0.2175 -2.0368
 6091TIP3    H242469   0.378   1.539   1.036  0.1406 -1.5790  1.0261
 6092TIP3   OH242470   2.196   6.296   3.070 -0.1425 -0.6151  0.5952
 6092TIP3    H142471   2.235   6.216   3.105  1.5660  0.2920  0.8793
 6092TIP3    H242472   2.203   6.359   3.142 -0.5560  0.0769  0.0425
 6093TIP3   OH242473   2.613   7.515   2.899  0.3455  0.3479 -0.0562
 6093TIP3    H142474   2.650   7.558   2.822 -1.6959 -0.6418 -1.7002
 6093TIP3    H242475   2.632   7.575   2.972  0.5262  2.3496 -1.6647
 6094TIP3   OH242476   3.645   7.665   1.402  0.2469 -0.1251  0.2683
 6094TIP3    H142477   3.713   7.731   1.391  0.1984 -0.4133 -2.4821
 6094TIP3    H242478   3.565   7.716   1.418  0.9263  0.2322  2.8768
 6095TIP3   OH242479   0.789   1.127   2.584 -0.3351  0.1800  0.1972
 6095TIP3    H142480   0.853   1.139   2.514  0.1067  1.1264  0.7440
 6095TIP3    H242481   0.752   1.214   2.598 -2.4897 -0.4899 -0.7656
 6096TIP3   OH242482   7.104   1.707   2.726  0.1277  0.4092 -0.3610
 6096TIP3    H142483   7.191   1.673   2.746 -0.3012 -0.3521  0.2480
 6096TIP3    H242484   7.085   1.769   2.796  0.0702  0.3760 -0.3471
 6097TIP3   OH242485   1.371   4.071   2.690 -0.2267  0.0579 -0.3288
 6097TIP3    H142486   1.386   4.104   2.602 -0.9497 -0.3210 -0.6019
 6097TIP3    H242487   1.407   4.138   2.748  1.0445 -0.0889 -0.9109
 6098TIP3   OH242488   4.711   7.356   1.734 -0.5610 -0.1575 -0.5620
 6098TIP3    H142489   4.674   7.376   1.821 -2.5511 -1.1255 -1.1245
 6098TIP3    H242490   4.732   7.263   1.738 -0.3711 -0.1338 -1.0251
 6099TIP3   OH242491   0.953   6.383   2.365  0.4943 -0.2407 -0.3283
 6099TIP3    H142492   0.897   6.420   2.296  0.4202 -0.8887 -0.6313
 6099TIP3    H242493   0.906   6.305   2.394 -0.4878  1.0846  1.8956
 6100TIP3   OH242494   1.426   5.343   2.672 -0.2285 -0.0909  0.2321
 6100TIP3    H142495   1.479   5.352   2.593  0.6835 -1.5633  0.6321
 6100TIP3    H242496   1.448   5.256   2.705 -1.5222  0.0144  1.4382
 6101TIP3   OH242497   6.256   4.890   2.395  0.1928  0.0201 -0.2126
 6101TIP3    H142498   6.181   4.920   2.344 -1.2105  1.0064  2.2301
 6101TIP3    H242499   6.243   4.796   2.404 -0.9589  0.2222  0.4308
 6102TIP3   OH242500   1.573   5.623   3.021  0.0455 -0.0822  0.0056
 6102TIP3    H142501   1.657   5.607   3.064  0.0166 -0.4982 -0.0944
 6102TIP3    H242502   1.550   5.712   3.047  0.7878  0.2457 -0.4020
 6103TIP3   OH242503   4.046   7.527   1.198 -0.2884  0.1906 -0.1846
 6103TIP3    H142504   4.069   7.552   1.287  0.8682  2.3693 -1.0441
 6103TIP3    H242505   3.950   7.527   1.197 -0.3095  1.3705  0.7363
 6104TIP3   OH242506   0.601   4.913   3.221 -0.3766  0.0282  0.1179
 6104TIP3    H142507   0.600   4.856   3.298 -0.9786  0.2097  0.2506
 6104TIP3    H242508   0.526   4.971   3.233  0.7283  1.4388  0.4139
 6105TIP3   OH242509   2.495   3.478   1.015 -0.0840 -0.6622  0.0784
 6105TIP3    H142510   2.512   3.573   1.019  0.2230 -0.6223 -1.4487
 6105TIP3    H242511   2.472   3.454   1.105  0.0017  0.8287  0.5322
 6106TIP3   OH242512   6.938   5.015   1.375  0.0088 -0.5355 -0.0962
 6106TIP3    H142513   7.005   4.991   1.311  1.3442  0.4310  0.8837
 6106TIP3    H242514   6.930   5.110   1.367 -0.6055 -0.5340  0.4314
 6107TIP3   OH242515   5.494   5.107   1.245 -0.1586  0.0830  0.0845
 6107TIP3    H142516   5.527   5.017   1.248  1.3713  0.6307  0.9191
 6107TIP3    H242517   5.448   5.119   1.328  0.3071  0.2829  0.3229
 6108TIP3   OH242518   1.391   1.558   0.532  0.0340 -0.1221  0.3648
 6108TIP3    H142519   1.409   1.642   0.490  1.2442 -0.4237  0.2575
 6108TIP3    H242520   1.462   1.501   0.504 -2.0521 -1.9496 -1.5729
 6109TIP3   OH242521   7.159   3.945   2.018 -0.3562 -0.3614 -0.5388
 6109TIP3    H142522   7.115   3.944   1.933  0.1339  0.4010 -0.8080
 6109TIP3    H242523   7.115   4.016   2.066 -0.1083 -0.2753 -0.4394
 6110TIP3   OH242524   3.876   4.668   1.179  0.1758  0.0299 -0.1070
 6110TIP3    H142525   3.874   4.673   1.083  0.3577  1.7673 -0.0480
 6110TIP3    H242526   3.955   4.716   1.204  0.1769 -0.4763  0.9208
 6111TIP3   OH242527   6.472   6.000   1.061 -0.8680 -0.1780 -0.1279
 6111TIP3    H142528   6.424   6.073   1.023  0.2401 -0.5784 -2.4195
 6111TIP3    H242529   6.547   5.988   1.004  0.5536 -1.2803  1.8532
 6112TIP3   OH242530   0.925   7.614   0.773  0.0824  0.1228  0.0757
 6112TIP3    H142531   0.913   7.633   0.866 -0.6378 -0.2720  0.0674
 6112TIP3    H242532   0.975   7.532   0.772  2.8296  1.6908  0.1088
 6113TIP3   OH242533   6.093   1.195   2.943  0.4091  0.2951  0.2941
 6113TIP3    H142534   6.013   1.155   2.908  0.6272 -0.7102  0.9033
 6113TIP3    H242535   6.076   1.289   2.941 -1.2171  0.0533  1.4181
 6114TIP3   OH242536   0.864   5.433   2.186  0.1548 -0.0729 -0.0187
 6114TIP3    H142537   0.831   5.390   2.265  0.1342  1.1164  0.6400
 6114TIP3    H242538   0.948   5.470   2.212  0.4841 -0.2827 -0.7674
 6115TIP3   OH242539   2.685   6.748   0.565 -0.2167  0.0840 -0.0187
 6115TIP3    H142540   2.623   6.688   0.523 -1.1444  1.0691 -0.1109
 6115TIP3    H242541   2.762   6.694   0.583 -0.8546 -1.0252 -0.4792
 6116TIP3   OH242542   0.163   2.277   0.725 -0.1400 -0.0209  0.0135
 6116TIP3    H142543   0.108   2.339   0.676  0.5351  1.3451  0.9174
 6116TIP3    H242544   0.105   2.205   0.746 -1.1186  0.5709 -0.5804
 6117TIP3   OH242545   3.182   6.051   1.849  0.0251  0.2835 -0.0164
 6117TIP3    H142546   3.142   5.983   1.795 -1.1832  1.3254 -0.4895
 6117TIP3    H242547   3.171   6.019   1.939  1.5585 -1.1995 -0.3014
 6118TIP3   OH242548   4.258   5.333   1.510  0.0646  0.2967 -0.4127
 6118TIP3    H142549   4.205   5.406   1.542 -1.4909 -1.5215  1.4594
 6118TIP3    H242550   4.321   5.315   1.580 -1.8454 -2.2415  0.8312
 6119TIP3   OH242551   7.045   7.257   3.022  0.1835  0.2934 -0.2232
 6119TIP3    H142552   7.063   7.169   3.055 -1.5560 -0.0621 -0.1025
 6119TIP3    H242553   6.977   7.244   2.955  0.3805  1.4838 -0.6821
 6120TIP3   OH242554   2.417   3.940   0.840  0.0980  0.1094  0.5799
 6120TIP3    H142555   2.325   3.955   0.819  0.2205 -0.4591 -0.4257
 6120TIP3    H242556   2.443   4.018   0.889 -1.2562 -0.3255  2.0514
 6121TIP3   OH242557   1.237   3.312   2.063 -0.3021  0.7117  0.1145
 6121TIP3    H142558   1.166   3.248   2.065  0.6708 -0.4240 -0.3643
 6121TIP3    H242559   1.242   3.345   2.153 -1.5155  0.9355  0.1181
 6122TIP3   OH242560   6.778   0.856   1.715 -0.3409 -0.5111 -0.2325
 6122TIP3    H142561   6.827   0.833   1.636  1.6483  0.7579  0.5524
 6122TIP3    H242562   6.728   0.934   1.690  0.2190 -0.1602 -0.2706
 6123TIP3   OH242563   2.786   4.495   1.512  0.4390 -0.0320 -0.4552
 6123TIP3    H142564   2.843   4.419   1.520 -0.4263 -0.6744 -0.3029
 6123TIP3    H242565   2.821   4.558   1.576  1.0115 -0.3846 -0.4174
 6124TIP3   OH242566   3.784   2.897   2.204  0.7250  0.0844  0.0356
 6124TIP3    H142567   3.860   2.949   2.182  1.5967 -1.6781 -1.3502
 6124TIP3    H242568   3.747   2.940   2.281  2.4513  1.6179  0.0681
 6125TIP3   OH242569   0.894   3.792   2.179  0.0843  0.7006 -0.2208
 6125TIP3    H142570   0.936   3.869   2.218 -1.9339  1.1175  1.3299
 6125TIP3    H242571   0.965   3.730   2.165  1.1385  0.6075  4.0933
 6126TIP3   OH242572   3.357   5.788   2.787  0.6196  0.5744 -0.2787
 6126TIP3    H142573   3.279   5.840   2.806 -0.3574 -1.1314  0.5582
 6126TIP3    H242574   3.423   5.820   2.849 -0.7254 -0.8208  2.0101
 6127TIP3   OH242575   3.587   5.562   2.448 -0.2138  0.3447  0.2415
 6127TIP3    H142576   3.525   5.556   2.521  1.2434 -1.6408  1.4193
 6127TIP3    H242577   3.670   5.584   2.490  0.8534 -1.7409 -0.6560
 6128TIP3   OH242578   7.217   3.212   2.516 -0.4188 -0.0029 -0.3690
 6128TIP3    H142579   7.175   3.240   2.435  0.8918  0.7459 -0.8132
 6128TIP3    H242580   7.148   3.167   2.564 -1.9416  1.8240 -0.7399
 6129TIP3   OH242581   6.071   5.761   2.413  0.6046 -0.2120 -0.4101
 6129TIP3    H142582   6.000   5.721   2.362  0.0377  0.0658  0.1504
 6129TIP3    H242583   6.028   5.827   2.467  1.3379  0.1707 -0.2858
 6130TIP3   OH242584   2.792   0.225   2.093  0.2765  0.1016 -0.1551
 6130TIP3    H142585   2.880   0.192   2.115 -0.3473 -1.4040  0.1907
 6130TIP3    H242586   2.738   0.146   2.088 -0.8456  0.9137 -1.4291
 6131TIP3   OH242587   5.819   6.539   1.670 -0.4193 -0.2409 -0.0894
 6131TIP3    H142588   5.787   6.628   1.655  0.7247  0.1352 -0.3771
 6131TIP3    H242589   5.812   6.496   1.585 -1.1545 -0.4970  0.0934
 6132TIP3   OH242590   3.688   0.900   1.098  0.6316  0.4353 -0.1816
 6132TIP3    H142591   3.604   0.905   1.143 -0.9236  0.8765 -2.9311
 6132TIP3    H242592   3.717   0.809   1.111 -1.1315 -0.2172 -0.5783
 6133TIP3   OH242593   2.859   3.522   2.582 -0.4707  0.5441 -0.1724
 6133TIP3    H142594   2.802   3.449   2.604  0.1730 -0.5064 -1.7523
 6133TIP3    H242595   2.912   3.490   2.508  0.8926  2.0872  0.0589
 6134TIP3   OH242596   1.925   2.310   2.096 -0.2769 -0.0475 -0.1285
 6134TIP3    H142597   1.933   2.381   2.160  0.5526  0.8563 -1.1911
 6134TIP3    H242598   1.831   2.305   2.078 -0.5164 -0.2785  1.0938
 6135TIP3   OH242599   1.691   6.454   2.823  0.3688 -0.5628  0.0986
 6135TIP3    H142600   1.706   6.391   2.893  0.5391 -0.5516  0.0709
 6135TIP3    H242601   1.736   6.416   2.747 -0.7363 -1.1329 -0.2964
 6136TIP3   OH242602   7.250   7.085   1.246  0.2588  0.1236  0.4556
 6136TIP3    H142603   7.312   7.062   1.176 -0.1882  0.2386  0.0130
 6136TIP3    H242604   7.272   7.025   1.317  1.1679  0.4633  0.4725
 6137TIP3   OH242605   7.232   2.800   0.972 -0.2454  0.1801 -0.0572
 6137TIP3    H142606   7.235   2.758   1.057 -0.1697  1.7193  0.7306
 6137TIP3    H242607   7.139   2.807   0.952 -0.5404  3.1806  1.7127
 6138TIP3   OH242608   0.688   1.338   0.720 -0.0304 -0.1658 -0.9021
 6138TIP3    H142609   0.614   1.284   0.749 -0.6957  0.8888 -0.5928
 6138TIP3    H242610   0.765   1.295   0.758 -0.6388 -0.3242  0.1987
 6139TIP3   OH242611   4.899   5.833   2.916  0.5510 -0.4666 -0.3507
 6139TIP3    H142612   4.975   5.834   2.974 -0.0705 -0.9374  0.4777
 6139TIP3    H242613   4.908   5.751   2.866  0.1632 -0.9208  0.3190
 6140TIP3   OH242614   6.031   6.680   1.829  0.7537 -0.2590  0.2032
 6140TIP3    H142615   6.070   6.656   1.745  0.8180  0.2501  0.0837
 6140TIP3    H242616   5.941   6.647   1.823  0.4793  0.5641 -0.4316
 6141TIP3   OH242617   2.017   0.166   2.253  0.3235 -0.8103 -0.3487
 6141TIP3    H142618   2.008   0.162   2.348 -1.0093 -0.2042 -0.4236
 6141TIP3    H242619   2.039   0.077   2.227  3.9139 -0.4007  0.7613
 6142TIP3   OH242620   1.889   1.758   0.789  0.2046 -0.2641 -0.3156
 6142TIP3    H142621   1.886   1.849   0.758  2.0360 -0.0729 -0.0411
 6142TIP3    H242622   1.983   1.739   0.798 -0.0799 -0.7384  3.7787
 6143TIP3   OH242623   1.170   4.103   0.791 -0.3222 -0.2818  0.2771
 6143TIP3    H142624   1.241   4.157   0.756 -0.8081  1.4576  1.8574
 6143TIP3    H242625   1.117   4.081   0.714 -1.0436  2.9293 -0.2699
 6144TIP3   OH242626   2.356   4.588   1.639 -0.5406  0.6793 -0.1794
 6144TIP3    H142627   2.409   4.649   1.588 -0.7702  1.3183  0.3263
 6144TIP3    H242628   2.286   4.562   1.579  0.7415 -0.7728 -1.1095
 6145TIP3   OH242629   0.542   4.166   2.721  0.0146 -0.3281  0.2934
 6145TIP3    H142630   0.474   4.108   2.687 -0.4610  0.2632  0.2236
 6145TIP3    H242631   0.514   4.186   2.810  0.2508 -0.3111  0.3644
 6146TIP3   OH242632   5.026   4.381   3.061 -0.4543  0.2571  0.0252
 6146TIP3    H142633   5.011   4.406   2.970 -0.9439  0.1859  0.0822
 6146TIP3    H242634   5.096   4.439   3.091 -0.9663  0.9543 -0.1075
 6147TIP3   OH242635   1.792   5.534   1.590 -0.1088  0.1475  0.3583
 6147TIP3    H142636   1.834   5.606   1.544 -1.0703  1.8422  1.9928
 6147TIP3    H242637   1.825   5.539   1.680 -1.7479 -0.1113  1.0189
 6148TIP3   OH242638   5.967   7.480   1.479 -0.5306 -0.1700  0.2996
 6148TIP3    H142639   5.951   7.397   1.434 -0.7166  0.7399 -1.3786
 6148TIP3    H242640   6.059   7.477   1.503 -0.8712 -1.4700  1.6133
 6149TIP3   OH242641   0.662   1.607   1.302  0.0084 -0.1492 -0.1221
 6149TIP3    H142642   0.611   1.557   1.366  1.8931  0.6025  2.1015
 6149TIP3    H242643   0.727   1.545   1.270  1.0017  0.2385  1.0544
 6150TIP3   OH242644   4.250   0.015   1.120  0.5833  0.2619 -0.2158
 6150TIP3    H142645   4.248   0.062   1.203  0.1514 -0.0712 -0.0352
 6150TIP3    H242646   4.176  -0.045   1.124 -0.4545  1.3970 -1.5236
 6151TIP3   OH242647   3.190   7.617   1.744 -0.8812  0.1326  0.3165
 6151TIP3    H142648   3.174   7.687   1.680  0.4236  0.9703  0.8829
 6151TIP3    H242649   3.103   7.599   1.780 -1.6914 -0.4661 -1.7623
 6152TIP3   OH242650   5.782   6.682   3.023  0.1234  0.4460  0.3205
 6152TIP3    H142651   5.739   6.598   3.036 -1.0709  1.2102  1.5792
 6152TIP3    H242652   5.831   6.697   3.103  1.8019  0.1666 -0.6038
 6153TIP3   OH242653   1.434   6.157   1.747 -0.5424 -0.7637  0.1939
 6153TIP3    H142654   1.398   6.143   1.835 -1.5814  0.2985 -0.0375
 6153TIP3    H242655   1.403   6.082   1.697 -0.0690 -1.3003  0.6821
 6154TIP3   OH242656   4.011   2.293   0.691 -1.0032  0.4020  0.2058
 6154TIP3    H142657   3.917   2.275   0.690 -1.0678  0.7171 -0.8456
 6154TIP3    H242658   4.049   2.225   0.747 -1.9420  0.7685  1.3252
 6155TIP3   OH242659   7.062   2.817   1.748  0.2114  0.0758 -0.3895
 6155TIP3    H142660   6.977   2.784   1.777  0.4587 -0.0102  0.2536
 6155TIP3    H242661   7.057   2.816   1.653  1.1600 -4.3766 -0.5929
 6156TIP3   OH242662   3.913   6.228   3.197 -0.6978  0.1087 -0.1232
 6156TIP3    H142663   3.989   6.178   3.166 -0.6075  0.0684  0.1642
 6156TIP3    H242664   3.908   6.303   3.137 -0.1297  0.3790  0.1536
 6157TIP3   OH242665   6.330   1.251   0.558  0.5731  0.6170  0.5104
 6157TIP3    H142666   6.269   1.271   0.487  1.9185  0.9098 -0.5985
 6157TIP3    H242667   6.313   1.318   0.624  0.7058  1.6134 -0.4369
 6158TIP3   OH242668   0.362   6.702   2.326 -0.2045  0.3660  0.3191
 6158TIP3    H142669   0.406   6.730   2.245 -1.5706  1.3213 -0.1404
 6158TIP3    H242670   0.387   6.768   2.390  1.0205 -0.4885  0.7576
 6159TIP3   OH242671   6.136   5.673   0.671 -0.0785 -0.3297 -0.0463
 6159TIP3    H142672   6.135   5.764   0.698  0.7447 -0.3345  0.0448
 6159TIP3    H242673   6.096   5.672   0.585  0.7133  0.2557 -0.4265
 6160TIP3   OH242674   6.554   1.121   0.621  0.4026 -0.0179 -0.3320
 6160TIP3    H142675   6.500   1.192   0.585 -1.4253 -0.5421  1.2077
 6160TIP3    H242676   6.520   1.042   0.578  0.8297 -0.2224 -0.2957
 6161TIP3   OH242677   2.648   1.149   3.065 -0.2267 -0.3367 -0.0183
 6161TIP3    H142678   2.687   1.192   2.989 -0.6386 -1.6947 -1.0339
 6161TIP3    H242679   2.554   1.148   3.048 -0.2802 -1.0955  0.2445
 6162TIP3   OH242680   5.256   4.232   2.811  0.5160  0.1659 -0.2093
 6162TIP3    H142681   5.349   4.208   2.810  0.6909  0.8334 -0.6236
 6162TIP3    H242682   5.254   4.321   2.845 -0.1468 -0.4736  1.5462
 6163TIP3   OH242683   4.245   4.269   2.028  0.0520 -0.2303 -0.1952
 6163TIP3    H142684   4.265   4.359   2.054 -0.7126 -0.4930  1.4131
 6163TIP3    H242685   4.220   4.276   1.936  0.8380  1.0626 -0.3412
 6164TIP3   OH242686   4.918   6.038   1.085  0.2363  0.2810  0.0787
 6164TIP3    H142687   4.955   6.087   1.158 -0.2049  0.5265  0.1408
 6164TIP3    H242688   4.855   5.978   1.124  0.9632 -0.5356  0.0282
 6165TIP3   OH242689   7.593   3.846   2.586  0.4380  0.5008 -0.2307
 6165TIP3    H142690   7.621   3.801   2.506  0.7871 -3.6875  1.9582
 6165TIP3    H242691   7.500   3.863   2.572  0.4833 -0.1575 -1.5506
 6166TIP3   OH242692   7.220   6.257   1.215 -0.4795 -0.4168 -0.0431
 6166TIP3    H142693   7.238   6.165   1.231  0.9720 -0.5474 -1.9535
 6166TIP3    H242694   7.260   6.303   1.289  1.6131 -1.1878 -0.6057
 6167TIP3   OH242695   2.652   5.004   2.229  0.0032 -0.1888 -0.1072
 6167TIP3    H142696   2.691   4.948   2.162  0.9616 -1.5690  1.5173
 6167TIP3    H242697   2.722   5.065   2.254  1.2540 -2.4646  2.5836
 6168TIP3   OH242698   4.525   6.559   2.375 -0.3495 -0.3425  0.0031
 6168TIP3    H142699   4.543   6.470   2.403 -0.7248 -0.5550 -0.4157
 6168TIP3    H242700   4.612   6.598   2.361 -0.1273 -0.0182  2.0486
 6169TIP3   OH242701   2.178   4.580   9.301  0.0369 -0.0823  0.4026
 6169TIP3    H142702   2.141   4.492   9.293  0.5623 -0.3576  0.9192
 6169TIP3    H242703   2.118   4.635   9.250 -0.3225 -0.7253  0.1028
 6170TIP3   OH242704   1.976   2.246   1.645  0.2933  0.4755 -0.0592
 6170TIP3    H142705   2.018   2.258   1.730 -0.7219 -1.3504  0.7389
 6170TIP3    H242706   1.893   2.293   1.653  0.2351  0.3744 -0.0729
 6171TIP3   OH242707   0.723   3.560   2.228  0.0409  0.2277 -0.2322
 6171TIP3    H142708   0.774   3.636   2.202  0.2732  1.0335  2.2879
 6171TIP3    H242709   0.632   3.591   2.229  0.1133  0.4202  0.6024
 6172TIP3   OH242710   6.579   2.739   2.090 -0.0198 -0.3950 -0.1792
 6172TIP3    H142711   6.589   2.830   2.118 -1.0208 -0.1091 -0.7056
 6172TIP3    H242712   6.576   2.744   1.994 -1.7546 -0.7733 -0.1828
 6173TIP3   OH242713   5.871   1.069   2.241  0.5205  0.0272  0.1608
 6173TIP3    H142714   5.834   1.156   2.224  2.3868  0.5945 -1.2927
 6173TIP3    H242715   5.805   1.009   2.207 -0.8156  0.8285  1.2166
 6174TIP3   OH242716   0.725   6.667   0.829  0.0374  0.0314 -0.0776
 6174TIP3    H142717   0.630   6.668   0.820  0.0697 -0.6824 -0.5749
 6174TIP3    H242718   0.740   6.652   0.923 -0.3424 -0.1192 -0.0392
 6175TIP3   OH242719   0.734   3.011   1.320  0.2306  0.2419 -0.2791
 6175TIP3    H142720   0.673   2.963   1.263 -0.3358  2.2390 -1.4654
 6175TIP3    H242721   0.820   2.979   1.295 -0.1096  0.0322 -1.2366
 6176TIP3   OH242722   4.248   6.836   2.459 -0.5706 -0.3299  0.0479
 6176TIP3    H142723   4.200   6.875   2.386 -2.5845 -1.7733  0.5059
 6176TIP3    H242724   4.321   6.790   2.418 -0.5160  0.5300 -0.8496
 6177TIP3   OH242725   1.359   1.969   1.454  0.2685 -0.6494 -0.0871
 6177TIP3    H142726   1.304   2.018   1.514 -1.5220 -0.7070 -1.5897
 6177TIP3    H242727   1.377   1.886   1.499 -0.3220 -0.3525  0.6995
 6178TIP3   OH242728   1.677   6.624   1.294  0.4955  0.0522 -0.2484
 6178TIP3    H142729   1.716   6.606   1.209 -1.5263  0.3102 -1.2805
 6178TIP3    H242730   1.710   6.711   1.318 -0.5251  0.9107 -1.7875
 6179TIP3   OH242731   0.122   1.689   0.886 -0.2784  0.4639 -0.6583
 6179TIP3    H142732   0.100   1.696   0.979  0.1733  0.7397 -0.5653
 6179TIP3    H242733   0.125   1.780   0.855 -1.3342  0.3394 -1.1732
 6180TIP3   OH242734   6.354   4.014   3.008  0.2857 -0.3140 -0.3306
 6180TIP3    H142735   6.358   3.947   2.939 -0.0648 -1.1036  0.3891
 6180TIP3    H242736   6.275   4.065   2.988  0.5509 -0.1175 -0.8815
 6181TIP3   OH242737   0.267   2.139   1.327 -0.1480  0.1215 -0.0552
 6181TIP3    H142738   0.291   2.231   1.313  0.3246  0.1341  0.7902
 6181TIP3    H242739   0.299   2.094   1.249 -0.4644  0.6883 -0.5172
 6182TIP3   OH242740   1.820   0.396   1.590 -0.2439 -0.3503  0.0469
 6182TIP3    H142741   1.745   0.444   1.625  0.5802  0.1473  1.1626
 6182TIP3    H242742   1.813   0.309   1.629 -0.0891 -0.2214  0.3600
 6183TIP3   OH242743   3.392   2.878   2.021  0.1294 -0.1592 -0.1520
 6183TIP3    H142744   3.334   2.946   2.056 -0.0598  0.4111 -1.4980
 6183TIP3    H242745   3.470   2.926   1.993  1.6397 -1.0056  2.3310
 6184TIP3   OH242746   6.099   4.644   1.316 -0.3967 -0.1497 -0.3521
 6184TIP3    H142747   6.130   4.560   1.284  0.1097  0.4467 -1.4911
 6184TIP3    H242748   6.054   4.683   1.241 -2.2913 -0.1851  0.7055
 6185TIP3   OH242749   6.925   4.381   3.160  0.7163  0.2861 -0.3450
 6185TIP3    H142750   6.967   4.386   3.074  0.7018 -0.0008 -0.3712
 6185TIP3    H242751   6.976   4.440   3.215  1.8442 -0.8652 -0.0987
 6186TIP3   OH242752   1.582   5.873   2.331  0.4617  0.8667 -0.3308
 6186TIP3    H142753   1.526   5.929   2.385  0.3051  1.3452 -0.9814
 6186TIP3    H242754   1.604   5.927   2.255  1.9258  0.7289 -0.0246
 6187TIP3   OH242755   6.377   2.255   1.266  0.3598  0.8057  0.2469
 6187TIP3    H142756   6.390   2.162   1.285 -0.6229  0.6129  0.0171
 6187TIP3    H242757   6.447   2.277   1.205  2.0040  0.7984  2.0390
 6188TIP3   OH242758   3.211   5.988   2.101  0.1749  0.1360 -0.7828
 6188TIP3    H142759   3.231   5.896   2.081 -0.7799 -0.2366 -0.0940
 6188TIP3    H242760   3.120   5.986   2.131  0.3936  1.2036 -0.0174
 6189TIP3   OH242761   3.461   2.351   1.097 -0.6076  0.4520  0.1862
 6189TIP3    H142762   3.515   2.423   1.128 -0.0245 -0.1692  0.6116
 6189TIP3    H242763   3.447   2.296   1.173  0.9034 -1.1288 -0.6142
 6190TIP3   OH242764   5.491   0.252   2.636 -0.2312 -0.3391 -0.1882
 6190TIP3    H142765   5.432   0.258   2.560  0.1385  0.5150 -0.4234
 6190TIP3    H242766   5.457   0.318   2.697  0.9442  0.7455 -0.6685
 6191TIP3   OH242767   5.585   3.475   0.771 -0.3005  0.6360 -0.2072
 6191TIP3    H142768   5.673   3.474   0.808 -0.8613 -1.2739  1.2563
 6191TIP3    H242769   5.579   3.394   0.721 -0.5471  1.7889 -2.1505
 6192TIP3   OH242770   3.450   5.183   2.788 -0.0613  0.1834  0.2797
 6192TIP3    H142771   3.447   5.099   2.833  1.0138  0.8910  1.7574
 6192TIP3    H242772   3.540   5.214   2.801 -0.5098  1.6900  0.0289
 6193TIP3   OH242773   0.736   1.020   2.209 -0.6318 -0.0315  0.4427
 6193TIP3    H142774   0.709   1.084   2.144  0.6624 -0.2601 -0.3618
 6193TIP3    H242775   0.745   0.938   2.160  1.0055 -0.0626  0.7250
 6194TIP3   OH242776   4.703   0.649   2.220 -0.3013  0.4032 -0.0130
 6194TIP3    H142777   4.639   0.704   2.176 -0.0596 -0.7341 -1.8796
 6194TIP3    H242778   4.774   0.709   2.244 -0.4136  1.0629 -1.2726
 6195TIP3   OH242779   5.253   1.016   1.653  0.3913  0.4691 -0.6090
 6195TIP3    H142780   5.325   0.970   1.611  0.4120  0.7647 -0.9076
 6195TIP3    H242781   5.189   0.948   1.675  0.7703  0.2069 -0.3223
 6196TIP3   OH242782   6.528   3.024   2.147 -0.3078 -0.0250  0.7108
 6196TIP3    H142783   6.545   3.041   2.240  0.8137  1.4576  0.2651
 6196TIP3    H242784   6.501   3.108   2.111  0.2904 -0.3338 -0.5252
 6197TIP3   OH242785   4.447   1.912   0.841 -0.2970  0.1615  0.5105
 6197TIP3    H142786   4.455   2.007   0.849 -0.7164  0.2569 -0.0837
 6197TIP3    H242787   4.424   1.898   0.749  0.4208 -0.5646  0.4354
 6198TIP3   OH242788   5.044   7.416   0.735  0.2442 -0.2582  0.2664
 6198TIP3    H142789   5.128   7.455   0.761  0.3084 -0.1001 -0.1646
 6198TIP3    H242790   5.025   7.353   0.804 -0.8658  1.9012  2.0660
 6199TIP3   OH242791   2.800   3.344   1.660 -0.1375 -0.3312 -0.2668
 6199TIP3    H142792   2.859   3.366   1.732 -0.1142 -0.0339 -0.3780
 6199TIP3    H242793   2.720   3.393   1.678  0.4567  1.1032 -1.3411
 6200TIP3   OH242794   3.748   7.346   0.813  0.3228 -0.9299 -0.0921
 6200TIP3    H142795   3.807   7.420   0.826 -1.4356  0.7931 -1.3434
 6200TIP3    H242796   3.741   7.337   0.718 -1.4421 -1.0251  0.0159
 6201TIP3   OH242797   2.944   6.877   1.379  0.0382 -0.6340 -1.0484
 6201TIP3    H142798   2.921   6.787   1.403 -0.0720 -0.2933  0.1852
 6201TIP3    H242799   3.024   6.894   1.428  0.6714 -0.4090 -2.1207
 6202TIP3   OH242800   6.892   4.654   0.743  0.0801  0.0042 -0.3256
 6202TIP3    H142801   6.869   4.609   0.662  1.4405  0.0286 -0.7514
 6202TIP3    H242802   6.927   4.586   0.799  0.4977  0.2366 -0.3035
 6203TIP3   OH242803   3.790   5.129   2.493 -0.1853 -0.1520  0.5294
 6203TIP3    H142804   3.824   5.078   2.566  0.3389 -0.0137  0.3876
 6203TIP3    H242805   3.708   5.166   2.525  0.2704  0.2836  1.2101
 6204TIP3   OH242806   0.442   6.658   0.860  0.2986  0.2635 -0.1461
 6204TIP3    H142807   0.443   6.566   0.830  0.0633  0.3074 -0.2978
 6204TIP3    H242808   0.456   6.653   0.954  0.3429  0.0742 -0.1621
 6205TIP3   OH242809   6.627   2.866   2.774  0.2980 -0.1599  0.3774
 6205TIP3    H142810   6.658   2.909   2.854 -1.1348 -0.5629  1.1872
 6205TIP3    H242811   6.626   2.936   2.708  0.0312  0.5478  1.1169
 6206TIP3   OH242812   6.300   1.435   0.754 -0.1660  0.3694 -0.5640
 6206TIP3    H142813   6.257   1.515   0.725  1.0499  1.3086  0.1106
 6206TIP3    H242814   6.353   1.462   0.828 -0.0903 -1.1737 -0.0249
 6207TIP3   OH242815   5.575   5.785   2.064  0.3084  0.1339  0.1076
 6207TIP3    H142816   5.609   5.779   1.974 -2.1945 -1.2301 -0.8624
 6207TIP3    H242817   5.542   5.697   2.082 -0.6485  0.8070  1.7768
 6208TIP3   OH242818   6.767   5.913   1.800 -0.1804  0.0391  0.4465
 6208TIP3    H142819   6.809   5.835   1.838  2.3736 -0.0079 -2.1264
 6208TIP3    H242820   6.822   5.986   1.829 -0.3884  0.4203 -0.1155
 6209TIP3   OH242821   7.505   5.749   1.515  0.6445  0.2615 -0.3055
 6209TIP3    H142822   7.546   5.678   1.467  0.2894 -1.2367  1.4887
 6209TIP3    H242823   7.549   5.749   1.600 -0.5098  1.0912  0.3303
 6210TIP3   OH242824   4.841   5.588   1.902  0.1351  0.0054 -0.2375
 6210TIP3    H142825   4.829   5.501   1.865 -0.6209 -0.1439  0.3512
 6210TIP3    H242826   4.754   5.628   1.899  0.5936  1.0168 -1.1501
 6211TIP3   OH242827   1.848   1.433   2.818 -0.0077 -0.3895 -0.2768
 6211TIP3    H142828   1.918   1.490   2.785  0.0921 -0.0654  0.4666
 6211TIP3    H242829   1.885   1.394   2.897 -0.8734  0.2499  0.4619
 6212TIP3   OH242830   4.943   7.259   0.978  0.3762  0.0059  0.3134
 6212TIP3    H142831   4.976   7.266   1.068  0.6710  0.6689  0.1633
 6212TIP3    H242832   4.861   7.308   0.979  0.8986  0.9162 -0.0154
 6213TIP3   OH242833   3.182   1.360   1.522 -0.0768  0.4810 -0.1322
 6213TIP3    H142834   3.129   1.297   1.473  1.6080  0.0699 -1.5202
 6213TIP3    H242835   3.159   1.344   1.614 -0.8120 -1.1051 -0.5508
 6214TIP3   OH242836   6.101   6.443   3.521  0.8962 -0.1492 -0.1408
 6214TIP3    H142837   6.165   6.445   3.450 -0.1165 -1.7603 -1.1967
 6214TIP3    H242838   6.090   6.534   3.547  1.3798  0.5015 -2.0293
 6215TIP3   OH242839   0.176   5.721   2.751  0.1637  0.2857 -0.3098
 6215TIP3    H142840   0.253   5.670   2.725  0.9156  0.4029  1.5074
 6215TIP3    H242841   0.116   5.656   2.788  0.2760  0.4558  0.1754
 6216TIP3   OH242842   2.527   5.801   1.040  0.6146  0.0204  0.7295
 6216TIP3    H142843   2.496   5.889   1.061  0.1725 -0.1448  0.7757
 6216TIP3    H242844   2.602   5.816   0.982  0.2958  0.4194  0.4114
 6217TIP3   OH242845   2.678   7.644   2.685  0.0892  0.7059  0.1992
 6217TIP3    H142846   2.630   7.710   2.634 -2.6112 -0.9601  0.3724
 6217TIP3    H242847   2.711   7.582   2.620  0.0928  0.7003  0.2067
 6218TIP3   OH242848   7.556   2.674   2.177  1.0410 -0.2774  0.3922
 6218TIP3    H142849   7.541   2.673   2.082 -0.7506  2.2434  0.5719
 6218TIP3    H242850   7.507   2.598   2.209  2.8729 -2.0627 -0.7526
 6219TIP3   OH242851   0.242   2.950   3.297 -0.0804 -0.3051 -0.7342
 6219TIP3    H142852   0.313   2.952   3.232 -0.3573 -0.6156 -1.0495
 6219TIP3    H242853   0.166   2.918   3.248 -0.2571 -0.6857 -0.2175
 6220TIP3   OH242854   0.691   3.428   3.162 -0.3312  0.3131  0.0378
 6220TIP3    H142855   0.613   3.377   3.185 -0.0909 -0.6935 -1.2568
 6220TIP3    H242856   0.764   3.373   3.190 -0.0670 -0.0147 -1.2410
 6221TIP3   OH242857   3.234   3.552   1.397 -0.1328  0.1313 -0.5891
 6221TIP3    H142858   3.197   3.584   1.314 -2.4856  1.2509  0.7879
 6221TIP3    H242859   3.222   3.457   1.393  0.1604  0.1214 -1.6769
 6222TIP3   OH242860   3.376   7.477   2.271 -0.1674 -0.1299 -0.1113
 6222TIP3    H142861   3.282   7.481   2.253 -0.5874  0.6871  1.9356
 6222TIP3    H242862   3.382   7.421   2.349  1.0598 -0.1641 -0.2186
 6223TIP3   OH242863   3.491   5.261   2.537 -0.0317 -0.0917  0.9472
 6223TIP3    H142864   3.467   5.209   2.614 -1.0424 -0.8630  0.1505
 6223TIP3    H242865   3.456   5.348   2.555 -0.3132 -0.2833  1.3470
 6224TIP3   OH242866   3.569   2.904   1.698 -0.0870  0.3359  0.1965
 6224TIP3    H142867   3.484   2.862   1.711 -0.3259  0.7653  0.0378
 6224TIP3    H242868   3.590   2.943   1.783 -0.0877  0.3042  0.2112
 6225TIP3   OH242869   1.416   4.688   3.143 -0.4895  0.0574 -0.4321
 6225TIP3    H142870   1.378   4.772   3.167  1.5799  0.7211  0.8237
 6225TIP3    H242871   1.488   4.710   3.084  0.5575 -0.7160  0.5104
 6226TIP3   OH242872   0.480   5.291   2.027 -0.5109 -0.2654  0.6887
 6226TIP3    H142873   0.438   5.252   1.949 -0.4419 -1.0743  1.0473
 6226TIP3    H242874   0.548   5.348   1.991 -0.7997 -0.2502  0.1430
 6227TIP3   OH242875   4.555   7.102   0.864 -0.1950  0.5206  0.1744
 6227TIP3    H142876   4.632   7.104   0.922 -1.0362 -2.8573  1.6298
 6227TIP3    H242877   4.514   7.188   0.877  2.0809  1.5683  1.0756
 6228TIP3   OH242878   6.305   5.873   1.810 -0.6035  0.6823 -0.2920
 6228TIP3    H142879   6.279   5.964   1.794 -0.3403  0.8546  0.2336
 6228TIP3    H242880   6.379   5.859   1.751 -0.6933  0.7816 -0.4306
 6229TIP3   OH242881   2.477   2.601   3.522  0.3082  0.8223  0.1026
 6229TIP3    H142882   2.561   2.615   3.478 -0.0307  1.1596 -0.4450
 6229TIP3    H242883   2.414   2.649   3.469 -0.5753 -1.1503 -0.7194
 6230TIP3   OH242884   4.042   2.500   1.584 -0.0274  0.1638  0.0832
 6230TIP3    H142885   4.009   2.547   1.508  0.2277 -2.1856 -1.6005
 6230TIP3    H242886   4.136   2.521   1.587  0.3528 -1.1063 -1.4358
 6231TIP3   OH242887   2.477   3.038   0.870 -0.2390  0.0819 -0.0087
 6231TIP3    H142888   2.473   3.009   0.961 -1.1778  0.7301  0.1690
 6231TIP3    H242889   2.435   2.967   0.820 -1.6485  0.6584  0.3138
 6232TIP3   OH242890   5.936   6.842   2.361 -0.1092 -0.1212 -0.3865
 6232TIP3    H142891   6.013   6.893   2.386  1.4490 -1.7250 -1.6333
 6232TIP3    H242892   5.863   6.905   2.365  1.5981  2.0603 -1.3318
 6233TIP3   OH242893   0.030   0.317   0.651  0.7772  0.6905  0.2310
 6233TIP3    H142894  -0.024   0.395   0.666  1.2510  1.5528 -2.2071
 6233TIP3    H242895  -0.029   0.243   0.668 -0.7521  1.5984 -0.9258
 6234TIP3   OH242896   7.296   5.392   1.192  0.4315 -0.0712 -0.3903
 6234TIP3    H142897   7.277   5.472   1.143 -1.2468 -0.3640 -0.2794
 6234TIP3    H242898   7.291   5.322   1.126  2.2267 -0.1025 -0.5564
 6235TIP3   OH242899   1.957   0.726   0.878 -0.0724  0.1756 -0.1928
 6235TIP3    H142900   1.897   0.671   0.826  0.2762  0.0379 -0.4536
 6235TIP3    H242901   1.930   0.711   0.969 -0.5777  0.2862 -0.3209
 6236TIP3   OH242902   2.384   4.884   3.254 -0.1426 -0.2090  1.0849
 6236TIP3    H142903   2.361   4.954   3.192 -0.0035  0.0191  1.2919
 6236TIP3    H242904   2.315   4.819   3.242  1.3750 -1.5239 -1.4024
 6237TIP3   OH242905   2.694   7.531   1.943 -0.0915 -0.2144 -0.1805
 6237TIP3    H142906   2.678   7.618   1.906  2.5099  0.7764  0.7703
 6237TIP3    H242907   2.617   7.513   1.996 -1.6746  0.5000 -2.1363
 6238TIP3   OH242908   5.386   1.892   2.253  0.3348 -0.3819 -0.6525
 6238TIP3    H142909   5.465   1.910   2.202 -0.0622  0.0306 -1.1301
 6238TIP3    H242910   5.362   1.976   2.291 -2.1317  0.5351 -3.7483
 6239TIP3   OH242911   3.912   3.993   2.935 -0.4041 -0.3556  0.2966
 6239TIP3    H142912   3.923   3.920   2.875 -1.5172 -0.4370  0.1713
 6239TIP3    H242913   3.817   3.997   2.951 -0.2257  0.2660  1.2829
 6240TIP3   OH242914   6.046   7.271   2.307  0.3075  0.1952 -0.0025
 6240TIP3    H142915   5.965   7.238   2.346 -0.9952  1.6027 -1.3254
 6240TIP3    H242916   6.109   7.273   2.379 -1.1404  0.0477  1.3270
 6241TIP3   OH242917   1.720   4.653   2.468 -0.2735 -0.1688  0.5371
 6241TIP3    H142918   1.769   4.616   2.541  0.6680 -0.7908 -0.3803
 6241TIP3    H242919   1.652   4.588   2.450  0.2834 -0.6276  0.0573
 6242TIP3   OH242920   1.207   2.293   1.072 -0.1943  0.2803  0.0949
 6242TIP3    H142921   1.223   2.241   1.150 -0.6138  0.3896  0.2554
 6242TIP3    H242922   1.254   2.247   1.002  2.3135  1.5454  0.8536
 6243TIP3   OH242923   3.090   2.579   1.574  0.2618  0.6656 -0.4149
 6243TIP3    H142924   3.029   2.640   1.533  0.3982  0.5470 -0.8047
 6243TIP3    H242925   3.037   2.527   1.633 -0.0067  0.5903 -0.7225
 6244TIP3   OH242926   2.138   1.311   1.432  0.0794  0.0122 -0.0914
 6244TIP3    H142927   2.081   1.265   1.370  0.0735 -1.2072  0.7941
 6244TIP3    H242928   2.118   1.404   1.418 -0.3004 -0.2586 -1.5378
 6245TIP3   OH242929   4.355   6.379   1.795 -0.1911 -0.1904  0.0458
 6245TIP3    H142930   4.411   6.409   1.723 -1.4255  0.3767 -0.7354
 6245TIP3    H242931   4.291   6.323   1.752 -1.7076  1.1438  0.4551
 6246TIP3   OH242932   4.820   3.454   0.484  0.3971  0.3606 -0.4341
 6246TIP3    H142933   4.856   3.536   0.450  1.2322  0.2792  0.2351
 6246TIP3    H242934   4.727   3.474   0.498  0.2917  0.7667 -1.5671
 6247TIP3   OH242935   2.510   1.199   1.963 -0.5683  0.3431 -0.1080
 6247TIP3    H142936   2.552   1.133   1.909  0.0138  1.2307 -0.7634
 6247TIP3    H242937   2.443   1.150   2.012  0.2745 -0.8300 -0.0865
 6248TIP3   OH242938   5.043   2.731   2.486  0.2891  0.9443  0.3390
 6248TIP3    H142939   4.961   2.767   2.519  1.3299  2.3141  1.5604
 6248TIP3    H242940   5.017   2.654   2.435 -1.6655  0.7755  1.5085
 6249TIP3   OH242941   4.972   2.068   1.824 -0.4987  0.5532  0.0127
 6249TIP3    H142942   5.008   2.061   1.912 -0.0472  2.9190  0.0635
 6249TIP3    H242943   4.900   2.130   1.832 -2.2311 -1.2202 -0.8254
 6250TIP3   OH242944   3.454   1.391   2.917  0.4484 -0.1023  0.3667
 6250TIP3    H142945   3.496   1.306   2.922  0.5954  0.0195  1.2437
 6250TIP3    H242946   3.385   1.389   2.983  0.9090  0.7066  0.8952
 6251TIP3   OH242947   3.549   0.179   1.096  0.5622 -0.4153 -0.4238
 6251TIP3    H142948   3.576   0.199   1.007  1.2947  0.7258  0.0290
 6251TIP3    H242949   3.483   0.110   1.087  1.3039 -0.9756 -1.7682
 6252TIP3   OH242950   6.855   5.348   3.072  0.0845  0.0911  0.1162
 6252TIP3    H142951   6.813   5.374   2.989  1.9127  1.6819 -0.3799
 6252TIP3    H242952   6.795   5.381   3.139  0.5497  2.5218 -0.5650
 6253TIP3   OH242953   4.167   6.064   3.008 -0.6414  0.4094  0.5747
 6253TIP3    H142954   4.195   6.011   2.933 -0.8043 -0.8945  1.4106
 6253TIP3    H242955   4.218   6.145   3.000 -0.1473  0.0158 -0.5486
 6254TIP3   OH242956   0.016   5.336   1.070  0.0838 -0.0799  0.4432
 6254TIP3    H142957   0.053   5.271   1.010  0.5459  0.6664 -0.1070
 6254TIP3    H242958  -0.032   5.285   1.135  1.2472 -1.0276  0.5971
 6255TIP3   OH242959   0.887   6.936   2.513 -0.2019  0.1338  0.4699
 6255TIP3    H142960   0.896   6.922   2.607 -3.0349  0.0369  0.8125
 6255TIP3    H242961   0.940   7.013   2.494  0.0404  0.4277  2.2217
 6256TIP3   OH242962   1.176   7.213   1.967 -0.1526 -0.3592 -0.2718
 6256TIP3    H142963   1.226   7.294   1.979 -1.3078  0.1782  1.1691
 6256TIP3    H242964   1.154   7.185   2.056 -1.8907 -0.8914 -0.8368
 6257TIP3   OH242965   5.829   0.648   1.913 -0.1495  0.4086  0.3705
 6257TIP3    H142966   5.801   0.557   1.904  0.9912 -0.0626  1.3597
 6257TIP3    H242967   5.925   0.644   1.914 -0.0865  1.4167  2.2612
 6258TIP3   OH242968   2.339   3.346   2.250 -0.3070 -0.5807  0.4924
 6258TIP3    H142969   2.322   3.440   2.262 -1.1603 -0.5505 -0.7325
 6258TIP3    H242970   2.335   3.309   2.338  0.1046  0.5417  0.9987
 6259TIP3   OH242971   6.200   6.966   1.647 -0.0625  0.3538  0.3517
 6259TIP3    H142972   6.116   6.936   1.612  0.1036 -0.1087  0.3451
 6259TIP3    H242973   6.180   7.050   1.688 -0.0654  1.5187 -1.8512
 6260TIP3   OH242974   2.918   0.455   2.426 -0.2096  0.3898 -0.1881
 6260TIP3    H142975   2.839   0.402   2.418  0.2503 -0.5927  1.2900
 6260TIP3    H242976   2.914   0.491   2.515  0.9334  0.4185 -0.1307
 6261TIP3   OH242977   4.845   6.748   1.448 -0.2378 -0.6388  0.5243
 6261TIP3    H142978   4.836   6.808   1.373 -0.4722 -0.0447  1.0157
 6261TIP3    H242979   4.904   6.680   1.417  1.1770  0.6045  0.3960
 6262TIP3   OH242980   6.853   3.720   1.057 -0.2868 -0.4450  0.2084
 6262TIP3    H142981   6.862   3.815   1.048  1.0902 -0.3220  2.2656
 6262TIP3    H242982   6.913   3.696   1.127 -0.9919 -2.7899  0.1177
 6263TIP3   OH242983   1.155   3.595   0.950  0.0333  0.5116 -0.3503
 6263TIP3    H142984   1.079   3.538   0.943  2.4611 -2.9910 -1.0685
 6263TIP3    H242985   1.161   3.638   0.864 -1.0746  0.7962 -0.2904
 6264TIP3   OH242986   3.345   7.032   2.991  0.4864 -0.0725 -0.3259
 6264TIP3    H142987   3.249   7.028   2.985  0.4968  0.8810 -1.3475
 6264TIP3    H242988   3.362   7.045   3.085 -0.3096 -1.4789  0.0574
 6265TIP3   OH242989   4.649   2.197   0.889  0.0688  0.4358 -0.0191
 6265TIP3    H142990   4.672   2.246   0.967  0.0672  0.6762 -0.1685
 6265TIP3    H242991   4.557   2.219   0.873  0.3545  1.1979 -0.6740
 6266TIP3   OH242992   5.143   4.877   1.707 -0.2569 -0.4137 -0.1000
 6266TIP3    H142993   5.083   4.839   1.644 -0.1663 -1.7980  0.6029
 6266TIP3    H242994   5.216   4.911   1.654 -2.2981  2.8672 -1.1459
 6267TIP3   OH242995   1.510   5.600   2.325  0.3420 -0.3153  0.1929
 6267TIP3    H142996   1.549   5.685   2.343  2.6444 -1.0823 -0.8056
 6267TIP3    H242997   1.416   5.616   2.324  0.6922  2.0434  0.7857
 6268TIP3   OH242998   2.597   3.428   0.751 -0.1529  0.2843  0.3952
 6268TIP3    H142999   2.579   3.463   0.838  0.0993  1.3923  0.0153
 6268TIP3    H243000   2.687   3.394   0.757  0.9723  2.9197 -0.1665
 6269TIP3   OH243001   5.661   6.914   3.487 -0.3384 -0.2630  0.1390
 6269TIP3    H143002   5.750   6.925   3.453 -1.1359  0.0417 -1.9996
 6269TIP3    H243003   5.670   6.928   3.581  2.0686 -1.5066  0.1635
 6270TIP3   OH243004   4.706   2.004   1.298  0.2548 -0.3610 -0.0989
 6270TIP3    H143005   4.620   1.975   1.266  0.6178 -1.6970  0.0847
 6270TIP3    H243006   4.703   1.987   1.392  0.2557  0.8343  0.1304
 6271TIP3   OH243007   1.050   0.965   1.255  0.3799  0.5760 -0.1992
 6271TIP3    H143008   1.004   0.930   1.179 -0.3376 -0.5855  0.7264
 6271TIP3    H243009   1.125   1.011   1.219  0.3445 -0.3928 -1.5775
 6272TIP3   OH243010   4.174   5.222   2.067  0.8347  0.0401  0.6693
 6272TIP3    H143011   4.192   5.129   2.071  0.9067  0.0897  1.6302
 6272TIP3    H243012   4.160   5.240   1.974  5.0183 -0.1496 -0.2315
 6273TIP3   OH243013   5.336   7.222   1.086 -0.0293 -0.2528  0.0733
 6273TIP3    H143014   5.402   7.284   1.118 -2.0774  0.9386  2.2711
 6273TIP3    H243015   5.300   7.182   1.165 -1.2700 -1.6059 -1.1199
 6274TIP3   OH243016   0.559   5.508   1.671  0.1639 -0.6847  0.2841
 6274TIP3    H143017   0.551   5.459   1.590  0.2351 -0.8486  0.3764
 6274TIP3    H243018   0.606   5.450   1.731 -2.0539 -1.5662  1.2591
 6275TIP3   OH243019   1.475   7.414   2.724 -0.3109  0.1748 -0.7288
 6275TIP3    H143020   1.568   7.396   2.709 -0.1980  0.9038 -0.9409
 6275TIP3    H243021   1.470   7.441   2.815 -0.6579 -2.0168 -0.0493
 6276TIP3   OH243022   1.982   7.491   2.640 -0.2282 -0.2737 -0.0060
 6276TIP3    H143023   1.949   7.442   2.715  0.7661  0.2414  0.7855
 6276TIP3    H243024   2.026   7.567   2.679  1.6064 -0.7635 -1.0329
 6277TIP3   OH243025   2.860   4.282   0.700 -0.1194  0.5308 -0.5825
 6277TIP3    H143026   2.933   4.241   0.654  0.9069  0.0521  1.3899
 6277TIP3    H243027   2.783   4.259   0.647  0.8684 -0.8317 -1.5026
 6278TIP3   OH243028   0.887   1.484   2.784 -0.0183 -0.0951  0.3524
 6278TIP3    H143029   0.869   1.549   2.716  0.6822 -0.2803 -0.0255
 6278TIP3    H243030   0.835   1.512   2.859  0.7607  1.2837  0.4085
 6279TIP3   OH243031   7.090   5.214   1.648  0.2210 -0.1339 -0.2351
 6279TIP3    H143032   7.055   5.279   1.588  0.1767 -0.1536 -0.2309
 6279TIP3    H243033   7.123   5.265   1.722 -1.1787 -0.1948  0.4635
 6280TIP3   OH243034   7.582   5.188   1.849  0.5630 -0.0430 -0.1907
 6280TIP3    H143035   7.619   5.276   1.855  0.2209  0.0404  0.8885
 6280TIP3    H243036   7.633   5.136   1.911 -0.2047 -0.2419  0.3003
 6281TIP3   OH243037   5.623   0.602   1.578  0.5679  0.2247  0.4122
 6281TIP3    H143038   5.533   0.574   1.561  0.8562 -1.0785  0.8973
 6281TIP3    H243039   5.633   0.683   1.528 -1.6956  1.9258  2.4791
 6282TIP3   OH243040   2.967   2.037   2.690 -0.1198  0.1127  0.2411
 6282TIP3    H143041   3.000   2.121   2.659 -0.5140 -0.0148 -0.5460
 6282TIP3    H243042   3.011   2.024   2.774 -2.3525  2.5706  1.9687
 6283TIP3   OH243043   5.836   0.232   3.190 -0.1939  0.4086 -0.1007
 6283TIP3    H143044   5.742   0.233   3.206 -0.0486  2.2800  0.8893
 6283TIP3    H243045   5.863   0.143   3.214 -1.5658  0.1239  0.5035
 6284TIP3   OH243046   2.755   4.150   2.219 -0.2151  0.1988  0.0722
 6284TIP3    H143047   2.731   4.060   2.197  0.5869  0.1962 -0.8736
 6284TIP3    H243048   2.840   4.164   2.176  0.3692  0.9428  1.4002
 6285TIP3   OH243049   1.874   7.172   0.904  0.1337  0.1574  0.3922
 6285TIP3    H143050   1.855   7.265   0.909  2.5182  0.6491  2.1055
 6285TIP3    H243051   1.871   7.141   0.994  1.3992 -0.9313  0.1099
 6286TIP3   OH243052   5.752   6.559   2.480 -0.3944  0.1215 -0.1935
 6286TIP3    H143053   5.689   6.523   2.417  0.6716  1.3686 -2.0669
 6286TIP3    H243054   5.829   6.503   2.470  0.0726  0.8269 -0.6403
 6287TIP3   OH243055   1.312   1.618   3.268  0.1629  0.2159 -0.2867
 6287TIP3    H143056   1.392   1.576   3.239  0.8205  0.6059  0.8979
 6287TIP3    H243057   1.265   1.550   3.316 -0.2066  0.0019 -0.9377
 6288TIP3   OH243058   7.366   1.969   1.245 -0.7227  0.3742 -0.0521
 6288TIP3    H143059   7.281   1.942   1.279 -0.5191 -0.7027 -0.3690
 6288TIP3    H243060   7.426   1.957   1.319 -0.9253  1.6559  0.3396
 6289TIP3   OH243061   0.695   5.541   2.460 -0.7230 -0.4840  0.2216
 6289TIP3    H143062   0.609   5.541   2.417 -0.6579  0.1389  0.0792
 6289TIP3    H243063   0.692   5.617   2.517  0.4252  0.6840 -1.1978
 6290TIP3   OH243064   6.583   2.646   0.932 -0.3049  0.5955 -0.7058
 6290TIP3    H143065   6.492   2.628   0.909  0.0895  1.5565 -3.2466
 6290TIP3    H243066   6.586   2.740   0.948  0.2894  0.6162 -0.9063
 6291TIP3   OH243067   4.555   1.376   0.622 -0.6589  0.1216  0.0320
 6291TIP3    H143068   4.567   1.458   0.671 -1.1815 -0.4331  1.1135
 6291TIP3    H243069   4.549   1.308   0.689  0.7580 -0.9632 -0.8651
 6292TIP3   OH243070   1.333   7.205   2.343 -0.3453  0.4807  0.1045
 6292TIP3    H143071   1.310   7.117   2.312 -2.0281  1.0615 -0.4205
 6292TIP3    H243072   1.331   7.259   2.264  0.6468  1.0200  0.4280
 6293TIP3   OH243073   7.190   6.491   2.353  0.1126 -0.4574 -0.1173
 6293TIP3    H143074   7.161   6.562   2.295 -0.0928 -1.5758 -1.4248
 6293TIP3    H243075   7.127   6.421   2.338  0.8593 -1.2634  0.4528
 6294TIP3   OH243076   3.883   5.338   2.101 -0.1651  0.3345  0.5235
 6294TIP3    H143077   3.935   5.414   2.074 -1.3928  0.9052 -0.3441
 6294TIP3    H243078   3.889   5.338   2.196 -0.9238  2.1370  0.6118
 6295TIP3   OH243079   3.392   1.661   2.640  0.0039  0.2096 -0.6190
 6295TIP3    H143080   3.310   1.640   2.594 -0.6727 -0.5154  0.8453
 6295TIP3    H243081   3.363   1.693   2.726  1.2474  0.4459 -0.2740
 6296TIP3   OH243082   1.285   2.968   0.958 -0.1855  0.5183  0.5804
 6296TIP3    H143083   1.224   3.038   0.938  0.9489  1.4680  0.3681
 6296TIP3    H243084   1.313   2.935   0.872  1.9127  2.1711  0.5350
 6297TIP3   OH243085   0.974   2.566   2.721 -0.2016  0.0263  0.0273
 6297TIP3    H143086   1.010   2.530   2.640 -0.5041  2.8136 -1.4791
 6297TIP3    H243087   1.037   2.634   2.746 -0.6267 -0.1419  1.5930
 6298TIP3   OH243088   5.726   7.515   0.904 -0.5928 -0.3055 -0.0589
 6298TIP3    H143089   5.666   7.570   0.955 -1.4177 -2.0799  0.9938
 6298TIP3    H243090   5.708   7.426   0.935 -0.1002 -1.3081 -2.4760
 6299TIP3   OH243091   0.343   6.305   1.479  0.1902  0.2754 -0.1351
 6299TIP3    H143092   0.319   6.395   1.499 -0.8377  0.2551 -1.1264
 6299TIP3    H243093   0.307   6.253   1.551 -1.5092  0.4133 -0.8344
 6300TIP3   OH243094   6.435   0.130   1.067  0.0626 -0.0149  0.1646
 6300TIP3    H143095   6.508   0.150   1.125  0.0920  1.3143 -0.3060
 6300TIP3    H243096   6.474   0.126   0.979 -0.5475  1.8132 -0.2446
 6301TIP3   OH243097   0.001   2.348   1.136  0.3771 -0.5396 -0.3130
 6301TIP3    H143098   0.003   2.441   1.155  0.6097 -0.5874 -0.0913
 6301TIP3    H243099  -0.028   2.307   1.217  1.1417 -0.7270 -0.1248
 6302TIP3   OH243100   4.828   2.622   1.828  0.6368 -0.2558  0.4487
 6302TIP3    H143101   4.909   2.616   1.777  0.5722 -0.6447  0.3899
 6302TIP3    H243102   4.762   2.579   1.773  0.3583  0.1972  0.4276
 6303TIP3   OH243103   6.150   6.535   0.830 -0.3088 -0.4078  0.1309
 6303TIP3    H143104   6.216   6.473   0.800 -2.0167 -1.6305 -1.3443
 6303TIP3    H243105   6.193   6.620   0.826  1.1817 -1.1604 -0.7802
 6304TIP3   OH243106   3.256   1.678   0.764 -0.6824  0.1891 -0.1789
 6304TIP3    H143107   3.321   1.721   0.709 -2.3974  0.1243 -2.3810
 6304TIP3    H243108   3.212   1.749   0.810  3.3547  0.1436  4.5949
 6305TIP3   OH243109   2.028   4.939   1.105 -0.3430  0.8473 -0.0159
 6305TIP3    H143110   1.942   4.957   1.141 -0.7816  0.3535 -0.7924
 6305TIP3    H243111   2.038   5.004   1.035 -0.0895  0.8791  0.0472
 6306TIP3   OH243112   1.326   3.966   3.671 -0.1121  0.0857 -0.2382
 6306TIP3    H143113   1.331   3.986   3.577  0.1477  0.6424 -0.1112
 6306TIP3    H243114   1.418   3.959   3.699 -0.1964 -0.6990 -0.1512
 6307TIP3   OH243115   5.352   1.707   1.061  0.4233 -0.0411  0.2852
 6307TIP3    H143116   5.257   1.708   1.069  0.2701  1.4411 -1.1530
 6307TIP3    H243117   5.373   1.617   1.036 -0.7192 -0.1495 -0.3645
 6308TIP3   OH243118   4.067   7.097   1.062 -0.3118  0.5754  0.9832
 6308TIP3    H143119   3.976   7.124   1.054 -0.3780  0.1033 -0.2032
 6308TIP3    H243120   4.066   7.028   1.128 -0.6479  1.2497  1.6900
 6309TIP3   OH243121   3.810   0.660   1.041  0.4074 -0.3361 -0.4040
 6309TIP3    H143122   3.852   0.679   0.957 -0.8028 -0.3569 -1.0284
 6309TIP3    H243123   3.880   0.621   1.094  0.9204 -1.3293 -1.7666
 6310TIP3   OH243124   0.135   6.148   3.112  0.0344 -0.4206 -0.2435
 6310TIP3    H143125   0.210   6.185   3.158 -1.2733 -0.5379  2.1419
 6310TIP3    H243126   0.061   6.202   3.141 -0.6121  1.3387 -4.4241
 6311TIP3   OH243127   6.495   0.022   2.178  0.0938  0.4225 -0.1313
 6311TIP3    H143128   6.574   0.019   2.233 -0.2305  1.3495  0.4242
 6311TIP3    H243129   6.496   0.110   2.140 -0.1008  0.0538 -0.9933
 6312TIP3   OH243130   0.118   6.074   0.930  0.3617  0.4635 -0.4069
 6312TIP3    H143131   0.148   6.031   0.850  1.3154 -1.7280  1.0296
 6312TIP3    H243132   0.031   6.038   0.946 -0.6633  2.3613 -1.4238
 6313TIP3   OH243133   2.909   5.822   0.486 -0.2548  0.0206 -0.1338
 6313TIP3    H143134   3.004   5.806   0.483 -0.4293 -1.0947 -0.6875
 6313TIP3    H243135   2.871   5.735   0.472 -1.3476  0.7044 -1.6241
 6314TIP3   OH243136   6.326   6.264   1.264  0.6111  0.3594  0.0129
 6314TIP3    H143137   6.265   6.196   1.292 -0.3942  1.2392  0.0290
 6314TIP3    H243138   6.321   6.263   1.169  1.2050 -0.1259 -0.0148
 6315TIP3   OH243139   5.660   0.172   0.799  0.2605  0.0185  0.3204
 6315TIP3    H143140   5.648   0.161   0.705 -2.9597 -2.1991  0.8274
 6315TIP3    H243141   5.727   0.240   0.807  0.2467  0.7010 -3.5336
 6316TIP3   OH243142   4.544   0.244   3.132 -0.1494 -0.0330  0.0857
 6316TIP3    H143143   4.520   0.158   3.166  1.4804 -0.2213  0.8496
 6316TIP3    H243144   4.599   0.226   3.056  0.3817  0.3178  0.3795
 6317TIP3   OH243145   0.636   3.073   3.328 -0.1401 -0.2486 -0.7258
 6317TIP3    H143146   0.723   3.106   3.304  0.5060 -1.1103  0.2992
 6317TIP3    H243147   0.646   3.046   3.420 -1.1694 -1.4403 -0.9380
 6318TIP3   OH243148   6.439   2.352   2.424 -0.1927  0.3046  0.0541
 6318TIP3    H143149   6.373   2.392   2.367 -0.6077 -1.6614 -0.9454
 6318TIP3    H243150   6.400   2.353   2.511 -1.9139 -1.3713 -0.6084
 6319TIP3   OH243151   2.316   6.962   2.377 -0.1626 -0.4834  0.3260
 6319TIP3    H143152   2.380   6.967   2.306 -3.6236 -1.8048 -3.2723
 6319TIP3    H243153   2.275   7.048   2.379  0.0294 -0.3992  0.9001
 6320TIP3   OH243154   3.257   2.758   3.237  0.0751  0.0911 -0.3000
 6320TIP3    H143155   3.287   2.781   3.149  1.9372  1.6841  0.6819
 6320TIP3    H243156   3.334   2.767   3.292 -0.8217 -1.8231  1.3806
 6321TIP3   OH243157   4.418   2.212   0.538  0.0855 -0.0326 -1.0010
 6321TIP3    H143158   4.333   2.218   0.494 -0.3260  0.0279 -0.2120
 6321TIP3    H243159   4.478   2.181   0.470 -0.4970  0.2439 -1.6522
 6322TIP3   OH243160   6.167   0.288   1.388 -0.1883 -0.6715  0.2453
 6322TIP3    H143161   6.152   0.242   1.306 -1.2788  0.6448 -0.3262
 6322TIP3    H243162   6.237   0.350   1.369 -0.4450 -0.3613  0.3030
 6323TIP3   OH243163   7.240   2.674   1.214 -0.7686  0.2305  0.1817
 6323TIP3    H143164   7.308   2.669   1.281  0.1319 -1.6748 -0.7806
 6323TIP3    H243165   7.163   2.637   1.256 -0.2049 -0.9712  0.2039
 6324TIP3   OH243166   3.995   6.185   1.489 -0.3191 -0.3152  0.1719
 6324TIP3    H143167   3.938   6.109   1.481 -1.0483  0.0842  1.3797
 6324TIP3    H243168   3.996   6.223   1.402  0.1118 -1.7236 -0.4757
 6325TIP3   OH243169   5.185   3.487   2.623  0.4116 -0.4036 -0.0301
 6325TIP3    H143170   5.116   3.431   2.588  0.8309 -2.0623  1.6082
 6325TIP3    H243171   5.227   3.434   2.691  0.8368  1.9204  1.6543
 6326TIP3   OH243172   6.825   7.211   1.341  0.5295  0.4373  0.4353
 6326TIP3    H143173   6.877   7.139   1.306 -1.5322 -1.9186  1.8306
 6326TIP3    H243174   6.777   7.245   1.266  0.4039 -0.6840 -0.0067
 6327TIP3   OH243175   4.964   5.087   1.834 -0.2539  0.1152  0.0055
 6327TIP3    H143176   5.017   5.028   1.780 -0.5903  0.2388 -0.4674
 6327TIP3    H243177   4.959   5.043   1.919 -0.3609 -0.4576 -0.2888
 6328TIP3   OH243178   5.450   6.987   3.363  0.1746  0.0513 -0.0906
 6328TIP3    H143179   5.518   6.980   3.430 -0.5312 -0.4038  0.5953
 6328TIP3    H243180   5.394   7.058   3.392  0.8298  1.0200 -1.1100
 6329TIP3   OH243181   7.231   0.638   2.480 -0.1867  0.6834  0.3065
 6329TIP3    H143182   7.206   0.558   2.526  1.7984  0.1164  0.4778
 6329TIP3    H243183   7.313   0.665   2.520  0.0073  1.9084 -0.8335
 6330TIP3   OH243184   2.482   6.604   0.468  0.2650  0.5060 -0.5025
 6330TIP3    H143185   2.508   6.585   0.558 -0.9023  1.0651 -0.0301
 6330TIP3    H243186   2.446   6.523   0.435 -0.3477  0.6026 -0.0804
 6331TIP3   OH243187   6.943   1.348   2.930  0.0481 -0.0550 -0.4824
 6331TIP3    H143188   6.862   1.310   2.895 -0.1977  0.0156  0.0083
 6331TIP3    H243189   6.976   1.284   2.992  0.1537  0.0990 -0.3772
 6332TIP3   OH243190   5.628   4.941   1.559  0.5507 -0.4032 -0.5384
 6332TIP3    H143191   5.660   4.946   1.649  0.4418 -1.6685 -0.4150
 6332TIP3    H243192   5.694   4.986   1.507  0.5515  0.4458  0.1775
 6333TIP3   OH243193   6.879   6.004   0.451 -0.3134 -0.4760 -0.3072
 6333TIP3    H143194   6.909   6.068   0.514 -0.8838  0.8641 -1.3371
 6333TIP3    H243195   6.951   5.941   0.444  1.3921  1.4532 -1.1388
 6334TIP3   OH243196   3.116   5.370   1.063 -0.5032  0.3406  0.0445
 6334TIP3    H143197   3.038   5.314   1.060  0.2027 -0.9540  2.5535
 6334TIP3    H243198   3.188   5.311   1.040 -0.1558  1.5012 -2.1683
 6335TIP3   OH243199   7.477   7.008   1.095  0.0327  0.2037 -0.4141
 6335TIP3    H143200   7.483   6.912   1.100 -0.8238  0.1545 -0.1168
 6335TIP3    H243201   7.556   7.039   1.140 -0.5775 -0.3613  1.1354
 6336TIP3   OH243202   0.585   3.028   2.677  0.1776 -0.6390 -0.1332
 6336TIP3    H143203   0.509   3.061   2.725 -0.0084 -1.2736  0.0119
 6336TIP3    H243204   0.636   3.107   2.656 -0.6585 -0.1787 -0.4788
 6337TIP3   OH243205   0.345   5.047   3.919  0.5212 -0.7998  0.3825
 6337TIP3    H143206   0.253   5.073   3.920 -0.2728 -3.3767  1.8311
 6337TIP3    H243207   0.391   5.124   3.884 -2.0863  0.7429  0.0925
 6338TIP3   OH243208   6.629   1.521   1.980  0.3094 -0.0637  0.1044
 6338TIP3    H143209   6.712   1.477   1.996  0.7757  1.4701  2.3681
 6338TIP3    H243210   6.651   1.614   1.980 -1.3273  0.3573  0.1986
 6339TIP3   OH243211   2.643   3.261   1.409  0.4921  0.5975  0.6365
 6339TIP3    H143212   2.660   3.224   1.496  2.8749 -1.7897 -0.7000
 6339TIP3    H243213   2.715   3.324   1.395  0.4585  0.5352  0.1706
 6340TIP3   OH243214   6.322   6.305   1.974  0.3956 -0.4063 -0.0150
 6340TIP3    H143215   6.241   6.355   1.983  0.4651 -0.1613 -0.6842
 6340TIP3    H243216   6.363   6.340   1.894  1.6241  0.1411  0.8162
 6341TIP3   OH243217   6.081   5.529   2.571  0.3755  0.4405 -0.0582
 6341TIP3    H143218   5.988   5.552   2.574 -0.0062 -0.6965 -1.5774
 6341TIP3    H243219   6.121   5.599   2.519  0.0090  0.0057 -0.9580
 6342TIP3   OH243220   0.239   2.283   1.799 -0.0155 -0.3481 -0.4077
 6342TIP3    H143221   0.162   2.309   1.850 -1.0887 -1.6135 -1.3186
 6342TIP3    H243222   0.204   2.226   1.731  1.0031  2.8912 -3.9964
 6343TIP3   OH243223   6.107   1.081   1.309  0.1606 -0.0506  0.4188
 6343TIP3    H143224   6.100   1.177   1.307  0.3363 -0.0224  1.1544
 6343TIP3    H243225   6.039   1.052   1.247 -1.1384  0.4950  1.5302
 6344TIP3   OH243226   0.480   7.513   1.347 -0.0079  0.3388  0.3942
 6344TIP3    H143227   0.547   7.452   1.378  0.3042  0.7521  0.5399
 6344TIP3    H243228   0.507   7.535   1.258 -0.3974 -0.1214  0.1527
 6345TIP3   OH243229   0.147   3.253   3.019 -0.2896  0.4071  0.0110
 6345TIP3    H143230   0.147   3.348   3.024 -0.7924  0.3538  1.5728
 6345TIP3    H243231   0.056   3.228   3.037 -0.0619 -0.3897  0.1212
 6346TIP3   OH243232   5.243   5.509   3.283  0.5545  0.0910  0.3819
 6346TIP3    H143233   5.250   5.416   3.264  0.4981  0.5436 -2.2773
 6346TIP3    H243234   5.328   5.534   3.319  0.1284 -1.1763  2.4256
 6347TIP3   OH243235   5.044   3.524   1.312 -0.1091 -0.9981 -0.0452
 6347TIP3    H143236   4.995   3.599   1.345 -0.3662 -1.9738  1.9359
 6347TIP3    H243237   4.993   3.493   1.238  0.5930  1.4000 -1.6766
 6348TIP3   OH243238   4.528   6.077   2.876 -0.2723 -0.0802  0.0266
 6348TIP3    H143239   4.619   6.089   2.906 -0.9111 -0.3546  2.2211
 6348TIP3    H243240   4.499   6.165   2.853 -0.3376  0.4730  2.0949
 6349TIP3   OH243241   1.857   3.592   1.724 -0.0375  0.5847 -0.2174
 6349TIP3    H143242   1.783   3.541   1.758 -1.7691  3.6380  1.0225
 6349TIP3    H243243   1.912   3.528   1.680 -1.9635 -2.3073  1.2644
 6350TIP3   OH243244   1.133   4.259   1.507  0.5756 -0.5826  0.1375
 6350TIP3    H143245   1.080   4.244   1.429  0.4356 -1.8618  0.4621
 6350TIP3    H243246   1.075   4.240   1.580  0.7413  0.5000  0.5741
 6351TIP3   OH243247   2.910   6.108   0.481 -0.2510  0.0691  0.0044
 6351TIP3    H143248   2.960   6.127   0.402 -0.6330  1.6662  0.1231
 6351TIP3    H243249   2.924   6.014   0.496 -0.4320 -0.3439 -2.1168
 6352TIP3   OH243250   6.801   5.729   1.472  0.2773 -0.0586  0.6267
 6352TIP3    H143251   6.798   5.824   1.464  0.4455 -0.0939  0.0971
 6352TIP3    H243252   6.877   5.711   1.527  0.0976  0.1214  0.9369
 6353TIP3   OH243253   5.129   5.759   3.108 -0.0935 -0.3427 -0.4820
 6353TIP3    H143254   5.146   5.770   3.201 -0.8843 -2.6125 -0.0084
 6353TIP3    H243255   5.215   5.737   3.071 -0.1841 -2.0563  0.2156
 6354TIP3   OH243256   1.903   3.179   1.824 -0.0117 -0.0124 -0.0517
 6354TIP3    H143257   1.910   3.162   1.730 -0.7804 -0.4505 -0.0411
 6354TIP3    H243258   1.987   3.152   1.859 -0.5965 -2.3434 -0.2756
 6355TIP3   OH243259   2.565   3.625   0.561 -0.0443  0.5902  0.1948
 6355TIP3    H143260   2.473   3.646   0.573 -0.6563 -1.8033  0.1358
 6355TIP3    H243261   2.582   3.554   0.623  1.1802 -0.4138 -1.2058
 6356TIP3   OH243262   2.868   4.723   2.271  0.0795  0.4072 -0.4111
 6356TIP3    H143263   2.848   4.771   2.190  1.8699 -0.4998 -1.4386
 6356TIP3    H243264   2.962   4.733   2.282 -0.1453  0.7338  1.7624
 6357TIP3   OH243265   1.210   1.167   1.188 -0.3518  0.2408 -0.4749
 6357TIP3    H143266   1.284   1.227   1.175  0.2278 -0.6373 -1.4085
 6357TIP3    H243267   1.156   1.179   1.110 -0.9841  0.5759  0.0114
 6358TIP3   OH243268   1.979   1.256   2.617  0.3592  0.7126 -0.3500
 6358TIP3    H143269   1.919   1.276   2.689 -0.8980  2.1499 -1.7175
 6358TIP3    H243270   1.962   1.164   2.596 -0.7828  0.8563 -0.1403
 6359TIP3   OH243271   3.246   4.305   0.862  0.1838  0.1061 -0.5207
 6359TIP3    H143272   3.284   4.229   0.906 -0.4916 -0.8445 -1.5179
 6359TIP3    H243273   3.154   4.304   0.889  0.2859  0.8948 -0.1219
 6360TIP3   OH243274   4.146   5.306   1.797  0.1761 -0.0268 -0.1881
 6360TIP3    H143275   4.229   5.327   1.756  0.2469  0.4872  0.2163
 6360TIP3    H243276   4.084   5.299   1.724  0.5880 -0.5173 -0.4971
 6361TIP3   OH243277   6.798   3.027   1.777  0.7591  0.1895 -0.3446
 6361TIP3    H143278   6.726   2.978   1.736  2.2640 -0.8293 -1.9016
 6361TIP3    H243279   6.827   2.971   1.848  0.0819  0.5739  0.2475
 6362TIP3   OH243280   5.811   6.681   0.845  0.2214  0.0650 -0.2178
 6362TIP3    H143281   5.837   6.661   0.755  2.3319 -2.0693  0.7625
 6362TIP3    H243282   5.839   6.771   0.858 -0.4250  0.5304 -1.7549
 6363TIP3   OH243283   0.207   4.282   1.752 -0.0104  0.3126  0.0780
 6363TIP3    H143284   0.233   4.374   1.742 -0.4058  0.4635  0.3767
 6363TIP3    H243285   0.177   4.276   1.843  1.4454 -0.4812  0.5331
 6364TIP3   OH243286   1.509   1.812   2.377 -0.3802  0.0158  0.5781
 6364TIP3    H143287   1.491   1.719   2.366 -1.0693  0.3425 -1.4508
 6364TIP3    H243288   1.563   1.835   2.301 -1.5710  1.5764  0.1439
 6365TIP3   OH243289   2.630   6.238   0.906  0.4554  0.0537 -0.1525
 6365TIP3    H143290   2.714   6.217   0.946  1.0699  1.4749 -0.6347
 6365TIP3    H243291   2.649   6.250   0.813 -0.6907 -1.7150 -0.6657
 6366TIP3   OH243292   3.938   3.455   2.340  0.3028 -0.0738 -0.2191
 6366TIP3    H143293   4.012   3.495   2.384  0.8603  1.8053 -2.6312
 6366TIP3    H243294   3.878   3.431   2.410  1.1769  2.5543  1.5664
 6367TIP3   OH243295   0.992   5.022   1.274 -0.2553 -1.0278  0.0253
 6367TIP3    H143296   0.964   5.039   1.363 -0.3174 -0.3852 -0.1155
 6367TIP3    H243297   0.964   5.099   1.224 -1.6868 -2.0806 -0.8774
 6368TIP3   OH243298   2.171   4.677   2.065  0.0061 -0.5456  0.1002
 6368TIP3    H143299   2.205   4.591   2.089  1.4944  0.0884  0.3428
 6368TIP3    H243300   2.104   4.659   1.999 -1.3535 -2.0417  1.7895
 6369TIP3   OH243301   0.654   6.197   1.442  0.6174 -0.5761 -0.1799
 6369TIP3    H143302   0.652   6.292   1.448 -1.2215 -0.6429  1.1186
 6369TIP3    H243303   0.641   6.179   1.348  0.4578  0.4285 -0.3618
 6370TIP3   OH243304   6.376   5.135   2.220  0.0022 -0.0491 -0.6469
 6370TIP3    H143305   6.319   5.209   2.236  1.8932  1.1032  1.3628
 6370TIP3    H243306   6.367   5.080   2.299  1.6122  0.1773 -0.2681
 6371TIP3   OH243307   7.122   6.796   1.572  0.2880 -0.0980  0.0469
 6371TIP3    H143308   7.097   6.848   1.649  2.2815  1.3946 -0.2129
 6371TIP3    H243309   7.199   6.842   1.537  0.4435 -1.7000 -1.8624
 6372TIP3   OH243310   4.946   4.399   0.528 -0.4811  0.3810 -0.5358
 6372TIP3    H143311   5.034   4.437   0.530 -0.2841 -0.0744 -0.1195
 6372TIP3    H243312   4.888   4.473   0.511 -0.4498  1.5943  3.4177
 6373TIP3   OH243313   0.094   4.156   2.620 -0.5115 -0.3791 -0.2162
 6373TIP3    H143314   0.053   4.205   2.549 -1.6998  0.1540  0.8106
 6373TIP3    H243315   0.021   4.122   2.672  0.2828 -2.6116 -0.4465
 6374TIP3   OH243316   1.548   3.389   2.639  0.2903  0.1015 -0.3545
 6374TIP3    H143317   1.454   3.379   2.653  0.4474  0.9442  1.6479
 6374TIP3    H243318   1.586   3.307   2.670  0.2143 -0.3548 -1.4358
 6375TIP3   OH243319   0.285   0.710   2.268  0.5264 -0.0536 -0.0926
 6375TIP3    H143320   0.200   0.730   2.229 -0.4589  0.2230  2.0191
 6375TIP3    H243321   0.295   0.775   2.338  1.5613 -1.2690  0.9437
 6376TIP3   OH243322   5.009   1.834   2.138 -0.1234 -0.8427 -0.5331
 6376TIP3    H143323   5.008   1.762   2.202  0.6908 -1.3638 -1.0859
 6376TIP3    H243324   4.923   1.830   2.096 -1.1052  0.1776  1.2202
 6377TIP3   OH243325   1.484   0.070   1.598  0.3212 -0.3139 -0.4187
 6377TIP3    H143326   1.424   0.019   1.543  0.6318 -1.0824 -0.0645
 6377TIP3    H243327   1.503   0.012   1.672  0.9229  0.2101 -0.1558
 6378TIP3   OH243328   5.305   4.496   2.888  0.7031 -0.5434 -0.0188
 6378TIP3    H143329   5.235   4.551   2.852  0.0033 -2.2386 -1.3513
 6378TIP3    H243330   5.296   4.505   2.983 -0.7912 -0.0680 -0.1793
 6379TIP3   OH243331   5.876   1.145   2.773 -0.3641  0.3231  0.5724
 6379TIP3    H143332   5.905   1.088   2.702 -0.2134  2.0101 -0.7851
 6379TIP3    H243333   5.798   1.102   2.809  1.0130 -1.8728  1.1486
 6380TIP3   OH243334   2.956   2.836   1.947  0.3960  0.6319  0.3815
 6380TIP3    H143335   3.020   2.897   1.910  0.6791 -0.1077 -0.3703
 6380TIP3    H243336   3.010   2.771   1.992  0.0856  1.0582  1.3924
 6381TIP3   OH243337   1.902   1.311   1.785 -0.1916 -0.1804  0.0912
 6381TIP3    H143338   1.880   1.330   1.876  1.9962  0.2538  0.5910
 6381TIP3    H243339   1.936   1.393   1.751 -0.5244 -0.4718 -0.9794
 6382TIP3   OH243340   5.317   4.989   2.686  0.0208  0.2519  0.2622
 6382TIP3    H143341   5.326   4.968   2.593 -0.0317 -1.2587  0.5697
 6382TIP3    H243342   5.380   4.931   2.729  0.1837  1.0778  1.1689
 6383TIP3   OH243343   7.638   2.868   0.585 -0.3300 -0.0526 -0.1439
 6383TIP3    H143344   7.606   2.957   0.595  1.9173  0.8675 -0.5389
 6383TIP3    H243345   7.672   2.845   0.672 -0.0097 -0.1355 -0.2903
 6384TIP3   OH243346   5.289   5.822   3.335  0.2308  0.2629 -0.0076
 6384TIP3    H143347   5.316   5.749   3.390 -1.5145 -1.4753 -1.2827
 6384TIP3    H243348   5.363   5.837   3.276  0.5993 -0.5242  0.2437
 6385TIP3   OH243349   3.029   5.461   1.411 -0.0317 -0.1299 -0.2752
 6385TIP3    H143350   3.087   5.462   1.488  1.9497 -0.8519 -1.6783
 6385TIP3    H243351   3.056   5.536   1.359 -1.1644  0.1852 -0.4370
 6386TIP3   OH243352   7.113   1.024   3.066 -0.5144  0.6222 -0.3525
 6386TIP3    H143353   7.175   1.027   2.993  1.5768 -2.0917  1.1404
 6386TIP3    H243354   7.033   0.988   3.029  0.8329 -1.6766 -1.1988
 6387TIP3   OH243355   4.671   5.670   0.773  0.9198 -0.1545  0.9454
 6387TIP3    H143356   4.629   5.743   0.819 -0.4994 -1.2475  1.4678
 6387TIP3    H243357   4.682   5.603   0.841 -1.1851 -1.7971 -0.2026
 6388TIP3   OH243358   2.612   0.847   1.189 -0.4018  0.0772  0.1200
 6388TIP3    H143359   2.660   0.798   1.256  2.1882 -0.5123 -1.9762
 6388TIP3    H243360   2.647   0.936   1.195 -1.4872  0.4718  0.7039
 6389TIP3   OH243361   4.729   1.232   1.054  1.0170 -0.7036  0.3669
 6389TIP3    H143362   4.765   1.173   1.119 -0.8374 -1.5086  0.7231
 6389TIP3    H243363   4.708   1.312   1.103 -0.6035 -1.3962  0.8598
 6390TIP3   OH243364   5.777   0.300   2.300  0.0031 -0.1467  0.0206
 6390TIP3    H143365   5.695   0.345   2.279 -0.1220 -0.7731 -0.9013
 6390TIP3    H243366   5.842   0.370   2.307 -0.5904  0.3473  0.6894
 6391TIP3   OH243367   0.843   5.450   2.730 -0.0559  0.2570  0.4313
 6391TIP3    H143368   0.924   5.460   2.679 -0.1235 -1.5840 -0.1041
 6391TIP3    H243369   0.873   5.423   2.816 -0.0086  2.2097  1.0844
 6392TIP3   OH243370   7.647   4.005   0.632  0.6109 -0.0678  0.5198
 6392TIP3    H143371   7.575   4.068   0.635 -0.1305 -0.9066  2.6717
 6392TIP3    H243372   7.715   4.048   0.581 -0.3619  1.9315  0.8044
 6393TIP3   OH243373   4.199   3.999   2.003 -0.0026  0.2399 -0.4068
 6393TIP3    H143374   4.195   4.095   1.996 -1.5812  0.1321 -1.6245
 6393TIP3    H243375   4.121   3.976   2.053  0.8223 -0.3688  0.6132
 6394TIP3   OH243376   3.880   5.353   1.345 -0.4328 -0.2015  0.2811
 6394TIP3    H143377   3.799   5.384   1.304 -0.3723 -0.4116  0.0043
 6394TIP3    H243378   3.919   5.294   1.281 -0.1376 -0.2237  0.4791
 6395TIP3   OH243379   0.367   4.575   3.520  0.4121  0.4338  0.3309
 6395TIP3    H143380   0.402   4.652   3.564 -1.6924  0.8826  1.3657
 6395TIP3    H243381   0.272   4.583   3.531 -0.0129 -0.9325 -1.8914
 6396TIP3   OH243382   6.155   4.600   8.560  0.5788 -0.0130  0.2852
 6396TIP3    H143383   6.200   4.666   8.508  1.1625  1.3987  2.4398
 6396TIP3    H243384   6.226   4.543   8.592  0.1095 -1.5562 -1.3196
 6397TIP3   OH243385   6.988   7.190   2.487 -0.1067 -0.0349 -0.2748
 6397TIP3    H143386   7.070   7.159   2.449 -1.0967 -2.1764 -0.8472
 6397TIP3    H243387   6.954   7.253   2.424  0.2844 -0.4096 -0.8683
 6398TIP3   OH243388   0.941   6.454   2.736 -0.0848 -0.2908 -0.8838
 6398TIP3    H143389   0.897   6.371   2.717 -1.4850  1.0423 -4.2926
 6398TIP3    H243390   1.029   6.443   2.699  0.1925 -0.6673 -0.1337
 6399TIP3   OH243391   7.089   4.484   1.685  0.1505  0.1394 -0.2706
 6399TIP3    H143392   7.035   4.522   1.754  0.9698  1.2916 -0.2282
 6399TIP3    H243393   7.032   4.421   1.641 -0.7071  0.1503  0.7885
 6400TIP3   OH243394   3.137   6.374   2.357 -0.2898 -0.0568 -0.5593
 6400TIP3    H143395   3.174   6.307   2.414 -0.9815 -1.2299 -1.4327
 6400TIP3    H243396   3.183   6.454   2.381  1.3486 -1.0527 -0.2260
 6401TIP3   OH243397   6.988   4.531   1.030  0.2522 -0.4133 -0.5104
 6401TIP3    H143398   7.079   4.503   1.018  0.8770  1.7382 -1.2323
 6401TIP3    H243399   6.989   4.580   1.112 -0.7769 -2.1381  0.6188
 6402TIP3   OH243400   1.457   6.325   2.922 -0.0623  0.1123  0.1905
 6402TIP3    H143401   1.442   6.238   2.883 -1.4218  0.4619 -0.1173
 6402TIP3    H243402   1.512   6.370   2.858 -1.7354  0.4542 -1.0634
 6403TIP3   OH243403   4.368   0.479   0.700  0.0993  0.6069 -0.6382
 6403TIP3    H143404   4.436   0.545   0.686 -0.1835  1.0298 -0.0908
 6403TIP3    H243405   4.337   0.495   0.789  1.6286 -1.7510  0.4204
 6404TIP3   OH243406   5.991   5.227   2.784  0.0521  0.2232  0.2506
 6404TIP3    H143407   6.029   5.287   2.848  0.3002 -1.2782  1.5775
 6404TIP3    H243408   6.066   5.188   2.740  0.0081 -0.8528  1.0819
 6405TIP3   OH243409   0.805   2.497   2.285 -0.2668 -0.0505  0.5038
 6405TIP3    H143410   0.889   2.536   2.260 -0.2891 -0.3675 -0.0937
 6405TIP3    H243411   0.750   2.571   2.310  0.2656  0.1370  1.1322
 6406TIP3   OH243412   5.113   4.847   1.222  0.3617  0.2491 -0.3315
 6406TIP3    H143413   5.018   4.847   1.210  0.3687 -2.5511 -1.1660
 6406TIP3    H243414   5.135   4.937   1.248 -2.6636  0.6503  1.2413
 6407TIP3   OH243415   6.566   2.392   1.129 -0.2957 -0.3478 -0.0473
 6407TIP3    H143416   6.629   2.339   1.178  0.2089  0.6990  0.4622
 6407TIP3    H243417   6.581   2.369   1.038  0.8826 -0.0663  0.0620
 6408TIP3   OH243418   1.806   0.296   2.148 -0.1551 -0.1781 -0.8688
 6408TIP3    H143419   1.820   0.377   2.197 -0.9507 -0.3743 -0.3009
 6408TIP3    H243420   1.873   0.236   2.181  0.5552  0.2921 -1.4247
 6409TIP3   OH243421   1.247   7.623   0.909 -0.4931  0.0046 -0.3325
 6409TIP3    H143422   1.263   7.533   0.936 -2.9070 -0.7432 -1.1579
 6409TIP3    H243423   1.186   7.657   0.974 -0.4162  0.6961 -0.6169
 6410TIP3   OH243424   0.647   5.296   2.598  0.4594 -0.4970  0.2408
 6410TIP3    H143425   0.710   5.357   2.638  0.3905 -0.5401  0.4167
 6410TIP3    H243426   0.563   5.340   2.603  0.1342 -1.2175  1.7659
 6411TIP3   OH243427   0.987   5.254   0.712  0.1038 -0.3124  0.2521
 6411TIP3    H143428   1.082   5.260   0.722  0.2569 -0.4432 -0.9408
 6411TIP3    H243429   0.961   5.183   0.770  0.7858 -0.4970  0.3388
 6412TIP3   OH243430   0.236   1.017   2.702  0.1660 -0.1963  0.5473
 6412TIP3    H143431   0.330   1.004   2.720  0.3356  0.0553 -0.1286
 6412TIP3    H243432   0.216   1.103   2.740  0.2736 -0.1308  0.4564
 6413TIP3   OH243433   0.379   7.165   0.929 -0.3029  0.3443  0.2143
 6413TIP3    H143434   0.434   7.188   1.004  0.5244 -0.2997 -0.1777
 6413TIP3    H243435   0.413   7.081   0.899 -1.7319 -0.2516  0.1594
 6414TIP3   OH243436   0.463   3.285   3.312  0.2532 -0.0904 -0.4270
 6414TIP3    H143437   0.510   3.203   3.328 -1.4599 -1.2344 -0.9399
 6414TIP3    H243438   0.402   3.292   3.386  0.6724  0.9494 -0.1737
 6415TIP3   OH243439   3.044   3.901   1.293 -0.0654  0.5511 -0.6523
 6415TIP3    H143440   3.044   3.984   1.246 -0.9412  0.2231 -1.2471
 6415TIP3    H243441   3.130   3.897   1.335 -0.0099  1.7475 -0.6241
 6416TIP3   OH243442   3.202   3.132   2.817  0.2481  0.3256 -0.8941
 6416TIP3    H143443   3.293   3.124   2.788  0.8804 -0.0269  1.0516
 6416TIP3    H243444   3.178   3.222   2.797  1.7069  1.0382  0.3130
 6417TIP3   OH243445   7.088   5.489   0.823  0.1820 -0.2408  0.0310
 6417TIP3    H143446   7.000   5.517   0.797 -0.0694 -1.1298 -0.1014
 6417TIP3    H243447   7.079   5.396   0.842  1.1905 -0.4472 -0.4224
 6418TIP3   OH243448   0.753   0.376   2.221  0.7715 -0.2546  0.3506
 6418TIP3    H143449   0.671   0.404   2.180  0.5581 -1.0273  0.2262
 6418TIP3    H243450   0.726   0.310   2.285  1.1757  0.3951  1.2186
 6419TIP3   OH243451   2.741   3.032   0.792  0.1202  0.1801  0.0227
 6419TIP3    H143452   2.654   3.066   0.812 -0.7788 -1.3524 -1.0432
 6419TIP3    H243453   2.778   3.010   0.877 -1.3046 -0.8552  0.4204
 6420TIP3   OH243454   5.002   5.325   0.739 -0.0504  0.1894  0.7282
 6420TIP3    H143455   4.942   5.285   0.802 -0.0383  0.3820  0.8660
 6420TIP3    H243456   4.945   5.370   0.677 -0.1085 -0.9311 -0.0550
 6421TIP3   OH243457   2.254   3.674   2.554 -0.0439  0.0471 -0.0283
 6421TIP3    H143458   2.210   3.722   2.624 -0.5349  0.4334 -0.5887
 6421TIP3    H243459   2.327   3.629   2.597  1.1396  2.1716  0.3663
 6422TIP3   OH243460   7.107   2.218   1.157 -0.0825  0.2265  0.4641
 6422TIP3    H143461   7.068   2.250   1.238 -3.1159 -0.7068 -0.5065
 6422TIP3    H243462   7.129   2.126   1.176 -1.5556 -0.2321  0.0209
 6423TIP3   OH243463   5.462   1.426   1.383  0.1615 -0.1702  0.6063
 6423TIP3    H143464   5.388   1.483   1.407 -0.0956 -0.0364 -0.4530
 6423TIP3    H243465   5.540   1.475   1.410 -0.1181 -0.2312  1.5690
 6424TIP3   OH243466   6.609   5.874   0.420 -0.0419 -0.1571 -0.4255
 6424TIP3    H143467   6.673   5.804   0.402  0.9431  0.5234  0.3012
 6424TIP3    H243468   6.653   5.954   0.391  0.0021  0.4823  1.2912
 6425TIP3   OH243469   0.057   1.814   2.389  0.2015 -0.5764 -0.8125
 6425TIP3    H143470   0.052   1.719   2.397  0.6120 -0.5875 -0.6292
 6425TIP3    H243471   0.145   1.836   2.421 -1.2002  0.2740  3.0975
 6426TIP3   OH243472   5.470   4.266   1.380 -0.3967 -0.1825  0.1332
 6426TIP3    H143473   5.417   4.304   1.310 -1.1674  0.5612  1.0858
 6426TIP3    H243474   5.544   4.226   1.335  0.0228  1.7390 -0.9975
 6427TIP3   OH243475   6.382   3.940   1.234 -0.3734 -0.5027 -0.3004
 6427TIP3    H143476   6.461   3.995   1.234 -0.0872 -0.8505  1.4245
 6427TIP3    H243477   6.415   3.851   1.241 -0.8926 -0.7940 -1.3895
 6428TIP3   OH243478   5.730   5.032   1.790 -0.0227 -0.3444  0.2803
 6428TIP3    H143479   5.679   5.113   1.794 -0.5289 -0.6640  3.4635
 6428TIP3    H243480   5.794   5.040   1.861  1.3054 -1.9068 -0.6502
 6429TIP3   OH243481   1.781   5.371   2.282 -0.0776  0.2502  0.2831
 6429TIP3    H143482   1.838   5.447   2.269  0.1224  0.1601  0.6289
 6429TIP3    H243483   1.715   5.402   2.345  0.2276  0.0203  0.7172
 6430TIP3   OH243484   4.179   2.211   1.507  0.3617  0.2165 -0.0976
 6430TIP3    H143485   4.083   2.219   1.514  0.0782 -1.4113 -1.4320
 6430TIP3    H243486   4.203   2.154   1.580  0.1750 -0.1469 -0.3166
 6431TIP3   OH243487   6.838   7.240   1.011  0.3066  0.0093  0.5643
 6431TIP3    H143488   6.928   7.214   0.993  0.4233  0.7224  0.0696
 6431TIP3    H243489   6.790   7.157   1.017  0.5800 -0.3501 -1.4636
 6432TIP3   OH243490   5.550   3.205   0.659  0.1335  0.0102  0.4484
 6432TIP3    H143491   5.637   3.193   0.697  0.3440  1.9023  0.6838
 6432TIP3    H243492   5.518   3.116   0.642  1.7395 -0.7447  1.1755
 6433TIP3   OH243493   6.985   6.974   1.338 -0.1417  0.1185  0.3401
 6433TIP3    H143494   7.014   6.941   1.253  0.0551  0.4051  0.2953
 6433TIP3    H243495   7.033   6.921   1.402  0.9377  0.9646  0.2685
 6434TIP3   OH243496   3.095   3.616   1.158 -0.0231 -0.2441 -0.1052
 6434TIP3    H143497   3.078   3.588   1.068  0.9168  1.9178 -1.0283
 6434TIP3    H243498   3.110   3.711   1.151  0.6171 -0.1118  2.2534
 6435TIP3   OH243499   1.125   3.326   1.469 -0.5007 -0.1086  0.3201
 6435TIP3    H143500   1.141   3.353   1.559 -0.2626  0.9253 -0.0099
 6435TIP3    H243501   1.088   3.238   1.476 -0.6443  0.0231  1.4267
 6436TIP3   OH243502   6.860   1.584   2.782 -0.3734  0.4353 -0.1193
 6436TIP3    H143503   6.956   1.585   2.779 -0.3552 -0.9956 -0.8899
 6436TIP3    H243504   6.839   1.527   2.857 -0.6434  1.4006  0.5567
 6437TIP3   OH243505   5.731   4.316   3.198 -0.5952 -0.4939  0.0057
 6437TIP3    H143506   5.816   4.349   3.226  0.5572 -2.6707 -0.7124
 6437TIP3    H243507   5.747   4.225   3.175 -2.6616 -0.3978 -2.1980
 6438TIP3   OH243508   4.090   7.399   3.271  0.0720  0.1569 -0.3201
 6438TIP3    H143509   4.161   7.338   3.289  0.6499  0.4191 -1.5957
 6438TIP3    H243510   4.016   7.365   3.321  1.3422  0.4745  1.9223
 6439TIP3   OH243511   7.114   6.189   2.612 -0.3288 -0.2394 -0.5808
 6439TIP3    H143512   7.135   6.159   2.700 -2.3266 -0.2513 -0.0420
 6439TIP3    H243513   7.198   6.193   2.566  0.5825 -1.6154  0.8831
 6440TIP3   OH243514   7.612   7.679   1.866 -0.0046 -0.6597 -0.2488
 6440TIP3    H143515   7.612   7.707   1.774 -1.0780 -1.9700 -0.6806
 6440TIP3    H243516   7.582   7.755   1.915  0.8999  0.1640 -0.9303
 6441TIP3   OH243517   0.331   4.103   2.065 -0.4056 -0.4230 -0.7383
 6441TIP3    H143518   0.247   4.058   2.067 -1.4785  1.2814  3.3534
 6441TIP3    H243519   0.313   4.186   2.022 -1.1287  0.2623  0.8034
 6442TIP3   OH243520   1.381   5.529   1.975 -0.1692  0.3430 -0.2464
 6442TIP3    H143521   1.462   5.478   1.985 -0.0718  0.4537 -0.4536
 6442TIP3    H243522   1.311   5.464   1.971  0.1034  0.0972 -2.2189
 6443TIP3   OH243523   4.573   4.169   0.727  0.3476 -0.3394  0.0294
 6443TIP3    H143524   4.657   4.197   0.691  0.4237 -1.8777 -1.0903
 6443TIP3    H243525   4.588   4.163   0.822  0.9843  0.9968  0.0315
 6444TIP3   OH243526   7.178   7.395   0.713  0.6758 -0.0408 -0.3403
 6444TIP3    H143527   7.134   7.470   0.753 -1.6854 -0.9891 -1.0142
 6444TIP3    H243528   7.113   7.357   0.655  2.3218 -1.7489 -1.1671
 6445TIP3   OH243529   0.212   3.144   1.970 -0.0142 -0.1963 -0.5784
 6445TIP3    H143530   0.164   3.111   2.046  0.9870 -1.0057 -0.2807
 6445TIP3    H243531   0.300   3.160   2.002  0.6042 -1.1773 -1.7078
 6446TIP3   OH243532   4.866   1.922   1.055 -0.0160 -0.4547 -0.1428
 6446TIP3    H143533   4.851   1.942   0.962 -0.8111 -0.2087  0.0370
 6446TIP3    H243534   4.809   1.983   1.102  0.7761 -0.2141  0.5294
 6447TIP3   OH243535   6.688   1.582   1.208  0.6878 -0.1933  0.7291
 6447TIP3    H143536   6.635   1.506   1.233 -0.1921  0.0921 -0.2269
 6447TIP3    H243537   6.728   1.557   1.125  0.2394  0.4594  0.3126
 6448TIP3   OH243538   1.654   0.643   1.329 -0.0309  0.0957  0.3342
 6448TIP3    H143539   1.614   0.725   1.360 -0.6961  0.2483 -0.8926
 6448TIP3    H243540   1.717   0.670   1.263  0.1918 -0.3524  0.3593
 6449TIP3   OH243541   1.560   1.832   1.158  0.2027  0.3667 -0.5184
 6449TIP3    H143542   1.510   1.837   1.076 -1.2220 -0.5419  0.2494
 6449TIP3    H243543   1.533   1.911   1.206  1.2089  1.0177 -0.9826
 6450TIP3   OH243544   0.527   3.777   3.116  0.1629 -0.0496  0.2132
 6450TIP3    H143545   0.604   3.783   3.059  0.5044  0.3545  0.7082
 6450TIP3    H243546   0.478   3.701   3.083  1.7543 -1.5285  1.0914
 6451TIP3   OH243547   5.925   5.108   3.627  0.0118 -0.4322  0.6698
 6451TIP3    H143548   5.960   5.069   3.707  0.1967  0.4819  1.0493
 6451TIP3    H243549   5.845   5.059   3.609  0.8091 -1.7022  0.5044
 6452TIP3   OH243550   3.096   4.465   2.022 -0.2084 -0.0474 -0.9735
 6452TIP3    H143551   3.090   4.560   2.015 -1.2552 -0.0486 -0.2026
 6452TIP3    H243552   3.183   4.450   2.060 -1.5053  0.8539  2.7370
 6453TIP3   OH243553   0.692   2.580   2.684  0.3126 -0.0052 -0.2198
 6453TIP3    H143554   0.785   2.598   2.701  1.0663 -0.0290 -3.5076
 6453TIP3    H243555   0.648   2.664   2.697  0.7491 -0.0044  1.4163
 6454TIP3   OH243556   4.547   1.163   0.405 -0.3909  0.0823  0.1443
 6454TIP3    H143557   4.560   1.243   0.456 -2.7375  1.0789 -0.6862
 6454TIP3    H243558   4.628   1.154   0.355 -0.2717  2.2775 -0.1686
 6455TIP3   OH243559   0.027   3.462   1.416 -0.2888  0.1654 -0.1845
 6455TIP3    H143560   0.077   3.532   1.457  0.3485  0.7100 -1.8361
 6455TIP3    H243561   0.038   3.387   1.474  0.6065  0.8963  0.6081
 6456TIP3   OH243562   5.061   0.021   1.669  0.0610 -0.1593 -0.0263
 6456TIP3    H143563   5.106   0.073   1.736  0.2246  2.3428 -1.9472
 6456TIP3    H243564   5.109  -0.062   1.668  0.7981  0.1697  2.1059
 6457TIP3   OH243565   5.863   3.506   1.114  0.4720  0.1012  0.1991
 6457TIP3    H143566   5.844   3.418   1.080 -0.3753  0.3755 -0.0703
 6457TIP3    H243567   5.782   3.532   1.158  0.1490  1.3718 -1.0769
 6458TIP3   OH243568   0.411   4.698   1.227  0.0197  0.0888  0.2901
 6458TIP3    H143569   0.352   4.699   1.151  0.2325  2.7522  0.0883
 6458TIP3    H243570   0.393   4.614   1.270 -2.0374 -0.3051 -1.1988
 6459TIP3   OH243571   5.729   6.635   1.998  0.0779  0.4909 -0.6110
 6459TIP3    H143572   5.690   6.695   2.061  0.3502 -0.4985  0.5289
 6459TIP3    H243573   5.721   6.549   2.039  2.4963  0.1091 -0.7924
 6460TIP3   OH243574   1.055   4.272   1.256  0.3635 -0.7040  0.0480
 6460TIP3    H143575   0.983   4.228   1.302 -0.1077  0.6897  0.6750
 6460TIP3    H243576   1.038   4.254   1.164 -3.4097  3.1686 -0.3134
 6461TIP3   OH243577   6.185   5.911   0.803 -0.3446  0.1302 -0.1861
 6461TIP3    H143578   6.114   5.959   0.847  1.1348  2.1419  0.1584
 6461TIP3    H243579   6.219   5.973   0.738  2.5595  0.1288  1.1957
 6462TIP3   OH243580   1.124   6.440   1.623  0.1711  1.0350  0.0811
 6462TIP3    H143581   1.039   6.475   1.596 -0.3144  0.4975  0.8580
 6462TIP3    H243582   1.136   6.362   1.569  0.6176  1.6138 -0.6831
 6463TIP3   OH243583   2.075   3.663   1.872 -0.5434  0.5554 -0.6129
 6463TIP3    H143584   2.046   3.728   1.937  0.2653  3.1225 -2.6419
 6463TIP3    H243585   1.995   3.630   1.833 -0.9657  0.8237  0.0081
 6464TIP3   OH243586   1.911   4.078   2.415  0.0447  0.3615  0.0540
 6464TIP3    H143587   1.931   4.008   2.477 -1.7397 -1.0070 -0.8224
 6464TIP3    H243588   1.996   4.105   2.381  1.0436  0.9264  2.8023
 6465TIP3   OH243589   0.552   7.628   1.046 -0.4294 -0.3366 -0.2274
 6465TIP3    H143590   0.550   7.610   0.952  0.7509 -1.1133 -0.1249
 6465TIP3    H243591   0.529   7.720   1.053  0.6183  0.0353 -1.3797
 6466TIP3   OH243592   6.570   6.691   2.561  0.1900  0.1017  0.0536
 6466TIP3    H143593   6.474   6.696   2.560  0.0762 -1.2990  1.3448
 6466TIP3    H243594   6.594   6.681   2.468 -1.0401 -1.1841 -0.1611
 6467TIP3   OH243595   3.422   3.769   1.925 -0.4511 -0.5812  0.3562
 6467TIP3    H143596   3.448   3.741   2.013  1.1392 -0.2759  0.0275
 6467TIP3    H243597   3.418   3.688   1.874  0.0300 -0.6289  0.3870
 6468TIP3   OH243598   0.592   4.044   2.112  0.2046 -0.0871 -0.4190
 6468TIP3    H143599   0.501   4.041   2.084  0.5032 -1.1438 -1.3541
 6468TIP3    H243600   0.631   3.965   2.075  1.1208 -0.5200  1.3581
 6469TIP3   OH243601   3.263   4.140   2.720 -0.0412  0.1520  0.0163
 6469TIP3    H143602   3.177   4.157   2.681 -0.2014 -1.1701 -0.2450
 6469TIP3    H243603   3.243   4.107   2.808  0.0055 -3.1665 -1.1061
 6470TIP3   OH243604   2.919   0.094   0.739 -0.1034 -0.2300 -0.0961
 6470TIP3    H143605   2.839   0.128   0.699 -0.4946 -1.1524 -0.1244
 6470TIP3    H243606   2.941   0.158   0.807  0.9486  1.7268 -2.1540
 6471TIP3   OH243607   3.503   7.491   2.576  0.4552 -0.1501 -0.2324
 6471TIP3    H143608   3.525   7.462   2.665 -1.4975 -0.4992  0.1931
 6471TIP3    H243609   3.575   7.459   2.522  2.3780  1.2248  1.3692
 6472TIP3   OH243610   4.301   0.065   0.570  0.2298  0.1182 -0.0080
 6472TIP3    H143611   4.336   0.147   0.535  2.7271 -0.7065  0.3425
 6472TIP3    H243612   4.305   0.076   0.665  2.2589 -0.9768  0.0851
 6473TIP3   OH243613   2.227   2.442   3.117  0.4878  0.0429 -0.2037
 6473TIP3    H143614   2.157   2.413   3.177  0.0360  1.4503 -0.0053
 6473TIP3    H243615   2.303   2.390   3.142 -0.4848 -1.5641 -0.4472
 6474TIP3   OH243616   4.940   1.870   0.572  0.1254 -0.5433 -0.2388
 6474TIP3    H143617   5.002   1.817   0.521 -0.5816 -1.3322 -0.2909
 6474TIP3    H243618   4.905   1.810   0.637 -0.6696 -0.1352 -0.2784
 6475TIP3   OH243619   7.311   1.304   2.259 -0.6267  0.3629 -0.0221
 6475TIP3    H143620   7.392   1.346   2.232 -0.1769 -1.0016 -0.8811
 6475TIP3    H243621   7.310   1.313   2.355 -0.3119  1.8339 -0.1302
 6476TIP3   OH243622   3.117   4.351   2.310  0.2530 -0.1560  0.2079
 6476TIP3    H143623   3.077   4.329   2.394 -1.7285  0.7154 -0.4240
 6476TIP3    H243624   3.064   4.304   2.246  0.9758  0.1275 -0.6179
 6477TIP3   OH243625   4.011   3.867   0.814 -0.3085 -0.5046  0.0482
 6477TIP3    H143626   3.959   3.910   0.881  2.0808  3.2040 -0.2052
 6477TIP3    H243627   3.985   3.911   0.732  2.4676  0.9272 -0.1753
 6478TIP3   OH243628   1.424   2.233   2.000 -0.1408 -0.3225 -0.0256
 6478TIP3    H143629   1.415   2.149   1.956 -0.8144 -0.6847  0.7971
 6478TIP3    H243630   1.349   2.285   1.968 -0.8239 -0.7012  0.9340
 6479TIP3   OH243631   6.068   5.058   2.247  0.7788  0.4207 -0.3131
 6479TIP3    H143632   6.008   5.073   2.320  2.0061 -0.2324  0.8810
 6479TIP3    H243633   6.128   5.133   2.249  0.8135  0.4058 -0.6639
 6480TIP3   OH243634   1.298   3.135   1.258  0.1243  0.8678 -0.0237
 6480TIP3    H143635   1.292   3.067   1.190  0.5925  0.1225  0.6696
 6480TIP3    H243636   1.358   3.200   1.221  1.1432  0.0026  0.0445
 6481TIP3   OH243637   2.052   6.096   2.609  0.4698  0.0787 -0.1420
 6481TIP3    H143638   2.115   6.125   2.675  1.0030  0.4075 -0.7865
 6481TIP3    H243639   2.039   6.003   2.628 -0.0850  0.3684  0.9872
 6482TIP3   OH243640   2.227   4.132   2.407 -0.0840 -0.1446  0.5138
 6482TIP3    H143641   2.274   4.079   2.471  0.7265  0.2111  0.2191
 6482TIP3    H243642   2.203   4.070   2.338 -2.0515 -0.7877  1.7113
 6483TIP3   OH243643   4.887   2.375   1.581  0.4576 -0.4055 -0.3830
 6483TIP3    H143644   4.916   2.440   1.517  0.5353  0.7575  0.7975
 6483TIP3    H243645   4.824   2.321   1.533 -1.5047  2.0601 -0.7828
 6484TIP3   OH243646   4.638   4.347   2.414  0.5147  0.4102 -0.3240
 6484TIP3    H143647   4.696   4.364   2.340  1.0211 -1.0812 -0.2945
 6484TIP3    H243648   4.555   4.322   2.373  0.3451  1.0013 -0.3623
 6485TIP3   OH243649   5.169   6.104   0.902  0.2332 -0.3049  0.4486
 6485TIP3    H143650   5.101   6.170   0.913  0.6169 -0.1167  1.7571
 6485TIP3    H243651   5.120   6.024   0.879 -0.4001 -0.0741  0.9619
 6486TIP3   OH243652   2.843   2.522   0.847  0.2731  0.0917  0.5706
 6486TIP3    H143653   2.811   2.601   0.890 -0.7322  0.2434 -0.4101
 6486TIP3    H243654   2.812   2.529   0.757 -3.3242 -3.2330  1.2918
 6487TIP3   OH243655   3.222   4.258   1.537  0.2679 -0.2035  0.1256
 6487TIP3    H143656   3.245   4.320   1.606 -1.3743  2.2491 -1.3640
 6487TIP3    H243657   3.259   4.296   1.457  1.5013 -2.5807 -0.5527
 6488TIP3   OH243658   0.447   4.985   1.242  0.7563 -0.0683  0.4724
 6488TIP3    H143659   0.359   5.021   1.239  0.7008 -0.2406 -1.1803
 6488TIP3    H243660   0.435   4.893   1.267  0.3446 -0.3329 -0.6179
 6489TIP3   OH243661   1.314   5.365   1.302 -0.2461 -0.0086 -0.3258
 6489TIP3    H143662   1.357   5.435   1.350 -0.4737 -0.5583  0.7207
 6489TIP3    H243663   1.222   5.391   1.298  0.1106  1.1680 -2.5652
 6490TIP3   OH243664   1.700   6.396   2.080 -0.0905  0.2337  0.0498
 6490TIP3    H143665   1.703   6.372   1.988 -0.0273 -0.8446  0.3185
 6490TIP3    H243666   1.612   6.430   2.094  0.8505  3.5048 -1.1143
 6491TIP3   OH243667   0.662   1.787   2.841  0.1721 -0.1015  0.2832
 6491TIP3    H143668   0.719   1.797   2.765 -0.8243  1.3359 -0.3253
 6491TIP3    H243669   0.644   1.877   2.869  1.1106 -0.5891  2.7182
 6492TIP3   OH243670   7.563   1.568   0.771  0.5167 -0.3391 -0.0130
 6492TIP3    H143671   7.658   1.580   0.760  0.3270  1.5184  0.0527
 6492TIP3    H243672   7.548   1.580   0.865  0.0180  1.2749 -0.2699
 6493TIP3   OH243673   6.804   2.356   2.357  0.2721  0.8796  0.5710
 6493TIP3    H143674   6.746   2.405   2.298  1.3655  0.7641 -0.6432
 6493TIP3    H243675   6.869   2.419   2.386  1.3149  0.3570 -0.5056
 6494TIP3   OH243676   7.608   5.548   0.892  0.1856  0.3081  0.2575
 6494TIP3    H143677   7.610   5.548   0.988  1.1162 -0.9338  0.2649
 6494TIP3    H243678   7.694   5.578   0.866 -0.0244  0.5318 -0.1927
 6495TIP3   OH243679   6.100   3.207   2.789  0.2635 -0.0361 -0.0075
 6495TIP3    H143680   6.042   3.274   2.754 -0.3947  0.3510  1.7061
 6495TIP3    H243681   6.042   3.135   2.814  0.5981 -0.0157  0.8954
 6496TIP3   OH243682   4.316   0.039   1.467  0.1921  0.3458  0.1833
 6496TIP3    H143683   4.235  -0.011   1.460  0.6762 -0.6718  1.3330
 6496TIP3    H243684   4.379  -0.024   1.504  1.7023  0.8839 -1.3288
 6497TIP3   OH243685   3.003   3.497   2.986  0.3393 -0.2482 -0.1452
 6497TIP3    H143686   3.067   3.500   2.914  1.2543  2.4429  0.6384
 6497TIP3    H243687   3.018   3.579   3.033 -1.3967 -1.1636  2.1302
 6498TIP3   OH243688   4.752   5.884   1.232  0.8101  0.7693 -0.2200
 6498TIP3    H143689   4.693   5.879   1.156  1.9061  0.7616 -1.0963
 6498TIP3    H243690   4.702   5.932   1.298 -0.2854  0.4993 -0.8274
 6499TIP3   OH243691   6.274   6.996   2.756  0.1626  0.1052 -0.0926
 6499TIP3    H143692   6.363   6.987   2.789  0.7337  2.4685 -0.7475
 6499TIP3    H243693   6.284   7.005   2.661 -1.0535 -2.2175 -0.5045
 6500TIP3   OH243694   2.851   1.344   1.365 -0.3490  0.6426  0.1824
 6500TIP3    H143695   2.764   1.381   1.348  0.1314  1.9465  0.4276
 6500TIP3    H243696   2.904   1.373   1.291  0.3222  1.4758  0.9556
 6501TIP3   OH243697   3.513   3.588   2.442 -0.3621  0.1115 -0.3802
 6501TIP3    H143698   3.421   3.564   2.428  0.0367 -0.3242 -2.7181
 6501TIP3    H243699   3.555   3.507   2.470 -0.2987 -0.2687 -1.5235
 6502TIP3   OH243700   0.860   2.063   1.330  0.2580 -0.2373  0.0713
 6502TIP3    H143701   0.767   2.047   1.343 -0.2391  1.3303 -1.1403
 6502TIP3    H243702   0.901   2.045   1.415 -0.9992 -1.7730  0.3840
 6503TIP3   OH243703   0.784   2.514   0.681 -0.0981 -0.5395 -0.1203
 6503TIP3    H143704   0.839   2.438   0.697  0.3906 -0.7489 -2.4490
 6503TIP3    H243705   0.695   2.478   0.673 -0.1472 -0.5951  0.5759
 6504TIP3   OH243706   4.943   0.872   0.689 -0.8112 -0.3397  0.3757
 6504TIP3    H143707   4.917   0.847   0.778 -0.1441  0.7167  0.8822
 6504TIP3    H243708   4.927   0.966   0.685  1.6544  0.1312  0.2821
 6505TIP3   OH243709   4.663   2.707   2.285  0.3855  0.4076  0.1182
 6505TIP3    H143710   4.630   2.768   2.351 -0.9062  0.4048 -0.5035
 6505TIP3    H243711   4.733   2.756   2.241  0.0973  1.0470  0.3509
 6506TIP3   OH243712   3.833   6.389   1.563 -0.1386 -0.4568 -0.0005
 6506TIP3    H143713   3.869   6.460   1.510  0.0677  0.0449  0.7925
 6506TIP3    H243714   3.881   6.311   1.535 -1.0237 -0.4776 -1.5447
 6507TIP3   OH243715   7.172   3.791   1.662 -0.0714 -0.4815 -0.3462
 6507TIP3    H143716   7.140   3.780   1.573 -0.3201 -0.4705 -0.2596
 6507TIP3    H243717   7.108   3.848   1.704  0.2026 -0.2453 -0.2448
 6508TIP3   OH243718   7.516   4.111   2.400  0.3208  0.3145  0.4349
 6508TIP3    H143719   7.525   4.164   2.479  0.9668  0.2202  0.4318
 6508TIP3    H243720   7.606   4.097   2.370  0.0715  0.8204 -0.6224
 6509TIP3   OH243721   6.790   1.928   0.890 -0.6476  0.1102  0.1465
 6509TIP3    H143722   6.843   2.007   0.892 -2.1294  1.1724 -0.4976
 6509TIP3    H243723   6.853   1.856   0.898  0.8161  1.3125 -0.1575
 6510TIP3   OH243724   4.114   2.489   0.997 -0.9762 -0.2688 -0.1908
 6510TIP3    H143725   4.071   2.519   0.916 -0.3713 -0.2208 -0.5031
 6510TIP3    H243726   4.051   2.428   1.036 -0.9056 -1.0026 -1.1753
 6511TIP3   OH243727   1.929   7.285   1.464  0.8407  0.0293 -0.5326
 6511TIP3    H143728   1.983   7.275   1.543 -0.7623  0.1596  0.6289
 6511TIP3    H243729   1.960   7.366   1.424  0.5021  0.9457  0.9674
 6512TIP3   OH243730   6.007   3.419   1.749  0.3871  0.4257 -0.3072
 6512TIP3    H143731   5.987   3.475   1.674  0.3853  0.1219 -0.5377
 6512TIP3    H243732   5.992   3.474   1.825 -0.3002  0.5252 -0.5091
 6513TIP3   OH243733   0.152   1.347   1.218 -0.0978 -0.2733  0.2952
 6513TIP3    H143734   0.116   1.310   1.137 -1.4991  0.1607  0.6846
 6513TIP3    H243735   0.243   1.319   1.219  1.0923  2.7202 -3.2486
 6514TIP3   OH243736   7.359   5.875   2.671 -0.0801 -0.5717 -0.2876
 6514TIP3    H143737   7.384   5.801   2.616 -1.4563 -0.5980 -0.8978
 6514TIP3    H243738   7.410   5.949   2.637  1.3909 -1.2291  0.3999
 6515TIP3   OH243739   3.223   1.406   3.119  0.0817  0.1924 -0.7246
 6515TIP3    H143740   3.270   1.328   3.147  0.8418  0.8842 -0.0038
 6515TIP3    H243741   3.131   1.384   3.132  0.3405  0.1586  1.6617
 6516TIP3   OH243742   0.610   0.852   2.437  0.1446 -0.2256 -0.1778
 6516TIP3    H143743   0.668   0.899   2.377 -0.9084  1.8336  0.3268
 6516TIP3    H243744   0.663   0.779   2.470  2.0963  0.9849 -0.4863
 6517TIP3   OH243745   2.063   2.802   1.838  0.5064  0.0195 -0.1916
 6517TIP3    H143746   2.049   2.709   1.855  0.3006 -0.1404 -1.1797
 6517TIP3    H243747   1.975   2.838   1.823  0.4253  0.7070  1.6989
 6518TIP3   OH243748   1.430   5.967   1.563 -0.2694 -0.0440  0.1553
 6518TIP3    H143749   1.460   5.943   1.475  0.6068  0.2481  0.3594
 6518TIP3    H243750   1.454   5.892   1.617  0.3146  0.2761  0.3581
 6519TIP3   OH243751   1.713   1.220   2.713  0.3693 -0.3793  0.3995
 6519TIP3    H143752   1.732   1.174   2.794 -0.5488 -0.6929  0.4473
 6519TIP3    H243753   1.726   1.312   2.734 -1.0444 -0.3489  1.2692
 6520TIP3   OH243754   4.791   1.150   0.618 -0.0057 -0.6891  0.3711
 6520TIP3    H143755   4.715   1.136   0.674 -1.1733  1.6104 -0.5252
 6520TIP3    H243756   4.821   1.238   0.639  0.2022 -0.1830 -1.7593
 6521TIP3   OH243757   6.321   2.603   0.906  0.2115 -0.4014  0.0681
 6521TIP3    H143758   6.346   2.551   0.982  1.5823  0.8362  0.5009
 6521TIP3    H243759   6.292   2.687   0.942 -1.2950 -0.5691 -0.6633
 6522TIP3   OH243760   0.144   4.208   3.449 -0.1905 -0.0559 -0.2806
 6522TIP3    H143761   0.120   4.299   3.466  0.7309  0.0217  0.7273
 6522TIP3    H243762   0.061   4.166   3.424 -0.1734  1.6328 -3.6679
 6523TIP3   OH243763   2.756   2.990   3.096 -0.0496 -0.6023 -0.3090
 6523TIP3    H143764   2.728   3.005   3.006 -2.4964 -0.2061  0.4619
 6523TIP3    H243765   2.694   3.039   3.150  0.9228 -1.4001  1.6414
 6524TIP3   OH243766   5.518   1.938   1.692  0.1434 -0.2593 -0.0406
 6524TIP3    H143767   5.439   1.968   1.738  0.7413  1.3578 -0.0044
 6524TIP3    H243768   5.486   1.908   1.608 -0.4763  0.9744 -0.2725
 6525TIP3   OH243769   4.435   7.529   0.713 -0.7564 -0.0968  0.1384
 6525TIP3    H143770   4.368   7.518   0.645  1.5509 -1.5438 -2.1065
 6525TIP3    H243771   4.484   7.606   0.685 -0.5415  0.0595  0.9227
 6526TIP3   OH243772   3.844   1.938   1.643  0.3756  0.3458  0.4219
 6526TIP3    H143773   3.757   1.922   1.605  0.5344 -1.6503  0.8072
 6526TIP3    H243774   3.826   1.965   1.733  0.1485 -0.9231  0.7748
 6527TIP3   OH243775   7.452   0.823   0.512  0.4756 -0.2749 -0.1202
 6527TIP3    H143776   7.520   0.755   0.517 -1.8360 -2.9850 -2.3482
 6527TIP3    H243777   7.393   0.803   0.585 -0.4931 -1.0624 -1.0916
 6528TIP3   OH243778   2.879   5.089   0.714  0.6372  0.3470 -0.4057
 6528TIP3    H143779   2.837   5.007   0.689  0.2791  0.5886 -0.5920
 6528TIP3    H243780   2.949   5.100   0.650  0.6890  0.1860 -0.3784
 6529TIP3   OH243781   5.996   0.616   0.916 -0.0933  0.3748  0.7755
 6529TIP3    H143782   6.072   0.577   0.959 -0.8760  0.2182  2.0552
 6529TIP3    H243783   6.033   0.685   0.861  1.1818 -1.1221 -0.3522
 6530TIP3   OH243784   4.920   4.477   1.139 -0.4567 -0.5751  0.3576
 6530TIP3    H143785   4.902   4.556   1.088  0.7351  0.0186  0.7971
 6530TIP3    H243786   4.974   4.423   1.081  1.4034  0.3618  1.1262
 6531TIP3   OH243787   7.400   3.361   1.800 -0.0428  0.3475 -0.0708
 6531TIP3    H143788   7.377   3.392   1.713 -0.9187  0.2950  0.1290
 6531TIP3    H243789   7.360   3.424   1.860  1.5664  1.0685  0.2948
 6532TIP3   OH243790   3.244   0.627   2.631  0.4626 -0.0328  0.3801
 6532TIP3    H143791   3.197   0.598   2.710 -0.7941  0.6906 -0.0704
 6532TIP3    H243792   3.209   0.714   2.614 -0.2159 -0.6671 -1.6998
 6533TIP3   OH243793   7.564   1.913   3.422  0.8300 -0.1804  0.2562
 6533TIP3    H143794   7.584   1.821   3.441 -1.3739 -0.6565  0.5436
 6533TIP3    H243795   7.627   1.938   3.356  0.6929 -2.3065 -0.7742
 6534TIP3   OH243796   6.026   6.092   0.940  0.1562 -0.1948  0.4351
 6534TIP3    H143797   6.006   6.041   1.018  3.0384  0.3035  1.6276
 6534TIP3    H243798   5.971   6.170   0.947 -0.2758 -0.5865  1.4921
 6535TIP3   OH243799   5.283   6.922   2.133 -0.3208 -0.0789 -0.0328
 6535TIP3    H143800   5.277   6.990   2.065 -0.6873 -0.8245 -0.7782
 6535TIP3    H243801   5.203   6.933   2.184 -0.0891  0.4319  0.2199
 6536TIP3   OH243802   1.537   4.645   2.800  0.2828  0.1996 -0.1194
 6536TIP3    H143803   1.619   4.617   2.842 -0.4995 -1.8435  0.2013
 6536TIP3    H243804   1.503   4.565   2.759 -0.9909  1.2590 -1.2064
 6537TIP3   OH243805   0.041   1.330   2.647 -0.0123  0.0304 -0.0165
 6537TIP3    H143806  -0.036   1.301   2.694  0.4254 -0.5264  0.3733
 6537TIP3    H243807   0.054   1.421   2.674  0.3321 -0.3278  1.0896
 6538TIP3   OH243808   5.185   5.725   1.617  0.3439  0.1019  0.1457
 6538TIP3    H143809   5.095   5.725   1.652 -0.4483  0.0068 -1.7516
 6538TIP3    H243810   5.188   5.801   1.559  0.9493 -0.7657 -1.0243
 6539TIP3   OH243811   5.931   6.569   2.260 -0.0307  0.4328  0.1136
 6539TIP3    H143812   5.856   6.534   2.211  0.5290  0.3819 -0.7356
 6539TIP3    H243813   5.895   6.641   2.311 -0.6308  0.5116 -0.4099
 6540TIP3   OH243814   6.687   3.692   0.836  0.1316 -0.6654 -0.0957
 6540TIP3    H143815   6.739   3.699   0.916 -1.2407 -0.0669  0.7841
 6540TIP3    H243816   6.605   3.737   0.857  0.1773  0.5291 -2.2265
 6541TIP3   OH243817   4.825   4.443   0.830  0.0024 -0.1197  0.2098
 6541TIP3    H143818   4.835   4.476   0.741 -1.1490 -1.1759 -0.3338
 6541TIP3    H243819   4.848   4.518   0.886  1.8222  0.2367 -0.9289
 6542TIP3   OH243820   5.223   6.104   1.890  0.3861  0.0381  0.0420
 6542TIP3    H143821   5.260   6.191   1.905 -0.7010  0.7615 -1.3156
 6542TIP3    H243822   5.289   6.059   1.838  0.0443  0.8145 -1.1028
 6543TIP3   OH243823   6.590   5.936   1.308 -0.3839 -0.4741 -0.1648
 6543TIP3    H143824   6.513   5.946   1.364 -0.1153 -3.5814  0.9655
 6543TIP3    H243825   6.560   5.963   1.221 -3.0579 -2.3225  0.0546
 6544TIP3   OH243826   2.059   4.463   0.395 -0.3647 -0.0234  0.1203
 6544TIP3    H143827   2.115   4.387   0.411 -1.4331 -1.0615 -0.9053
 6544TIP3    H243828   1.972   4.435   0.421 -0.9154  0.5829 -0.9751
 6545TIP3   OH243829   1.340   3.819   0.831 -0.3235 -0.3535  0.3020
 6545TIP3    H143830   1.328   3.824   0.926 -2.0721 -2.8806  0.3177
 6545TIP3    H243831   1.417   3.873   0.814 -0.8919  1.5060  2.9182
 6546TIP3   OH243832   2.212   6.486   2.041  0.4340  0.6098 -0.3903
 6546TIP3    H143833   2.178   6.410   1.994  0.4830 -0.8461  1.7583
 6546TIP3    H243834   2.137   6.519   2.091  0.9148  0.6279  0.3399
 6547TIP3   OH243835   6.248   6.471   1.425  0.0519  0.1375 -0.8986
 6547TIP3    H143836   6.202   6.521   1.358 -0.6340  0.5908 -0.1067
 6547TIP3    H243837   6.268   6.387   1.383 -2.7346 -0.6490 -0.8371
 6548TIP3   OH243838   5.098   7.143   0.587 -0.3720 -0.1421 -0.1460
 6548TIP3    H143839   5.187   7.178   0.580  0.1773 -1.6066 -1.0177
 6548TIP3    H243840   5.041   7.219   0.576  0.7670  0.6665 -0.6748
 6549TIP3   OH243841   4.188   2.112   2.146 -0.0972 -0.0792  0.4482
 6549TIP3    H143842   4.213   2.047   2.211  1.1990 -1.5782 -1.4480
 6549TIP3    H243843   4.114   2.158   2.186  1.5189  0.0606  3.5297
 6550TIP3   OH243844   1.113   2.670   1.595  0.6445 -0.0281  0.3416
 6550TIP3    H143845   1.197   2.647   1.553  1.2182 -0.2888  1.5833
 6550TIP3    H243846   1.103   2.605   1.665  0.4272  1.2364  1.5225
 6551TIP3   OH243847   6.612   0.633   2.220  0.1815 -0.4814 -0.0300
 6551TIP3    H143848   6.524   0.670   2.221  1.3892  2.9073 -1.9273
 6551TIP3    H243849   6.615   0.579   2.141 -0.3929 -1.3083  0.4989
 6552TIP3   OH243850   6.165   4.358   1.266 -0.4318 -0.3355  0.0661
 6552TIP3    H143851   6.217   4.286   1.300 -0.3754 -1.0477 -1.4761
 6552TIP3    H243852   6.075   4.334   1.285 -0.3560 -0.3251  0.4465
 6553TIP3   OH243853   0.138   6.817   0.711  0.0081 -0.2831  0.3581
 6553TIP3    H143854   0.197   6.840   0.639 -0.4036 -0.9100 -0.1903
 6553TIP3    H243855   0.114   6.901   0.750 -0.1556  0.1041 -0.5500
 6554TIP3   OH243856   7.536   0.498   0.749 -0.0781  0.3966  0.3629
 6554TIP3    H143857   7.527   0.441   0.825  1.1106 -0.5870 -0.1854
 6554TIP3    H243858   7.448   0.507   0.714 -0.3972 -0.4786  0.9208
 6555TIP3   OH243859   4.470   6.993   1.608 -0.0579  0.0292 -0.1207
 6555TIP3    H143860   4.488   7.010   1.515  1.4725  0.1576  0.1665
 6555TIP3    H243861   4.428   7.073   1.640 -0.4166  0.0557 -0.6456
 6556TIP3   OH243862   1.306   2.560   1.768  0.1165  0.2780 -0.1055
 6556TIP3    H143863   1.365   2.489   1.744  2.0205  1.2869  1.3375
 6556TIP3    H243864   1.351   2.640   1.742 -1.4408  1.0448 -0.6059
 6557TIP3   OH243865   0.312   2.567   0.587  0.1277 -0.1063  0.2875
 6557TIP3    H143866   0.305   2.643   0.530  1.1590  0.1515  0.4737
 6557TIP3    H243867   0.263   2.590   0.666 -2.3777 -0.9444 -0.9172
 6558TIP3   OH243868   1.434   1.043   2.328  0.7298  0.0949 -0.0496
 6558TIP3    H143869   1.396   1.088   2.252  0.3922 -1.3070 -0.7544
 6558TIP3    H243870   1.484   1.110   2.373 -0.7567  1.4739 -0.3497
 6559TIP3   OH243871   0.700   2.090   3.340 -0.0370 -0.0605  1.0574
 6559TIP3    H143872   0.608   2.065   3.335  0.2622 -1.1898  1.0327
 6559TIP3    H243873   0.712   2.118   3.431  0.1766 -2.3988  1.8169
 6560TIP3   OH243874   3.118   1.599   2.949 -0.0152  0.4022 -0.0855
 6560TIP3    H143875   3.083   1.522   2.904  0.5095 -0.2910  0.6605
 6560TIP3    H243876   3.190   1.565   3.003  2.1734  1.8322 -1.9263
 6561TIP3   OH243877   6.168   0.077   1.128  0.2063  0.7548  0.5305
 6561TIP3    H143878   6.260   0.100   1.142  0.4038  0.7666 -0.6922
 6561TIP3    H243879   6.169   0.021   1.050 -0.6371 -0.7309  1.5419
 6562TIP3   OH243880   0.694   3.312   3.639 -0.4131 -0.3364  0.2292
 6562TIP3    H143881   0.717   3.220   3.657  0.3378 -0.3415 -0.6774
 6562TIP3    H243882   0.599   3.310   3.626 -0.7099 -0.6520  2.0752
 6563TIP3   OH243883   6.862   5.596   1.198 -0.2545  0.0898  0.0662
 6563TIP3    H143884   6.867   5.505   1.227  1.6831  0.3112  0.5267
 6563TIP3    H243885   6.832   5.645   1.275 -0.8829 -0.0858 -0.0600
 6564TIP3   OH243886   6.048   7.624   0.719  0.3323  0.6687 -0.0361
 6564TIP3    H143887   6.119   7.687   0.731 -0.3136  1.4024 -0.0026
 6564TIP3    H243888   5.968   7.676   0.722 -0.3040 -0.3118  1.3126
 6565TIP3   OH243889   2.449   5.921   1.352 -0.0223  0.0186 -0.8718
 6565TIP3    H143890   2.460   6.002   1.402 -0.3367  0.0225 -0.8117
 6565TIP3    H243891   2.513   5.928   1.281  1.7879 -0.8029  0.5763
 6566TIP3   OH243892   3.021   1.853   2.914  0.1891 -0.1459 -0.3570
 6566TIP3    H143893   2.946   1.882   2.965  1.1330 -0.2505  1.1704
 6566TIP3    H243894   3.032   1.761   2.937  1.1518  0.0309 -0.0282
 6567TIP3   OH243895   7.565   5.616   1.160 -0.0585 -0.4744  0.0728
 6567TIP3    H143896   7.543   5.537   1.209  0.1829  0.2081  1.3308
 6567TIP3    H243897   7.482   5.660   1.146 -0.1311 -0.6825 -0.1567
 6568TIP3   OH243898   7.277   1.455   1.674  0.0067 -0.4727  0.4372
 6568TIP3    H143899   7.246   1.429   1.587 -1.7424 -1.8131  1.3833
 6568TIP3    H243900   7.253   1.547   1.681  2.4992  0.4015 -1.4144
 6569TIP3   OH243901   6.975   7.507   1.255  0.7517 -0.3439  0.0417
 6569TIP3    H143902   7.037   7.443   1.221 -0.3362 -0.8870 -0.9750
 6569TIP3    H243903   6.966   7.485   1.348  0.7090 -1.4205 -0.2060
 6570TIP3   OH243904   7.632   0.320   1.668  0.2398  0.2685  0.3274
 6570TIP3    H143905   7.711   0.311   1.615  0.6765 -0.8108  1.1113
 6570TIP3    H243906   7.647   0.397   1.722  0.3405  0.6180 -0.1871
 6571TIP3   OH243907   6.948   1.596   1.336  0.6106  0.1508  0.2312
 6571TIP3    H143908   6.871   1.614   1.282  1.0457  3.1772  0.4517
 6571TIP3    H243909   7.017   1.573   1.274  0.1543 -0.1135 -0.1807
 6572TIP3   OH243910   2.073   6.778   1.388 -0.2935  0.4294 -0.1035
 6572TIP3    H143911   2.038   6.857   1.428 -0.0326 -0.9943  3.1969
 6572TIP3    H243912   2.167   6.795   1.379 -0.3826  0.8268 -0.3058
 6573TIP3   OH243913   3.391   6.611   2.941 -0.3080  0.2921 -0.3746
 6573TIP3    H143914   3.458   6.643   3.001  0.8688 -0.2008 -1.3749
 6573TIP3    H243915   3.378   6.519   2.966 -0.2821  0.2652 -0.4589
 6574TIP3   OH243916   1.908   3.381   2.018  0.3601 -0.1628 -0.1110
 6574TIP3    H143917   1.953   3.329   2.084  1.6624  0.2411 -0.6463
 6574TIP3    H243918   1.896   3.321   1.944 -0.7691 -0.5107  0.3369
 6575TIP3   OH243919   1.206   3.051   1.803  0.3593 -0.2837  0.8620
 6575TIP3    H143920   1.251   3.021   1.724 -2.4891 -1.1920 -0.5277
 6575TIP3    H243921   1.205   3.147   1.795 -0.7879 -0.3971 -0.7952
 6576TIP3   OH243922   5.454   3.958   2.268  0.1777  0.2813 -0.1671
 6576TIP3    H143923   5.368   3.947   2.307 -0.0394 -0.2107 -0.7730
 6576TIP3    H243924   5.496   3.872   2.277 -0.5646 -0.4185 -2.6163
 6577TIP3   OH243925   0.602   0.404   1.158 -0.0987  0.2068 -0.5630
 6577TIP3    H143926   0.686   0.435   1.125  0.8020 -0.3774  1.0857
 6577TIP3    H243927   0.600   0.433   1.249 -1.4743 -0.2232 -0.4325
 6578TIP3   OH243928   5.660   0.444   1.829 -0.1674 -0.2292 -0.1698
 6578TIP3    H143929   5.645   0.463   1.737 -0.1662  2.0178  0.2485
 6578TIP3    H243930   5.698   0.356   1.830 -0.5905 -0.4755 -2.2476
 6579TIP3   OH243931   0.884   3.456   0.625 -0.1345  0.4614  0.1678
 6579TIP3    H143932   0.844   3.369   0.629  0.1670  0.3626  1.6097
 6579TIP3    H243933   0.837   3.507   0.692 -1.0868  1.7686 -1.4075
 6580TIP3   OH243934   1.638   3.398   3.063  0.9033 -0.1673  0.0458
 6580TIP3    H143935   1.714   3.446   3.096  1.5906 -2.8619  2.8974
 6580TIP3    H243936   1.572   3.409   3.131 -0.6857  0.6807 -1.5709
 6581TIP3   OH243937   0.941   2.181   2.590  0.5866  0.1317 -0.5379
 6581TIP3    H143938   0.978   2.112   2.645  1.8040  1.3781  0.2648
 6581TIP3    H243939   0.855   2.198   2.628  0.1380 -1.1473 -0.9427
 6582TIP3   OH243940   5.756   2.854   1.742  0.4405  0.0217  0.0485
 6582TIP3    H143941   5.708   2.886   1.818 -0.0738  1.5402 -0.8595
 6582TIP3    H243942   5.723   2.766   1.727  2.2828 -1.3350  2.9717
 6583TIP3   OH243943   0.242   3.785   2.354  0.0338  0.1226 -1.0888
 6583TIP3    H143944   0.300   3.718   2.318  0.9953 -0.0881  0.7131
 6583TIP3    H243945   0.300   3.859   2.372 -0.1217 -0.1927  1.0122
 6584TIP3   OH243946   3.666   5.171   1.300  0.2921  0.0607 -0.5584
 6584TIP3    H143947   3.575   5.175   1.273  0.1011 -1.6015 -0.2264
 6584TIP3    H243948   3.671   5.228   1.377 -0.3520  0.4970 -0.8329
 6585TIP3   OH243949   5.107   6.250   2.426 -0.3359  0.0049  0.7102
 6585TIP3    H143950   5.121   6.344   2.414  0.4346 -0.2293 -0.4584
 6585TIP3    H243951   5.172   6.224   2.491  1.3736 -0.1698 -0.9718
 6586TIP3   OH243952   1.887   0.656   1.828  0.4995 -0.3580 -1.3347
 6586TIP3    H143953   1.916   0.700   1.748  0.7427 -0.1226 -1.1156
 6586TIP3    H243954   1.794   0.638   1.812  0.4838 -0.0803 -1.5664
 6587TIP3   OH243955   2.500   7.053   1.870 -0.2485 -0.2709 -0.2895
 6587TIP3    H143956   2.565   7.123   1.877  1.1120 -1.5498  0.3815
 6587TIP3    H243957   2.426   7.094   1.825  0.5938  1.5171 -0.1438
 6588TIP3   OH243958   1.352   1.438   1.726 -0.1226 -0.3870  0.5401
 6588TIP3    H143959   1.370   1.361   1.671 -2.6368  1.3557 -3.1689
 6588TIP3    H243960   1.285   1.409   1.787  1.1485 -1.8463  1.3062
 6589TIP3   OH243961   5.965   5.232   1.034  0.1474  0.3098  0.4304
 6589TIP3    H143962   5.962   5.278   1.118 -1.0239  1.4481 -0.2056
 6589TIP3    H243963   5.953   5.301   0.969  3.3846 -0.1463 -0.8667
 6590TIP3   OH243964   5.280   3.421   2.089  0.3983  0.0696 -0.0926
 6590TIP3    H143965   5.314   3.487   2.150  0.7120  0.8472 -1.0883
 6590TIP3    H243966   5.228   3.363   2.144  1.3547  0.2572  1.0685
 6591TIP3   OH243967   7.094   7.063   2.795  0.4051  0.1213 -0.1345
 6591TIP3    H143968   7.106   7.103   2.709  1.2977 -1.9926 -1.0723
 6591TIP3    H243969   7.159   7.104   2.851  1.3348 -0.0375 -1.0793
 6592TIP3   OH243970   2.909   5.616   1.880 -0.4290 -0.1365  0.5798
 6592TIP3    H143971   2.984   5.673   1.896 -0.4251 -0.4454  1.7527
 6592TIP3    H243972   2.899   5.616   1.785  0.0339  1.2056  0.5101
 6593TIP3   OH243973   2.484   4.398   1.794  0.5761  0.3542  0.0359
 6593TIP3    H143974   2.452   4.457   1.727 -0.1780  0.4348  0.4619
 6593TIP3    H243975   2.446   4.430   1.876 -1.0626 -1.5437  0.0980
 6594TIP3   OH243976   1.618   3.381   1.656  0.0858 -0.7174  0.3994
 6594TIP3    H143977   1.604   3.383   1.751 -1.1924 -0.3399  0.2288
 6594TIP3    H243978   1.582   3.296   1.628 -1.8569  0.1920 -0.0314
 6595TIP3   OH243979   1.011   3.983   0.618  0.0657 -0.4495 -0.4390
 6595TIP3    H143980   1.066   3.917   0.575  1.0851 -1.6379  2.4478
 6595TIP3    H243981   0.954   3.933   0.676 -0.3133  1.1219  0.6045
 6596TIP3   OH243982   4.486   5.069   1.007 -0.1546  0.0840 -0.1053
 6596TIP3    H143983   4.480   5.164   0.997 -1.1693 -0.0418 -0.8049
 6596TIP3    H243984   4.404   5.035   0.972 -0.0106 -1.0296  0.5570
 6597TIP3   OH243985   6.483   4.064   2.311 -0.3079  0.0482  0.1354
 6597TIP3    H143986   6.552   4.081   2.247  0.2804  1.2243  1.0362
 6597TIP3    H243987   6.519   3.995   2.367  0.2984  0.8600  0.7826
 6598TIP3   OH243988   6.719   2.241   1.309  0.1828 -0.1266 -0.0176
 6598TIP3    H143989   6.758   2.154   1.319 -2.1520 -1.2533 -0.0574
 6598TIP3    H243990   6.655   2.248   1.379 -1.2654  0.6048 -1.3300
 6599TIP3   OH243991   4.726   6.283   2.715  0.5280  0.3684 -0.4684
 6599TIP3    H143992   4.717   6.345   2.787  1.4265  0.7236 -0.6582
 6599TIP3    H243993   4.805   6.233   2.735  0.6271  0.2760 -1.0681
 6600TIP3   OH243994   1.918   6.944   2.686  0.3229  0.2384 -0.2340
 6600TIP3    H143995   1.938   7.038   2.688 -0.6959  0.5375 -1.9184
 6600TIP3    H243996   1.824   6.940   2.702  0.4914 -0.5697  0.5786
 6601TIP3   OH243997   4.265   3.841   0.711 -0.0953 -0.0157 -0.1490
 6601TIP3    H143998   4.253   3.926   0.668 -0.6480 -0.9065 -1.8292
 6601TIP3    H243999   4.187   3.831   0.766 -0.6117  0.0420 -0.8601
 6602TIP3   OH244000   3.749   0.330   2.178 -0.5755  0.1552  0.5312
 6602TIP3    H144001   3.669   0.317   2.229 -1.2726 -0.3006 -0.6405
 6602TIP3    H244002   3.788   0.242   2.171 -1.1627 -0.0308 -0.7671
 6603TIP3   OH244003   1.662   3.509   1.913 -0.0324  0.2612 -0.3975
 6603TIP3    H144004   1.642   3.592   1.956  0.9609 -0.1040  0.8386
 6603TIP3    H244005   1.730   3.470   1.968 -1.1925 -1.8360 -0.3377
 6604TIP3   OH244006   4.709   4.269   2.966  0.6639  0.1745  0.5849
 6604TIP3    H144007   4.639   4.329   2.992  0.8149  0.0316  1.3459
 6604TIP3    H244008   4.755   4.315   2.896 -0.5543  0.0177 -0.3396
 6605TIP3   OH244009   4.443   0.290   0.491 -0.2563 -0.5948 -0.3267
 6605TIP3    H144010   4.427   0.340   0.571 -0.9095 -1.4450  0.0803
 6605TIP3    H244011   4.535   0.262   0.498  0.5228  1.5391 -1.1384
 6606TIP3   OH244012   2.353   6.454   2.890 -0.3044 -0.2219 -0.2850
 6606TIP3    H144013   2.357   6.385   2.956 -1.7680 -0.2048 -0.1495
 6606TIP3    H244014   2.351   6.535   2.941 -1.5222 -0.2115 -0.3314
 6607TIP3   OH244015   4.002   0.475   0.356  0.3472  1.0094 -0.0476
 6607TIP3    H144016   4.075   0.434   0.309  1.6661  1.7600  1.2325
 6607TIP3    H244017   4.039   0.557   0.390 -0.7707  0.9098  1.5362
 6608TIP3   OH244018   3.499   6.111   2.615 -0.2003 -0.2529 -0.2881
 6608TIP3    H144019   3.531   6.021   2.608  1.6011  0.3428 -0.2728
 6608TIP3    H244020   3.537   6.143   2.697 -0.9750  0.4734 -0.2043
 6609TIP3   OH244021   4.736   7.450   2.270 -0.0132 -0.1351  0.2252
 6609TIP3    H144022   4.711   7.358   2.284  0.3457 -0.1387  0.8618
 6609TIP3    H244023   4.686   7.499   2.334 -0.2060  0.1164 -0.1178
 6610TIP3   OH244024   6.191   4.214   7.359 -0.2978 -0.7233 -0.0325
 6610TIP3    H144025   6.261   4.229   7.295 -1.3600  0.0529 -1.0607
 6610TIP3    H244026   6.121   4.274   7.332 -1.5725 -1.8516  0.6426
 6611TIP3   OH244027   1.921   6.233   1.595 -0.4059 -0.2194 -0.5455
 6611TIP3    H144028   1.841   6.190   1.567 -1.7108  0.1684  2.2875
 6611TIP3    H244029   1.894   6.294   1.664  2.1888  0.6676 -0.1750
 6612TIP3   OH244030   2.873   4.625   3.323 -0.5052 -0.0121  0.5239
 6612TIP3    H144031   2.846   4.577   3.401 -0.8792  1.2918  1.2205
 6612TIP3    H244032   2.861   4.562   3.251 -2.0205 -0.6247  1.2669
 6613TIP3   OH244033   2.662   4.786   3.186  0.5404 -0.2351  0.2173
 6613TIP3    H144034   2.692   4.744   3.267 -0.5659  0.9079  1.2453
 6613TIP3    H244035   2.592   4.844   3.213 -0.1203 -0.1095 -1.6368
 6614TIP3   OH244036   0.645   6.047   2.214  0.1203  0.2731 -0.4871
 6614TIP3    H144037   0.674   5.963   2.179 -1.7027 -0.3488 -0.5742
 6614TIP3    H244038   0.630   6.102   2.137 -0.7465 -0.0337 -0.5460
 6615TIP3   OH244039   7.202   4.256   0.783  0.6058 -0.0133 -0.0371
 6615TIP3    H144040   7.216   4.162   0.793 -0.2904 -0.0046  1.6781
 6615TIP3    H244041   7.108   4.264   0.764  0.4906  0.5582  0.7025
 6616TIP3   OH244042   1.366   1.124   2.036  0.0983  0.1792 -0.1029
 6616TIP3    H144043   1.330   1.069   1.967  1.6858 -1.1474  0.0804
 6616TIP3    H244044   1.428   1.181   1.992 -1.2991  1.6783 -0.2391
 6617TIP3   OH244045   5.143   3.142   2.488  0.0401 -0.0691  0.3317
 6617TIP3    H144046   5.184   3.145   2.574  1.6641  0.4939 -0.4175
 6617TIP3    H244047   5.162   3.053   2.456 -0.1459 -0.1225  0.3720
 6618TIP3   OH244048   0.725   7.628   2.936  0.5696  0.3417  0.1916
 6618TIP3    H144049   0.707   7.676   2.854 -0.0806  0.9929  0.7027
 6618TIP3    H244050   0.738   7.538   2.908 -1.5254  0.1852 -0.4530
 6619TIP3   OH244051   7.269   1.643   1.441 -0.3480  0.0772 -0.4736
 6619TIP3    H144052   7.233   1.584   1.375 -0.3170 -1.1370  0.5382
 6619TIP3    H244053   7.363   1.646   1.423 -0.3017 -0.4600 -0.3400
 6620TIP3   OH244054   2.204   6.075   2.108  0.7378  0.2000 -0.1163
 6620TIP3    H144055   2.188   6.127   2.029 -2.4418 -0.1842  0.1516
 6620TIP3    H244056   2.299   6.079   2.120  1.0590  2.4214 -2.4622
 6621TIP3   OH244057   7.614   5.494   1.833 -0.3662  0.2021  0.0756
 6621TIP3    H144058   7.606   5.583   1.801 -0.3776  0.6005  1.1522
 6621TIP3    H244059   7.689   5.496   1.893 -0.7379 -0.3580  0.5828
 6622TIP3   OH244060   3.902   4.163   1.090  0.2563 -0.1252 -0.3338
 6622TIP3    H144061   3.943   4.129   1.171 -1.7269 -3.0917 -0.4271
 6622TIP3    H244062   3.964   4.140   1.021  1.5341  1.6035  0.1693
 6623TIP3   OH244063   5.712   7.222   0.924  0.1715  0.2166  0.5637
 6623TIP3    H144064   5.790   7.167   0.920 -0.6444 -0.9438  0.0593
 6623TIP3    H244065   5.679   7.224   0.834 -1.1776 -0.5288  1.0153
 6624TIP3   OH244066   0.503   0.816   3.071  0.4074 -0.1558  0.5597
 6624TIP3    H144067   0.531   0.749   3.009 -1.6645  0.8730 -1.6442
 6624TIP3    H244068   0.583   0.865   3.091  1.4459 -1.6039  0.1101
 6625TIP3   OH244069   1.998   2.535   1.187 -0.2929  0.0687 -0.4041
 6625TIP3    H144070   2.065   2.602   1.203 -0.4895 -0.2159  2.1857
 6625TIP3    H244071   1.918   2.571   1.226 -0.8861 -0.8270 -0.7593
 6626TIP3   OH244072   3.759   6.399   2.616 -0.1392 -0.1725 -0.5788
 6626TIP3    H144073   3.804   6.446   2.686  0.9361  0.2777 -1.5384
 6626TIP3    H244074   3.805   6.424   2.536 -0.3398 -1.8541 -1.2794
 6627TIP3   OH244075   5.806   3.164   0.788 -0.1695  0.4753 -0.2931
 6627TIP3    H144076   5.834   3.074   0.771 -1.6453 -0.1574  0.4353
 6627TIP3    H244077   5.787   3.167   0.882 -0.7105  1.3650 -0.4106
 6628TIP3   OH244078   3.916   2.694   1.408  0.4259 -0.0171  0.0386
 6628TIP3    H144079   3.990   2.734   1.363  0.1048 -1.0767 -1.5038
 6628TIP3    H244080   3.856   2.767   1.424  0.4333  0.3635 -1.5216
 6629TIP3   OH244081   7.023   2.750   0.755 -0.1948 -0.0013  0.4990
 6629TIP3    H144082   6.993   2.796   0.676 -0.8093  1.7506  1.6743
 6629TIP3    H244083   7.066   2.671   0.722  0.6544  1.2577 -1.6399
 6630TIP3   OH244084   0.634   1.134   1.961  0.3750 -0.2570 -0.2481
 6630TIP3    H144085   0.668   1.092   1.882  1.3260  0.7365 -0.3940
 6630TIP3    H244086   0.539   1.132   1.950  0.4676 -0.7596 -1.0784
 6631TIP3   OH244087   0.801   3.224   2.661 -0.0725 -0.1545 -0.0845
 6631TIP3    H144088   0.884   3.270   2.648  0.1085 -0.7855 -1.3251
 6631TIP3    H244089   0.775   3.246   2.750  0.6812  1.2537 -0.1817
 6632TIP3   OH244090   5.304   5.301   1.746 -0.5351  0.4949  0.6634
 6632TIP3    H144091   5.302   5.395   1.762 -0.3469  1.4449 -3.5984
 6632TIP3    H244092   5.224   5.285   1.695  1.3395 -0.7264 -2.1239
 6633TIP3   OH244093   2.081   4.531   0.701 -0.0112 -0.3708 -0.2119
 6633TIP3    H144094   2.057   4.591   0.771  0.5694  0.0481 -0.3638
 6633TIP3    H244095   2.007   4.470   0.695 -1.2505  1.1324 -0.9572
 6634TIP3   OH244096   3.207   0.365   0.511 -0.1309  0.3790 -0.5711
 6634TIP3    H144097   3.244   0.280   0.489  0.0956  0.6112 -1.1082
 6634TIP3    H244098   3.231   0.379   0.603 -1.0537 -0.5858 -0.1705
 6635TIP3   OH244099   0.363   3.644   3.369 -0.1622  0.0496 -0.5349
 6635TIP3    H144100   0.357   3.619   3.277 -0.9777  1.0530 -0.7743
 6635TIP3    H244101   0.277   3.620   3.405 -1.5064  3.5012 -1.0763
 6636TIP3   OH244102   5.486   6.684   2.924 -0.0364 -0.3923  0.2268
 6636TIP3    H144103   5.431   6.751   2.883 -1.9174 -2.5951 -1.0772
 6636TIP3    H244104   5.503   6.718   3.012 -2.3150  1.0746  0.1980
 6637TIP3   OH244105   1.688   2.090   1.849 -0.2899 -0.5981 -0.0540
 6637TIP3    H144106   1.636   2.039   1.910  0.1769 -1.7006 -0.5433
 6637TIP3    H244107   1.647   2.075   1.764 -0.2232 -0.0518 -0.1843
 6638TIP3   OH244108   6.785   7.649   2.007 -0.1429  0.0296 -0.4194
 6638TIP3    H144109   6.711   7.707   2.021  0.0957  0.7234 -1.8282
 6638TIP3    H244110   6.776   7.581   2.074 -0.0261  2.0519  1.7428
 6639TIP3   OH244111   7.656   4.516   0.753 -0.0299  0.4325  0.4665
 6639TIP3    H144112   7.607   4.513   0.671 -1.1325  1.1238  1.0814
 6639TIP3    H244113   7.723   4.448   0.744 -1.0535 -0.4765 -0.4203
 6640TIP3   OH244114   4.706   0.504   0.648 -0.3039  0.3019  0.5113
 6640TIP3    H144115   4.705   0.491   0.743  0.1964  1.9663  0.7828
 6640TIP3    H244116   4.660   0.587   0.635 -1.7162 -0.6434 -0.8718
 6641TIP3   OH244117   1.410   3.051   2.397 -0.1853 -0.1866  0.2185
 6641TIP3    H144118   1.324   3.065   2.435  0.5761 -1.2332  2.4749
 6641TIP3    H244119   1.407   3.099   2.314 -3.6196 -1.8692 -0.8265
 6642TIP3   OH244120   7.208   0.307   0.563 -0.2242 -0.2296  0.2033
 6642TIP3    H144121   7.242   0.389   0.597  0.0212 -0.3362  0.2162
 6642TIP3    H244122   7.180   0.328   0.474  0.9083 -0.3951 -0.2090
 6643TIP3   OH244123   7.310   2.988   2.667 -0.4375 -0.0052  0.2517
 6643TIP3    H144124   7.235   2.929   2.661 -0.6106  0.3740 -2.9687
 6643TIP3    H244125   7.277   3.073   2.638  1.2039  0.1074 -1.5469
 6644TIP3   OH244126   2.642   6.914   1.448 -0.3479  0.0125  0.5197
 6644TIP3    H144127   2.648   6.840   1.509 -1.9921 -1.2032 -0.6838
 6644TIP3    H244128   2.717   6.903   1.389 -1.6975 -2.0426 -0.9578
 6645TIP3   OH244129   2.583   3.215   1.924 -0.0284 -0.1992  0.4205
 6645TIP3    H144130   2.512   3.162   1.959  1.2310 -1.7727  0.6876
 6645TIP3    H244131   2.541   3.298   1.900 -1.5091 -0.1254  2.8645
 6646TIP3   OH244132   7.274   6.629   2.001 -0.3616  0.1535 -0.0172
 6646TIP3    H144133   7.353   6.593   1.961 -0.2060  0.2781  0.1791
 6646TIP3    H244134   7.250   6.702   1.944 -0.5006 -0.0616 -0.2390
 6647TIP3   OH244135   0.347   4.005   2.649 -0.0344  0.6226 -0.0403
 6647TIP3    H144136   0.341   4.015   2.554  0.2264 -1.3981 -0.2997
 6647TIP3    H244137   0.256   4.011   2.679 -0.3162 -0.4562 -0.6329
 6648TIP3   OH244138   4.268   1.048   1.827 -0.3267 -0.4227 -0.1013
 6648TIP3    H144139   4.270   0.974   1.887 -0.4541 -1.1152 -0.9220
 6648TIP3    H244140   4.222   1.117   1.874  0.2627 -0.6861  0.8778
 6649TIP3   OH244141   6.339   4.174   1.437  0.0324 -0.5775 -0.2794
 6649TIP3    H144142   6.386   4.197   1.357 -0.5926 -0.4569 -0.6262
 6649TIP3    H244143   6.377   4.091   1.464 -0.3200 -1.0483 -1.1802
 6650TIP3   OH244144   6.759   0.800   0.755  0.2250  0.5412 -0.0998
 6650TIP3    H144145   6.741   0.733   0.821  0.9564  0.9180  0.4958
 6650TIP3    H244146   6.782   0.878   0.806  1.1950  0.7236 -0.7872
 6651TIP3   OH244147   1.178   3.106   0.652  0.6200 -0.0142 -0.0535
 6651TIP3    H144148   1.196   3.198   0.667 -0.4838  0.3985 -1.1220
 6651TIP3    H244149   1.091   3.091   0.689  1.8288 -1.3373  2.5957
 6652TIP3   OH244150   6.327   0.571   1.973 -0.0490 -0.5642 -0.4800
 6652TIP3    H144151   6.399   0.527   2.018 -0.5082 -0.1060  0.7324
 6652TIP3    H244152   6.358   0.661   1.962 -0.0143 -0.6285 -0.9287
 6653TIP3   OH244153   0.554   7.598   2.682 -0.2601  0.7484 -0.4726
 6653TIP3    H144154   0.487   7.532   2.663 -0.0759  0.3133  0.3314
 6653TIP3    H244155   0.505   7.673   2.715 -0.3449  0.3454  0.3396
 6654TIP3   OH244156   6.453   6.977   1.233 -0.2964 -0.1532 -0.0250
 6654TIP3    H144157   6.403   6.900   1.206  0.4076 -0.5063 -0.3488
 6654TIP3    H244158   6.412   7.004   1.315 -0.2650 -1.1656  0.3435
 6655TIP3   OH244159   0.843   7.592   2.416  0.2773  0.0536  0.2617
 6655TIP3    H144160   0.929   7.630   2.435  0.4104 -0.1308  0.0491
 6655TIP3    H244161   0.853   7.556   2.328  0.1143 -0.3478  0.4052
 6656TIP3   OH244162   4.196   0.347   0.993  0.2575 -0.2915 -0.0567
 6656TIP3    H144163   4.194   0.408   1.067  1.0281  1.9672 -1.7801
 6656TIP3    H244164   4.165   0.399   0.919  2.8345 -1.3625 -2.0329
 6657TIP3   OH244165   0.524   2.413   0.666  0.0635  0.7696 -0.1515
 6657TIP3    H144166   0.529   2.333   0.615  0.3122  1.8345 -1.8846
 6657TIP3    H244167   0.459   2.467   0.620  0.0108  1.6228  0.8815
 6658TIP3   OH244168   7.507   1.886   1.692 -0.1829  0.2670 -0.5094
 6658TIP3    H144169   7.598   1.859   1.706  0.2950  0.9281 -2.0981
 6658TIP3    H244170   7.455   1.821   1.739  1.0646 -1.1586 -1.0319
 6659TIP3   OH244171   0.637   2.686   1.968 -0.0965  0.1927 -0.4257
 6659TIP3    H144172   0.680   2.605   1.938 -0.7504  0.1143 -1.1716
 6659TIP3    H244173   0.562   2.656   2.018  1.1252  0.3183  1.5816
 6660TIP3   OH244174   2.776   7.019   0.873  0.5568 -0.2753 -0.8633
 6660TIP3    H144175   2.681   7.009   0.875  0.5886 -0.7881 -1.5033
 6660TIP3    H244176   2.791   7.112   0.888 -0.1172  0.0493 -2.0845
 6661TIP3   OH244177   6.470   4.659   3.463  0.2049  0.3261 -0.3143
 6661TIP3    H144178   6.415   4.582   3.450  0.6415  0.1600 -1.2531
 6661TIP3    H244179   6.551   4.639   3.417  0.2434  1.4248 -0.7518
 6662TIP3   OH244180   4.342   4.703   1.264 -0.1526  0.0906  0.7570
 6662TIP3    H144181   4.410   4.749   1.314  1.8115 -2.1600  0.3164
 6662TIP3    H244182   4.327   4.623   1.314 -1.4584 -0.1115  0.0581
 6663TIP3   OH244183   2.535   4.127   1.968  0.0370  0.0280  0.0464
 6663TIP3    H144184   2.511   4.202   1.912  0.3064 -0.3824 -0.6341
 6663TIP3    H244185   2.620   4.151   2.004 -1.3819  1.5867  2.6412
 6664TIP3   OH244186   6.761   7.295   1.932 -0.3973 -0.7003 -0.0465
 6664TIP3    H144187   6.684   7.287   1.876  0.0657  1.8713 -1.2206
 6664TIP3    H244188   6.735   7.355   2.002  0.1037 -0.9929  0.4015
 6665TIP3   OH244189   1.654   5.981   1.830 -0.2665 -0.0302  0.1452
 6665TIP3    H144190   1.573   6.024   1.803 -1.0342 -0.9245  0.9720
 6665TIP3    H244191   1.629   5.891   1.850  1.2512 -0.8146 -1.2412
 6666TIP3   OH244192   1.370   1.855   0.985 -0.5712  0.3917  0.6185
 6666TIP3    H144193   1.406   1.849   0.896  0.3782  2.2795  0.8255
 6666TIP3    H244194   1.314   1.777   0.993 -0.1684 -0.1769 -1.3825
 6667TIP3   OH244195   3.959   0.799   1.582 -0.1312  0.1421  0.3544
 6667TIP3    H144196   3.965   0.880   1.632  0.5168  1.9297 -2.3579
 6667TIP3    H244197   3.866   0.791   1.560 -0.4677 -0.8248  2.0307
 6668TIP3   OH244198   6.535   2.051   2.354 -0.0811 -0.0090  0.3621
 6668TIP3    H144199   6.486   1.970   2.369 -1.7834  1.1451  1.3743
 6668TIP3    H244200   6.486   2.118   2.402 -0.2348  2.1322 -2.5602
 6669TIP3   OH244201   0.423   4.941   2.118 -0.3001  0.1578 -0.2486
 6669TIP3    H144202   0.447   5.015   2.062 -2.1069  0.5451 -0.5665
 6669TIP3    H244203   0.405   4.981   2.203  1.8471 -0.3557  0.5175
 6670TIP3   OH244204   6.103   4.362   2.003  0.0861 -0.3125 -0.0632
 6670TIP3    H144205   6.031   4.422   1.987  0.5214  0.5826  1.1564
 6670TIP3    H244206   6.115   4.315   1.921 -0.6543  0.8563 -0.8540
 6671TIP3   OH244207   0.958   2.021   3.374  0.2743 -0.0354  0.2379
 6671TIP3    H144208   0.956   1.925   3.372  2.2640 -0.1271  0.2733
 6671TIP3    H244209   0.873   2.048   3.341  0.7414 -1.8226 -2.8002
 6672TIP3   OH244210   3.016   5.261   1.998  0.2380  0.0539 -0.4443
 6672TIP3    H144211   2.950   5.329   1.993 -0.5834 -0.7915 -1.5227
 6672TIP3    H244212   3.099   5.309   2.001 -0.3748  1.1119  0.2271
 6673TIP3   OH244213   1.458   2.949   3.066  0.1972 -0.2476  0.2101
 6673TIP3    H144214   1.445   3.044   3.066 -1.7292 -0.4406 -1.4437
 6673TIP3    H244215   1.431   2.922   3.154 -2.6260  0.4520 -0.3265
 6674TIP3   OH244216   5.766   5.962   0.461  0.4244 -0.1296  0.2786
 6674TIP3    H144217   5.677   5.995   0.466  0.7700  0.7465  0.8386
 6674TIP3    H244218   5.811   6.003   0.535  0.9249 -1.6948  0.8836
 6675TIP3   OH244219   0.003   0.680   0.509  0.1793 -0.3157 -0.1506
 6675TIP3    H144220   0.070   0.613   0.494 -0.1813 -0.6580 -0.2444
 6675TIP3    H244221   0.028   0.720   0.592  0.1561 -0.8608  0.1230
 6676TIP3   OH244222   6.002   2.501   1.284 -0.8289 -0.0790  0.0360
 6676TIP3    H144223   5.972   2.439   1.217  0.1225  0.0261 -0.5150
 6676TIP3    H244224   6.061   2.451   1.339 -2.0482 -0.3110  1.1712
 6677TIP3   OH244225   0.305   5.184   1.851 -0.4214  0.4200 -0.0305
 6677TIP3    H144226   0.228   5.148   1.896  0.0685 -2.2703 -1.1437
 6677TIP3    H244227   0.282   5.179   1.758  1.1574 -0.6951 -0.4015
 6678TIP3   OH244228   7.156   1.222   0.425  0.5934 -0.7592  0.0656
 6678TIP3    H144229   7.237   1.175   0.407  1.4928  0.3534  1.0874
 6678TIP3    H244230   7.109   1.165   0.486  1.8636 -0.2114  1.6267
 6679TIP3   OH244231   4.255   7.057   3.028 -0.3635  0.1040 -0.4651
 6679TIP3    H144232   4.349   7.046   3.014 -0.2933 -1.0742  0.6914
 6679TIP3    H244233   4.249   7.105   3.111 -0.7118 -2.7800  1.3400
 6680TIP3   OH244234   4.632   4.427   2.087  0.0933 -0.3911  0.1662
 6680TIP3    H144235   4.549   4.454   2.048  0.2854 -0.5527 -0.3501
 6680TIP3    H244236   4.662   4.355   2.033  0.7184 -0.1471  0.1852
 6681TIP3   OH244237   0.905   3.466   0.960 -0.1361 -0.1314 -0.0412
 6681TIP3    H144238   0.874   3.542   0.910 -0.6863 -1.0073 -1.0659
 6681TIP3    H244239   0.825   3.418   0.982  0.3210 -1.5228 -1.2516
 6682TIP3   OH244240   1.536   4.932   1.981  0.6322  0.3192  0.4180
 6682TIP3    H144241   1.531   4.966   2.070 -0.6161  0.2517  0.3940
 6682TIP3    H244242   1.498   5.002   1.927 -0.0853 -0.2748  0.1361
 6683TIP3   OH244243   5.429   4.959   0.777  0.1976  0.2777  0.4754
 6683TIP3    H144244   5.486   5.034   0.796 -0.9734  1.6422 -1.0373
 6683TIP3    H244245   5.355   4.969   0.836 -0.4795  0.9823 -0.4562
 6684TIP3   OH244246   0.099   4.939   1.750  0.0774 -0.0535 -0.4791
 6684TIP3    H144247   0.061   4.853   1.729 -0.1655  0.3220 -1.6688
 6684TIP3    H244248   0.082   4.950   1.843  0.6840 -1.5760 -0.1482
 6685TIP3   OH244249   7.051   4.107   2.621 -0.0715  0.2300 -0.6724
 6685TIP3    H144250   7.084   4.083   2.707  2.3525  0.2029 -1.5295
 6685TIP3    H244251   7.035   4.202   2.627  0.8137  0.3704 -0.3840
 6686TIP3   OH244252   7.440   4.052   0.979 -0.2648 -0.0930  0.3690
 6686TIP3    H144253   7.487   4.131   1.005  0.9601  0.5755 -3.3444
 6686TIP3    H244254   7.493   3.980   1.016  1.4548  0.7544 -0.3402
 6687TIP3   OH244255   7.596   2.922   2.584 -0.4200  0.6768  0.4239
 6687TIP3    H144256   7.637   2.909   2.498 -0.9487  1.3638  0.0521
 6687TIP3    H244257   7.531   2.990   2.569 -2.2583 -0.9004  0.7838
 6688TIP3   OH244258   5.966   4.036   2.823  0.1481 -0.5507 -0.1552
 6688TIP3    H144259   5.875   4.060   2.808  0.2375  0.2559  0.5471
 6688TIP3    H244260   5.961   3.950   2.865 -0.2393 -0.9227 -0.9223
 6689TIP3   OH244261   7.222   3.211   1.486 -0.2073  0.2759  0.2436
 6689TIP3    H144262   7.227   3.116   1.469  0.6001  0.2471  0.6004
 6689TIP3    H244263   7.306   3.245   1.454 -1.0667  1.1004 -1.2374
 6690TIP3   OH244264   1.536   7.616   1.863  0.2104  0.4045 -0.6089
 6690TIP3    H144265   1.545   7.703   1.902 -0.2718  0.3872 -0.4497
 6690TIP3    H244266   1.621   7.574   1.878 -0.0767  0.2543  0.8032
 6691TIP3   OH244267   2.686   0.371   1.389  0.8393  0.5455  0.3066
 6691TIP3    H144268   2.652   0.286   1.417  1.6848  0.4843  1.2237
 6691TIP3    H244269   2.657   0.380   1.299 -0.1012 -0.2714  0.5111
 6692TIP3   OH244270   4.281   0.403   2.274 -0.2624 -0.7605 -0.0420
 6692TIP3    H144271   4.288   0.489   2.315 -0.4006 -0.6581 -0.2355
 6692TIP3    H244272   4.210   0.411   2.211 -1.1918 -1.3869  0.8822
 6693TIP3   OH244273   0.018   7.214   1.115 -0.3513  0.1577  0.4514
 6693TIP3    H144274   0.101   7.217   1.164 -0.8870  0.3061  1.3835
 6693TIP3    H244275  -0.048   7.198   1.182 -1.1023  0.2263 -0.2595
 6694TIP3   OH244276   3.991   6.781   2.129 -0.4087 -0.0804  0.1542
 6694TIP3    H144277   3.991   6.792   2.034 -0.6429  1.6665  0.3306
 6694TIP3    H244278   4.015   6.689   2.143  1.2578  0.0534 -1.5393
 6695TIP3   OH244279   1.348   1.794   0.381 -0.0438 -0.6719  0.6989
 6695TIP3    H144280   1.256   1.787   0.355  0.6502 -1.7227 -1.7549
 6695TIP3    H244281   1.368   1.888   0.373 -0.2441 -0.7611 -1.4723
 6696TIP3   OH244282   0.458   3.287   1.983  0.4840 -0.0192 -0.0456
 6696TIP3    H144283   0.511   3.367   1.984  1.2717 -0.5064 -0.7978
 6696TIP3    H244284   0.514   3.221   2.023 -0.8710  0.1795  2.3372
 6697TIP3   OH244285   5.554   5.261   1.743  0.5523  0.2035  0.0923
 6697TIP3    H144286   5.550   5.227   1.653 -0.7710 -0.3139  0.3265
 6697TIP3    H244287   5.465   5.290   1.762  1.2226  2.0236  0.6117
 6698TIP3   OH244288   2.500   4.865   1.029 -0.3551 -0.2067 -0.3859
 6698TIP3    H144289   2.526   4.805   1.099 -2.0950  0.6776  1.0960
 6698TIP3    H244290   2.428   4.821   0.984 -1.0726  0.3625  0.1691
 6699TIP3   OH244291   7.399   5.738   0.882  0.5597 -0.1156 -0.0952
 6699TIP3    H144292   7.402   5.751   0.787  1.3473 -0.1541 -0.0811
 6699TIP3    H244293   7.454   5.661   0.897 -0.8809 -1.1350  0.2298
 6700TIP3   OH244294   3.115   2.847   2.340 -0.0719  0.5246  0.2058
 6700TIP3    H144295   3.195   2.852   2.287  0.6500  1.8012  1.3490
 6700TIP3    H244296   3.119   2.924   2.397 -0.3651 -1.2026  2.7385
 6701TIP3   OH244297   1.909   3.846   1.629  0.1257  0.3455 -0.6003
 6701TIP3    H144298   1.877   3.758   1.648  0.1708  0.3508 -0.4982
 6701TIP3    H244299   1.866   3.902   1.694  2.4155 -0.0081  1.3865
 6702TIP3   OH244300   0.139   4.299   0.770  0.2760 -0.0997 -0.3164
 6702TIP3    H144301   0.138   4.246   0.691 -2.0237  1.3455 -1.3352
 6702TIP3    H244302   0.227   4.337   0.772  1.2847 -2.2445 -0.6406
 6703TIP3   OH244303   6.471   6.347   2.353 -0.3447  0.1181 -0.3865
 6703TIP3    H144304   6.436   6.418   2.408 -1.0202  0.2663 -0.9849
 6703TIP3    H244305   6.393   6.298   2.326 -0.0358  0.0938 -1.2576
 6704TIP3   OH244306   2.225   2.848   1.034  0.3429 -0.5034 -0.2100
 6704TIP3    H144307   2.313   2.867   1.065  0.2437  1.2305 -0.8830
 6704TIP3    H244308   2.232   2.846   0.939 -0.3598 -0.2158 -0.2783
 6705TIP3   OH244309   6.552   2.220   2.151 -0.2531  0.4488 -0.1958
 6705TIP3    H144310   6.497   2.271   2.211  1.3109  0.3972  1.3646
 6705TIP3    H244311   6.612   2.172   2.208  3.7524  3.1106 -1.7220
 6706TIP3   OH244312   0.284   1.304   2.560  0.0730  1.0935 -0.1907
 6706TIP3    H144313   0.301   1.211   2.543 -0.6956  0.3977  2.4773
 6706TIP3    H244314   0.195   1.308   2.593  0.3236  2.6840  0.4248
 6707TIP3   OH244315   1.002   3.658   1.173  0.0902 -0.1135  0.1908
 6707TIP3    H144316   1.046   3.603   1.108 -0.3106 -0.9643  0.6178
 6707TIP3    H244317   1.027   3.620   1.257  0.7630  1.1028  0.5488
 6708TIP3   OH244318   1.335   4.072   1.036 -0.3458  0.0392  0.6948
 6708TIP3    H144319   1.287   4.041   1.113 -1.0513  0.4693  0.4335
 6708TIP3    H244320   1.275   4.060   0.963 -0.5102  1.6330  0.5237
 6709TIP3   OH244321   6.214   0.124   0.830  0.1058 -0.6239  0.3176
 6709TIP3    H144322   6.290   0.069   0.812 -0.7239 -0.9269 -2.8471
 6709TIP3    H244323   6.243   0.213   0.811 -0.1017 -0.6647 -0.2229
 6710TIP3   OH244324   1.846   6.926   3.042 -0.0845  0.1478  0.4616
 6710TIP3    H144325   1.900   7.005   3.038  0.3256 -0.1714 -0.8689
 6710TIP3    H244326   1.757   6.957   3.026 -0.4165  0.7127  2.9136
 6711TIP3   OH244327   1.324   0.966   0.982 -0.0184 -0.2662 -0.6982
 6711TIP3    H144328   1.403   1.018   0.966 -0.5969  1.6224  1.8244
 6711TIP3    H244329   1.254   1.014   0.937 -0.1231 -0.4828 -0.7675
 6712TIP3   OH244330   1.459   5.746   1.753 -0.1722 -0.2228 -0.1927
 6712TIP3    H144331   1.451   5.689   1.830  1.1114  0.3360  0.3790
 6712TIP3    H244332   1.501   5.691   1.687  1.9650  0.2771  0.6702
 6713TIP3   OH244333   5.611   2.122   2.802 -0.3380  0.3205  0.7950
 6713TIP3    H144334   5.554   2.045   2.798  1.4266 -1.0798  1.4769
 6713TIP3    H244335   5.616   2.153   2.712 -0.7331 -0.6173  0.4427
 6714TIP3   OH244336   5.569   3.719   2.336  0.5178 -0.0971 -0.0314
 6714TIP3    H144337   5.550   3.629   2.309  2.9168 -0.1873 -1.7421
 6714TIP3    H244338   5.590   3.711   2.429  0.1708 -1.2062 -0.0247
 6715TIP3   OH244339   1.758   7.461   2.944 -0.0542  0.0610 -0.4084
 6715TIP3    H144340   1.735   7.444   3.035 -1.3246 -1.1877 -0.9100
 6715TIP3    H244341   1.829   7.400   2.925 -0.0821  0.0150 -0.3640
 6716TIP3   OH244342   3.282   3.919   1.394 -0.8566 -0.2025  0.0949
 6716TIP3    H144343   3.285   3.922   1.490  2.7267 -2.1019  0.2430
 6716TIP3    H244344   3.317   4.003   1.366 -1.1271  0.0379  0.4647
 6717TIP3   OH244345   4.262   7.538   3.110 -0.2553 -0.2579  0.6056
 6717TIP3    H144346   4.190   7.514   3.169 -0.4202  0.0640  0.5330
 6717TIP3    H244347   4.316   7.597   3.162  1.0569 -2.0192  1.3790
 6718TIP3   OH244348   0.881   1.505   0.476 -0.2183 -0.1269  0.0390
 6718TIP3    H144349   0.832   1.460   0.407 -0.7159  0.6290 -0.1222
 6718TIP3    H244350   0.930   1.436   0.520 -1.6666 -0.9637  0.3980
 6719TIP3   OH244351   5.049   2.334   1.897 -0.2655 -0.2772 -0.1170
 6719TIP3    H144352   5.100   2.257   1.870  2.5063  1.2030  0.4849
 6719TIP3    H244353   5.075   2.350   1.988 -1.2093  1.0410 -0.0478
 6720TIP3   OH244354   6.888   1.426   1.887 -0.0864  0.1699  0.5297
 6720TIP3    H144355   6.867   1.507   1.840 -1.9876 -1.4523 -1.6496
 6720TIP3    H244356   6.933   1.372   1.823  1.3499 -0.4830  2.0208
 6721TIP3   OH244357   6.103   1.536   1.903  0.3309  0.0888 -0.1320
 6721TIP3    H144358   6.098   1.573   1.815 -0.4019  1.6700  0.5318
 6721TIP3    H244359   6.193   1.504   1.911  0.9913  1.6874 -0.7875
 6722TIP3   OH244360   6.570   5.230   0.782  0.1673 -0.0373  0.1640
 6722TIP3    H144361   6.557   5.253   0.690 -0.7120 -1.1161 -0.0081
 6722TIP3    H244362   6.612   5.306   0.820  1.3022  0.1223 -1.3117
 6723TIP3   OH244363   5.568   4.437   0.606 -0.3640  0.0655 -0.2379
 6723TIP3    H144364   5.489   4.436   0.661 -0.5837  2.6003 -0.3738
 6723TIP3    H244365   5.534   4.445   0.517 -0.0296  1.6235 -0.2681
 6724TIP3   OH244366   6.994   1.561   2.110 -0.3548  0.3162  0.3596
 6724TIP3    H144367   6.954   1.648   2.111 -0.0065  0.4843  0.0335
 6724TIP3    H244368   6.964   1.522   2.027  2.2749  1.4747 -1.2628
 6725TIP3   OH244369   2.328   1.073   2.107 -0.6127  0.0007 -0.0519
 6725TIP3    H144370   2.279   1.138   2.157  1.0706  0.0845  1.5731
 6725TIP3    H244371   2.283   0.990   2.127  0.4065 -0.0690  2.2191
 6726TIP3   OH244372   3.521   0.698   2.553  0.0359  0.4643  0.6573
 6726TIP3    H144373   3.441   0.706   2.605  0.8667 -0.6102  2.2011
 6726TIP3    H244374   3.553   0.787   2.545 -0.7976  0.7948  0.8964
 6727TIP3   OH244375   4.216   3.099   1.595 -0.4006  0.2322  0.5728
 6727TIP3    H144376   4.305   3.066   1.604  0.1663  0.8182 -2.0576
 6727TIP3    H244377   4.202   3.152   1.674  1.4158 -0.1839  1.2315
 6728TIP3   OH244378   2.731   6.744   1.132 -0.2731 -0.2714  0.4428
 6728TIP3    H144379   2.702   6.684   1.063 -1.8310  0.5809  0.3139
 6728TIP3    H244380   2.690   6.712   1.212 -0.0168 -0.1615  0.6193
 6729TIP3   OH244381   5.554   6.070   3.150  0.2861 -0.3406  0.2975
 6729TIP3    H144382   5.555   5.974   3.152  1.9925 -0.3864 -0.7207
 6729TIP3    H244383   5.468   6.092   3.114  1.0338 -1.6725 -2.6999
 6730TIP3   OH244384   0.663   4.459   1.774 -0.1071  0.0391  0.5435
 6730TIP3    H144385   0.675   4.546   1.812 -1.4074  0.6100 -0.2805
 6730TIP3    H244386   0.722   4.456   1.699 -0.2799  0.3252  0.3961
 6731TIP3   OH244387   4.893   4.683   0.955 -0.5093 -0.3005 -0.9743
 6731TIP3    H144388   4.956   4.719   0.892 -0.2983  0.2423 -0.4630
 6731TIP3    H244389   4.839   4.759   0.980  0.1817 -0.2352  0.4125
 6732TIP3   OH244390   0.333   5.635   2.141  0.6986  0.2629  0.1799
 6732TIP3    H144391   0.333   5.666   2.231  0.1641 -2.9449  1.4446
 6732TIP3    H244392   0.424   5.610   2.124  0.6123 -0.1015  0.2374
 6733TIP3   OH244393   5.010   1.779   1.760 -0.4656 -0.3895 -0.0739
 6733TIP3    H144394   5.082   1.740   1.809 -0.3662  0.5309  0.5308
 6733TIP3    H244395   5.000   1.867   1.797  0.7568  1.0415 -2.8228
 6734TIP3   OH244396   4.691   6.362   1.814  0.1321  0.1907  0.0645
 6734TIP3    H144397   4.744   6.297   1.768  1.2615  0.2104  1.2606
 6734TIP3    H244398   4.636   6.311   1.874 -0.0370  0.2550 -0.0357
 6735TIP3   OH244399   3.429   2.884   2.368  0.2144  0.1377 -0.4359
 6735TIP3    H144400   3.471   2.861   2.452  0.7534 -1.8618 -1.1851
 6735TIP3    H244401   3.448   2.977   2.356  1.2710  0.1438  1.0281
 6736TIP3   OH244402   7.088   4.425   2.958  0.0931  0.7016  0.3938
 6736TIP3    H144403   7.071   4.486   2.886 -2.9820 -1.3390 -0.7748
 6736TIP3    H244404   7.125   4.348   2.916 -0.6206 -0.0698  1.1505
 6737TIP3   OH244405   6.801   4.917   0.943 -0.3781 -0.8402 -0.0327
 6737TIP3    H144406   6.789   5.004   0.982  0.3691 -0.8237  0.1719
 6737TIP3    H244407   6.720   4.871   0.963 -0.4798 -0.4379  0.5287
 6738TIP3   OH244408   2.204   5.661   0.633 -0.7671  0.3194  0.7766
 6738TIP3    H144409   2.266   5.722   0.673 -0.9806 -0.7489  2.8602
 6738TIP3    H244410   2.257   5.609   0.572 -0.2570  1.4110  0.2538
 6739TIP3   OH244411   7.018   2.789   3.090 -0.1090 -0.4278 -0.1926
 6739TIP3    H144412   7.001   2.716   3.030 -1.9040 -0.6303  0.4948
 6739TIP3    H244413   7.047   2.747   3.171  1.4143 -0.2008 -0.5876
 6740TIP3   OH244414   2.419   4.981   2.065  0.0236 -0.0010 -0.2604
 6740TIP3    H144415   2.480   5.021   2.127 -0.6404 -1.2343  1.2498
 6740TIP3    H244416   2.475   4.947   1.995  0.7743  1.6019 -0.4887
 6741TIP3   OH244417   7.043   4.374   0.414  0.1464  0.0649  0.2344
 6741TIP3    H144418   6.948   4.367   0.403  0.2510  0.2317 -0.9547
 6741TIP3    H244419   7.078   4.334   0.334  1.1136 -1.0450  1.1751
 6742TIP3   OH244420   4.102   7.063   1.684 -0.1876 -0.1910 -0.3761
 6742TIP3    H144421   4.039   6.993   1.666  0.1732 -0.7018  0.2850
 6742TIP3    H244422   4.166   7.023   1.743 -0.1573  0.7946  0.2839
 6743TIP3   OH244423   3.660   3.740   0.866 -0.0408  0.1882 -0.4605
 6743TIP3    H144424   3.616   3.675   0.920 -1.0814  0.1208 -1.3653
 6743TIP3    H244425   3.737   3.766   0.918 -1.8408  1.3624  1.7999
 6744TIP3   OH244426   0.663   5.073   2.446  0.3369  0.0233  0.0086
 6744TIP3    H144427   0.570   5.062   2.424  0.5040 -2.6727  0.4164
 6744TIP3    H244428   0.663   5.143   2.511 -1.5715 -0.7432  0.9134
 6745TIP3   OH244429   6.458   0.048   0.742 -0.2157 -0.4351 -0.2933
 6745TIP3    H144430   6.477   0.106   0.668  0.5241 -0.9966 -0.5614
 6745TIP3    H244431   6.541   0.002   0.757 -0.5942 -0.9063  0.3668
 6746TIP3   OH244432   4.151   2.259   0.449  0.4798  0.3875 -0.0465
 6746TIP3    H144433   4.064   2.229   0.423  1.1749  0.2093 -2.4394
 6746TIP3    H244434   4.142   2.284   0.541 -2.0837  0.3958 -0.2380
 6747TIP3   OH244435   6.248   7.265   2.544 -0.0902  0.4781 -0.2344
 6747TIP3    H144436   6.333   7.268   2.587 -0.9464  0.5422  1.5133
 6747TIP3    H244437   6.189   7.312   2.603 -2.5109 -4.0332  1.3880
 6748TIP3   OH244438   3.326   0.110   0.448  0.3359 -0.5524 -0.5124
 6748TIP3    H144439   3.278   0.094   0.367  0.5627 -0.0925 -0.7418
 6748TIP3    H244440   3.381   0.032   0.459  1.5564  0.1025 -1.7044
 6749TIP3   OH244441   3.608   6.409   3.232  0.0197 -0.8770 -0.0402
 6749TIP3    H144442   3.515   6.392   3.218 -0.2467  0.4492 -0.0770
 6749TIP3    H244443   3.629   6.477   3.168  0.4345  0.4779  1.4643
 6750TIP3   OH244444   4.791   0.661   1.410  0.0600  1.0526  0.3751
 6750TIP3    H144445   4.852   0.599   1.451 -0.9058  0.1417  0.4712
 6750TIP3    H244446   4.839   0.696   1.335 -0.6036 -2.7803 -2.1309
 6751TIP3   OH244447   4.059   3.549   2.013 -0.0234 -0.1972  0.2731
 6751TIP3    H144448   3.964   3.550   2.006  0.0031 -1.2854 -0.4423
 6751TIP3    H244449   4.090   3.548   1.922  0.6263 -1.5127  0.4941
 6752TIP3   OH244450   5.685   6.797   1.529 -0.5698 -0.3084 -0.2661
 6752TIP3    H144451   5.703   6.743   1.453 -0.3110 -1.0999  0.3445
 6752TIP3    H244452   5.592   6.818   1.522 -0.3158  0.5095 -1.3490
 6753TIP3   OH244453   5.933   3.883   3.193 -0.2880  0.0205  0.7829
 6753TIP3    H144454   5.995   3.926   3.250 -0.6751 -0.9738  2.0003
 6753TIP3    H244455   5.966   3.793   3.183 -1.1551 -0.3318  0.9056
 6754TIP3   OH244456   5.355   5.314   2.735 -0.0260 -0.1706  0.2836
 6754TIP3    H144457   5.277   5.315   2.792 -0.1889  0.9107  0.0563
 6754TIP3    H244458   5.360   5.223   2.703 -1.5321 -0.1281 -0.1500
 6755TIP3   OH244459   5.432   6.033   0.764  0.3435 -0.4357  0.2584
 6755TIP3    H144460   5.339   6.054   0.760  0.7058  1.2976  0.2134
 6755TIP3    H244461   5.452   5.996   0.678  0.6803  3.9492 -1.8504
 6756TIP3   OH244462   1.713   7.314   2.670  0.1758 -0.1799  0.1735
 6756TIP3    H144463   1.774   7.265   2.724 -0.3779 -1.5011 -0.3617
 6756TIP3    H244464   1.676   7.249   2.610 -1.2045  0.7312 -0.0064
 6757TIP3   OH244465   4.890   4.388   1.710 -0.6345  0.0531 -0.6080
 6757TIP3    H144466   4.876   4.470   1.663 -1.5788 -0.5499 -1.4003
 6757TIP3    H244467   4.983   4.369   1.698 -0.0546  1.7248  0.8061
 6758TIP3   OH244468   4.993   0.374   2.367  0.6594 -0.5936  0.1246
 6758TIP3    H144469   5.049   0.298   2.383  1.6742  0.1172  0.0638
 6758TIP3    H244470   4.965   0.402   2.454  1.0029 -0.5116  0.2098
 6759TIP3   OH244471   5.284   6.914   1.210  0.2245 -0.0930 -0.6256
 6759TIP3    H144472   5.257   6.851   1.143  0.2714 -0.2115 -0.5322
 6759TIP3    H244473   5.263   6.872   1.293 -0.4983  0.3558 -0.5754
 6760TIP3   OH244474   2.086   0.363   0.741 -1.0002  0.0876 -0.3899
 6760TIP3    H144475   2.140   0.378   0.818 -0.5002  1.9675 -1.0374
 6760TIP3    H244476   2.006   0.323   0.774  0.3238 -1.7672  0.7188
 6761TIP3   OH244477   4.378   2.789   0.774 -0.0483  0.0992  0.0705
 6761TIP3    H144478   4.442   2.851   0.809  1.1371 -1.6646  1.1589
 6761TIP3    H244479   4.316   2.776   0.845  0.3231 -0.7483  0.2530
 6762TIP3   OH244480   2.650   2.474   2.232 -0.1939  0.0778 -0.2621
 6762TIP3    H144481   2.575   2.460   2.290 -1.0267  1.4620 -0.9747
 6762TIP3    H244482   2.627   2.551   2.181  0.3508 -1.2836 -2.6942
 6763TIP3   OH244483   7.479   3.793   0.565 -0.0424  0.1276 -0.6027
 6763TIP3    H144484   7.444   3.766   0.650  0.3587  1.6228  0.0801
 6763TIP3    H244485   7.531   3.871   0.585  1.5223 -0.5120 -1.9695
 6764TIP3   OH244486   2.795   2.992   2.123 -0.6587 -0.1590 -0.2347
 6764TIP3    H144487   2.707   2.957   2.113 -1.2892  1.5968 -1.4481
 6764TIP3    H244488   2.850   2.937   2.067 -0.9934 -1.1397  0.3743
 6765TIP3   OH244489   0.374   5.164   2.657 -0.4705  0.4039  0.0067
 6765TIP3    H144490   0.387   5.252   2.692  0.2824 -0.0900  1.0131
 6765TIP3    H244491   0.304   5.126   2.711 -1.2466  0.5850 -0.8356
 6766TIP3   OH244492   2.176   2.515   1.427  0.4936 -0.4371 -0.0073
 6766TIP3    H144493   2.174   2.598   1.380  0.1884 -0.7761 -0.5947
 6766TIP3    H244494   2.232   2.458   1.374  0.4127 -0.7209  0.2104
 6767TIP3   OH244495   0.473   1.173   0.774  0.3163  0.1056 -0.1908
 6767TIP3    H144496   0.407   1.160   0.706 -2.3148 -0.4388  2.2764
 6767TIP3    H244497   0.455   1.105   0.839  1.2728  1.8567  2.0578
 6768TIP3   OH244498   6.962   4.702   1.260 -0.4042  0.1826 -0.0905
 6768TIP3    H144499   7.003   4.682   1.343 -0.3676 -1.6988 -0.5151
 6768TIP3    H244500   6.868   4.695   1.277 -0.3877 -0.4736 -0.2703
 6769TIP3   OH244501   0.768   5.796   2.258  0.2564 -0.0470  0.0795
 6769TIP3    H144502   0.821   5.853   2.313  0.1747  0.5962 -0.4979
 6769TIP3    H244503   0.763   5.714   2.307  0.8115  0.2637  0.6758
 6770TIP3   OH244504   6.119   2.927   2.581 -0.5364  0.0047  0.0618
 6770TIP3    H144505   6.213   2.937   2.569 -0.5542 -0.3400 -0.4160
 6770TIP3    H244506   6.108   2.911   2.675 -0.0144 -1.0682 -0.0453
 6771TIP3   OH244507   0.740   6.543   1.460 -0.0457  0.2976 -0.0584
 6771TIP3    H144508   0.808   6.610   1.465  0.8708 -0.3613 -2.4752
 6771TIP3    H244509   0.658   6.590   1.478  0.7048  1.7844 -0.3936
 6772TIP3   OH244510   3.380   4.441   2.066  0.1534 -0.2603 -0.4785
 6772TIP3    H144511   3.417   4.360   2.102 -0.1473 -0.0372  0.3627
 6772TIP3    H244512   3.445   4.509   2.088  0.5523 -0.3077 -1.4488
 6773TIP3   OH244513   5.862   4.629   1.708  0.1146 -0.1579 -0.1887
 6773TIP3    H144514   5.804   4.704   1.696  0.5263  0.0954 -0.6225
 6773TIP3    H244515   5.923   4.634   1.635 -0.9160 -1.9201 -1.2543
 6774TIP3   OH244516   5.013   5.113   1.372  0.2457  0.4297 -0.4340
 6774TIP3    H144517   5.014   5.133   1.466 -0.2225  1.1524 -0.5747
 6774TIP3    H244518   4.924   5.081   1.355  0.1393  0.8818 -0.7450
 6775TIP3   OH244519   5.125   4.388   0.960  0.2528 -0.2099 -0.1192
 6775TIP3    H144520   5.210   4.366   0.921 -1.0698 -0.5734 -3.0618
 6775TIP3    H244521   5.087   4.452   0.901 -1.9932 -0.9172  0.4529
 6776TIP3   OH244522   5.424   5.338   0.899 -0.4142 -0.0680 -0.5056
 6776TIP3    H144523   5.376   5.393   0.962 -2.5554 -1.3313 -0.9234
 6776TIP3    H244524   5.506   5.317   0.944 -1.5428 -0.3186  1.6116
 6777TIP3   OH244525   0.993   2.351   1.594 -0.8193 -0.3023  0.4710
 6777TIP3    H144526   0.966   2.291   1.664 -1.7727 -1.2974 -0.7108
 6777TIP3    H244527   0.911   2.386   1.559 -0.3291  0.5939  0.1794
 6778TIP3   OH244528   4.197   1.057   0.770  0.2650  0.3023  0.1556
 6778TIP3    H144529   4.224   1.109   0.846 -0.3216 -0.3853  0.8514
 6778TIP3    H244530   4.264   1.075   0.704  0.1527  1.8187  0.4266
 6779TIP3   OH244531   2.408   0.386   1.310 -0.3184 -0.5991 -0.3561
 6779TIP3    H144532   2.429   0.477   1.287  1.7184 -0.7977  0.4738
 6779TIP3    H244533   2.414   0.339   1.228 -2.5709  0.1688 -1.0130
 6780TIP3   OH244534   6.250   0.530   1.259 -0.2497 -0.0842  0.3536
 6780TIP3    H144535   6.223   0.621   1.246  2.4091  0.5379 -1.5201
 6780TIP3    H244536   6.209   0.482   1.187 -0.0427  0.0050  0.1765
 6781TIP3   OH244537   2.548   5.515   2.479 -0.1042 -0.7715 -0.0435
 6781TIP3    H144538   2.644   5.506   2.480  0.0740  0.7641  0.7533
 6781TIP3    H244539   2.533   5.597   2.431 -0.9805 -0.7551  0.2539
 6782TIP3   OH244540   0.153   0.877   2.006  0.3294  0.5734  0.8075
 6782TIP3    H144541   0.087   0.871   1.937  0.8962 -0.6062  0.3315
 6782TIP3    H244542   0.114   0.934   2.072 -0.2513  1.7145 -0.4601
 6783TIP3   OH244543   6.895   4.679   2.579  0.1759  0.1778  0.2061
 6783TIP3    H144544   6.914   4.702   2.488 -1.4624  0.0535 -0.1954
 6783TIP3    H244545   6.981   4.665   2.619  0.9621  1.4379 -0.9910
 6784TIP3   OH244546   3.092   4.628   1.118  0.2361 -0.2106 -0.0791
 6784TIP3    H144547   3.053   4.671   1.042  2.3328 -1.2317 -1.8333
 6784TIP3    H244548   3.179   4.601   1.089  0.6882 -1.6996  2.3385
 6785TIP3   OH244549   0.547   5.878   1.212  0.1724 -0.3761 -0.0495
 6785TIP3    H144550   0.468   5.917   1.252  1.0427  2.5474 -0.9252
 6785TIP3    H244551   0.603   5.857   1.287 -0.2354  0.3724  0.4901
 6786TIP3   OH244552   6.533   5.835   1.653  0.4659  0.2596  1.1398
 6786TIP3    H144553   6.541   5.913   1.598 -1.9983  0.8067  1.4256
 6786TIP3    H244554   6.599   5.847   1.721  0.9551  1.4922  0.4728
 6787TIP3   OH244555   1.465   4.957   1.574  0.0352  0.1797 -0.2390
 6787TIP3    H144556   1.499   4.869   1.560 -0.7470 -0.1736  0.0344
 6787TIP3    H244557   1.370   4.947   1.566  0.0088  1.2346 -1.5538
 6788TIP3   OH244558   1.070   1.761   3.241 -0.6383  0.7710  0.2058
 6788TIP3    H144559   1.158   1.725   3.238 -1.1766 -0.6822 -2.8418
 6788TIP3    H244560   1.022   1.704   3.300  0.0195  0.3557  0.3424
 6789TIP3   OH244561   6.124   0.993   1.560  0.0492 -0.0122 -0.3652
 6789TIP3    H144562   6.102   1.027   1.473 -0.2257 -0.0131 -0.2984
 6789TIP3    H244563   6.078   0.910   1.566 -0.3069  0.2036 -0.0444
 6790TIP3   OH244564   2.838   1.900   1.769  0.2694  1.0293 -0.3116
 6790TIP3    H144565   2.925   1.894   1.809  0.6005  0.8710 -1.0387
 6790TIP3    H244566   2.856   1.923   1.678 -0.4182  0.2933 -0.6413
 6791TIP3   OH244567   0.046   7.677   2.267 -0.3869  0.0682  0.3610
 6791TIP3    H144568  -0.016   7.674   2.194 -0.5929 -0.9091  0.5581
 6791TIP3    H244569   0.066   7.770   2.277  0.9895  0.1082 -2.0495
 6792TIP3   OH244570   7.572   3.202   2.440 -0.1683 -0.2520 -0.3914
 6792TIP3    H144571   7.516   3.146   2.387 -0.1161 -1.3839  0.7097
 6792TIP3    H244572   7.640   3.232   2.379 -0.9130 -0.3595 -1.2938
 6793TIP3   OH244573   7.243   2.452   0.987  0.0770  0.3358  0.0801
 6793TIP3    H144574   7.231   2.542   1.017 -0.6919  0.6833 -1.2109
 6793TIP3    H244575   7.224   2.398   1.065  0.0315  1.2623  0.7232
 6794TIP3   OH244576   4.893   4.186   0.900  0.3271  0.0611  0.5249
 6794TIP3    H144577   4.808   4.146   0.920  0.1656  0.6480  1.0593
 6794TIP3    H244578   4.875   4.280   0.896  1.4273  0.4979  3.4392
 6795TIP3   OH244579   6.577   2.562   2.543 -0.1724 -0.2325  0.3503
 6795TIP3    H144580   6.652   2.609   2.507  0.4717 -0.9192  0.7590
 6795TIP3    H244581   6.537   2.519   2.467  0.7883 -1.1370  0.3183
 6796TIP3   OH244582   7.296   7.101   2.134 -0.3441  0.6882 -0.3151
 6796TIP3    H144583   7.350   7.042   2.083 -0.9985 -1.4502  1.3062
 6796TIP3    H244584   7.206   7.079   2.110 -0.5868  1.7599 -0.4394
 6797TIP3   OH244585   0.400   7.340   1.630 -0.1163 -0.0500 -0.2211
 6797TIP3    H144586   0.307   7.323   1.645  0.3521 -2.6044  0.4170
 6797TIP3    H244587   0.415   7.318   1.538 -0.4431  2.2361 -0.8724
 6798TIP3   OH244588   7.156   3.723   1.410 -0.2492  0.3740 -0.0974
 6798TIP3    H144589   7.109   3.697   1.331  0.5475 -0.7420 -0.2200
 6798TIP3    H244590   7.226   3.781   1.378  0.0132  0.0006 -0.2114
 6799TIP3   OH244591   6.793   5.324   1.277 -1.1122 -0.5961 -0.1678
 6799TIP3    H144592   6.769   5.315   1.369 -0.4054 -0.0757  0.0791
 6799TIP3    H244593   6.889   5.318   1.277 -0.9133  1.6454 -0.5753
 6800TIP3   OH244594   1.928   4.327   1.803 -0.5532 -0.1108 -0.4281
 6800TIP3    H144595   1.855   4.385   1.825 -1.7380 -0.1855 -3.6059
 6800TIP3    H244596   1.888   4.256   1.753  1.4741 -1.2007 -0.6105
 6801TIP3   OH244597   2.626   6.315   1.610 -0.5496 -0.2302  0.1661
 6801TIP3    H144598   2.553   6.376   1.599 -0.7780 -0.6373 -0.6552
 6801TIP3    H244599   2.634   6.272   1.525  0.6558 -0.1901  0.2429
 6802TIP3   OH244600   3.834   1.384   1.448 -0.9003 -0.7173 -0.0039
 6802TIP3    H144601   3.770   1.346   1.508 -1.5796 -0.5137 -0.5839
 6802TIP3    H244602   3.781   1.438   1.388 -0.0011  1.1602  0.7899
 6803TIP3   OH244603   3.415   6.102   1.642 -0.1349 -0.4256  0.1968
 6803TIP3    H144604   3.399   6.094   1.736 -0.0972 -0.9965  0.1557
 6803TIP3    H244605   3.331   6.079   1.602 -1.5369  3.8821  0.1703
 6804TIP3   OH244606   1.722   4.285   2.412  0.1128  0.4613 -0.3448
 6804TIP3    H144607   1.787   4.216   2.429 -0.2772  0.0561 -0.4821
 6804TIP3    H244608   1.750   4.323   2.329 -0.1398 -0.0853 -0.6833
 6805TIP3   OH244609   5.045   7.595   1.172 -0.8452 -0.2737  0.2668
 6805TIP3    H144610   5.120   7.571   1.116 -1.6981 -1.1567 -0.5341
 6805TIP3    H244611   5.007   7.672   1.129 -0.7357 -0.1678  0.3585
 6806TIP3   OH244612   5.737   7.221   3.589  0.0068 -0.1641 -0.2564
 6806TIP3    H144613   5.690   7.295   3.550  1.6314  1.0944  0.0451
 6806TIP3    H244614   5.697   7.210   3.675  0.4807  1.1884  0.1761
 6807TIP3   OH244615   5.829   4.207   2.171 -0.4895 -0.2736  0.1786
 6807TIP3    H144616   5.901   4.146   2.151 -0.3259  0.6069 -2.2497
 6807TIP3    H244617   5.873   4.290   2.191 -0.7815 -0.4535  1.7380
 6808TIP3   OH244618   5.462   0.725   2.653  0.7769  0.0700  0.7226
 6808TIP3    H144619   5.543   0.687   2.686  0.9012  1.2055  1.7891
 6808TIP3    H244620   5.398   0.654   2.662  1.6165 -0.8092 -0.0666
 6809TIP3   OH244621   2.572   7.100   2.484  0.0111 -0.0859 -0.4144
 6809TIP3    H144622   2.503   7.051   2.529 -0.0210  1.1087  0.9283
 6809TIP3    H244623   2.643   7.038   2.473 -0.7772 -0.9732 -0.6026
 6810TIP3   OH244624   1.873   2.574   1.535  0.2499 -0.0047 -0.1857
 6810TIP3    H144625   1.810   2.577   1.462  0.4074  2.5740 -0.3216
 6810TIP3    H244626   1.958   2.576   1.492  0.3939 -0.7451  0.0545
 6811TIP3   OH244627   4.254   1.336   0.828 -0.6522  0.2122 -0.1686
 6811TIP3    H144628   4.249   1.361   0.736  0.3612  0.5667 -0.1399
 6811TIP3    H244629   4.302   1.407   0.870 -0.0292 -0.5303  0.4031
 6812TIP3   OH244630   1.566   0.960   2.615 -0.1124 -0.5724  0.3566
 6812TIP3    H144631   1.558   0.994   2.526  4.5274  1.1476  0.2886
 6812TIP3    H244632   1.520   1.024   2.669 -0.9520 -0.3093 -0.6480
 6813TIP3   OH244633   1.828   1.835   1.200 -0.0373  0.0004  0.1814
 6813TIP3    H144634   1.860   1.747   1.182 -0.5720  0.0526 -1.1168
 6813TIP3    H244635   1.733   1.829   1.185  0.0824  1.0793 -1.1318
 6814TIP3   OH244636   7.637   0.237   2.461  0.4082  0.0324 -0.5275
 6814TIP3    H144637   7.568   0.300   2.437 -1.1283 -1.3940 -0.0782
 6814TIP3    H244638   7.700   0.243   2.390  0.1553  1.8389 -0.6583
 6815TIP3   OH244639   4.154   5.774   1.347 -0.1875  0.9905 -0.2839
 6815TIP3    H144640   4.166   5.756   1.440  0.8442  0.5720 -0.4864
 6815TIP3    H244641   4.064   5.746   1.329  0.3639 -1.1737  0.0908
 6816TIP3   OH244642   7.259   6.188   1.740 -0.1185 -0.1455 -0.2218
 6816TIP3    H144643   7.197   6.258   1.760 -0.8604 -1.0946  0.9177
 6816TIP3    H244644   7.212   6.107   1.760  1.2911 -0.9104  0.1668
 6817TIP3   OH244645   4.121   1.212   1.977 -0.0945 -0.2135 -0.0592
 6817TIP3    H144646   4.063   1.224   2.051 -0.9320  1.5776 -0.9371
 6817TIP3    H244647   4.080   1.260   1.905  0.2265 -2.5816 -1.9817
 6818TIP3   OH244648   6.590   4.722   1.668  0.0155  0.3653  0.2237
 6818TIP3    H144649   6.640   4.690   1.743  0.8930 -0.4801 -0.6808
 6818TIP3    H244650   6.526   4.652   1.650  0.0132  0.4215  0.0051
 6819TIP3   OH244651   6.467   3.320   1.583  0.3068 -0.2872  0.3196
 6819TIP3    H144652   6.409   3.346   1.655 -0.6504 -0.6929 -0.2855
 6819TIP3    H244653   6.409   3.281   1.518  1.3344 -1.1916 -0.0889
 6820TIP3   OH244654   6.167   6.376   2.698  0.1371 -0.4004 -0.1412
 6820TIP3    H144655   6.120   6.296   2.676 -1.7071  0.5084  0.2244
 6820TIP3    H244656   6.101   6.431   2.742  1.7181  0.7374  0.9323
 6821TIP3   OH244657   7.311   4.560   2.530 -0.3361  0.2007 -0.0700
 6821TIP3    H144658   7.362   4.544   2.451  0.3673  0.7349  0.2659
 6821TIP3    H244659   7.374   4.557   2.601 -1.0023 -0.5203  0.5117
 6822TIP3   OH244660   7.585   3.929   1.210 -0.3078  0.1832  0.0591
 6822TIP3    H144661   7.675   3.954   1.188 -0.5040  0.1337 -0.8023
 6822TIP3    H244662   7.596   3.854   1.270  0.2670  1.8248  2.1192
 6823TIP3   OH244663   4.626   2.457   1.721 -0.1542  0.4999 -0.0483
 6823TIP3    H144664   4.630   2.392   1.651 -0.7871 -0.4069  0.7270
 6823TIP3    H244665   4.645   2.407   1.801 -1.8448  1.0094  0.7056
 6824TIP3   OH244666   1.538   0.383   8.394  0.9899  0.8539 -0.3881
 6824TIP3    H144667   1.480   0.442   8.442  1.0299 -0.1037  0.8917
 6824TIP3    H244668   1.480   0.329   8.341  0.5555 -0.7709  1.6287
 6825TIP3   OH244669   6.289   4.547   2.534 -0.3236  0.0444  0.7067
 6825TIP3    H144670   6.316   4.570   2.446 -0.6710  1.5273  0.9687
 6825TIP3    H244671   6.268   4.453   2.529  3.4491 -0.9167  0.1878
 6826TIP3   OH244672   3.935   4.737   1.517 -0.2803  0.0747  0.0913
 6826TIP3    H144673   3.960   4.819   1.476  0.9965 -0.4325 -0.1663
 6826TIP3    H244674   3.841   4.729   1.498 -0.6315  1.8692  0.8436
 6827TIP3   OH244675   3.206   2.868   1.278 -0.3515  0.0706  0.0255
 6827TIP3    H144676   3.115   2.864   1.310 -0.8250  1.3714 -1.0879
 6827TIP3    H244677   3.209   2.947   1.224  1.1543 -0.5738 -0.8797
 6828TIP3   OH244678   5.608   1.446   2.681 -0.1201 -0.9090 -0.0147
 6828TIP3    H144679   5.568   1.458   2.595  0.5741 -0.7306 -0.3177
 6828TIP3    H244680   5.534   1.430   2.740 -0.5365 -1.8249 -0.7762
 6829TIP3   OH244681   7.353   5.437   3.554  0.0228 -0.0162 -0.8352
 6829TIP3    H144682   7.306   5.501   3.500 -0.3155  0.4069 -0.0495
 6829TIP3    H244683   7.299   5.427   3.632 -0.6532 -2.3206 -1.5275
 6830TIP3   OH244684   4.551   1.569   2.433 -0.0764 -0.3461 -0.4016
 6830TIP3    H144685   4.470   1.536   2.471  0.2276 -0.6241  0.0010
 6830TIP3    H244686   4.619   1.544   2.495  0.3844 -0.5536 -0.9857
 6831TIP3   OH244687   7.480   5.731   2.477 -0.3749  0.2556  0.1719
 6831TIP3    H144688   7.444   5.751   2.391 -1.1108 -1.0019  0.1629
 6831TIP3    H244689   7.573   5.753   2.471 -0.4108  0.1155 -0.9594
 6832TIP3   OH244690   1.914   0.115   2.537 -0.5102 -0.7134 -0.4583
 6832TIP3    H144691   1.868   0.054   2.594  0.5703 -0.2961  0.9280
 6832TIP3    H244692   1.903   0.201   2.579  2.2340 -0.7108  0.5120
 6833TIP3   OH244693   3.683   0.845   1.477 -0.1477 -0.2205  0.2989
 6833TIP3    H144694   3.617   0.890   1.529 -1.8401 -0.4271 -1.5468
 6833TIP3    H244695   3.668   0.752   1.496 -0.6198 -0.2832 -0.3278
 6834TIP3   OH244696   5.669   5.458   2.285  0.3843  0.2083 -0.0686
 6834TIP3    H144697   5.717   5.402   2.225 -0.0172  1.1140 -1.2595
 6834TIP3    H244698   5.602   5.400   2.324 -0.1356 -0.1111 -1.3972
 6835TIP3   OH244699   1.577   3.732   1.274  0.6783 -0.2288  0.0589
 6835TIP3    H144700   1.494   3.741   1.320  1.5202 -0.2782  1.6540
 6835TIP3    H244701   1.616   3.652   1.310  1.0915 -0.6259 -1.2187
 6836TIP3   OH244702   4.651   2.254   1.501 -0.8230 -0.4049  0.0194
 6836TIP3    H144703   4.578   2.237   1.442 -0.3500  1.1856 -1.1153
 6836TIP3    H244704   4.669   2.170   1.543 -1.5226 -1.4818 -1.7309
 6837TIP3   OH244705   3.664   4.605   1.447  0.1081  0.6259 -0.0660
 6837TIP3    H144706   3.640   4.569   1.533  0.9277 -1.6834 -0.7230
 6837TIP3    H244707   3.581   4.630   1.407 -0.4754 -0.1766  0.6079
 6838TIP3   OH244708   4.942   2.573   1.396 -0.6347  0.5553  0.3101
 6838TIP3    H144709   4.888   2.644   1.362 -1.5499 -0.2378  0.0531
 6838TIP3    H244710   4.997   2.614   1.463 -2.2767  1.2060  1.2989
 6839TIP3   OH244711   4.210   5.647   0.918  0.1698  0.2751  0.3411
 6839TIP3    H144712   4.209   5.629   1.012  0.4267 -1.7125  0.0265
 6839TIP3    H244713   4.190   5.562   0.878 -1.7082  1.4492 -1.3835
 6840TIP3   OH244714   0.766   3.063   3.030 -0.4990 -0.1868 -0.1636
 6840TIP3    H144715   0.779   3.095   3.119 -0.5847 -1.6348  0.4126
 6840TIP3    H244716   0.719   3.133   2.985  0.9296  1.2247  0.4570
 6841TIP3   OH244717   1.963   6.054   0.872 -0.2990 -0.0586 -0.4112
 6841TIP3    H144718   1.956   5.961   0.850  0.1375 -0.4231  0.9182
 6841TIP3    H244719   1.984   6.055   0.966 -1.9607  1.4153 -0.0131
 6842TIP3   OH244720   6.300   1.204   1.509 -0.0851 -0.3274  0.0164
 6842TIP3    H144721   6.263   1.119   1.531  2.7353 -1.6843 -0.0942
 6842TIP3    H244722   6.344   1.190   1.425 -0.6570  1.6388 -0.6735
 6843TIP3   OH244723   2.967   7.025   2.218 -0.2827 -0.0435 -0.5957
 6843TIP3    H144724   2.952   7.045   2.126 -0.4987  0.3790 -0.4707
 6843TIP3    H244725   3.059   7.047   2.233  0.7833 -3.2403 -1.5236
 6844TIP3   OH244726   6.500   3.151   2.388  0.2477  0.4415  0.2142
 6844TIP3    H144727   6.439   3.198   2.331 -1.2544  0.1053  1.5005
 6844TIP3    H244728   6.567   3.215   2.410 -1.1362  1.6723  0.9936
 6845TIP3   OH244729   0.005   3.267   0.907 -0.0062 -0.7043  0.5449
 6845TIP3    H144730   0.084   3.258   0.855  0.1802 -1.1486  0.9041
 6845TIP3    H244731  -0.063   3.222   0.856 -0.7126  2.1057 -1.1834
 6846TIP3   OH244732   1.719   2.029   2.287  0.6433 -0.5033 -0.1964
 6846TIP3    H144733   1.719   2.021   2.382  0.6753  6.2188  0.8404
 6846TIP3    H244734   1.812   2.034   2.264  0.6511  1.4403  0.1006
 6847TIP3   OH244735   7.430   4.490   2.770 -0.0252  0.1107  0.4004
 6847TIP3    H144736   7.456   4.566   2.821 -1.3826  0.4279  0.6543
 6847TIP3    H244737   7.457   4.415   2.824 -0.3290  0.4306  1.0096
 6848TIP3   OH244738   4.904   2.677   1.058 -0.7646 -0.3660  0.5348
 6848TIP3    H144739   4.832   2.619   1.035  0.1015 -0.9153 -0.9304
 6848TIP3    H244740   4.923   2.726   0.978  1.3995 -1.2594  0.4318
 6849TIP3   OH244741   6.649   0.693   0.516  0.2581  0.3535  0.3980
 6849TIP3    H144742   6.675   0.601   0.517 -0.4776  0.0788 -1.5333
 6849TIP3    H244743   6.700   0.733   0.587  1.5948 -1.2584  0.4159
 6850TIP3   OH244744   6.932   7.563   2.495 -0.4620  0.1279  0.3657
 6850TIP3    H144745   6.911   7.655   2.477  1.1513  0.5088  0.3112
 6850TIP3    H244746   6.997   7.567   2.565  1.0888 -0.8640 -0.9616
 6851TIP3   OH244747   6.614   1.813   2.050  0.0065  0.4331  0.2147
 6851TIP3    H144748   6.594   1.881   2.114 -0.0759  1.6259 -1.0181
 6851TIP3    H244749   6.709   1.803   2.055 -0.1601 -0.6490  1.6270
 6852TIP3   OH244750   6.593   3.756   1.922 -0.4306  0.0606 -0.2804
 6852TIP3    H144751   6.653   3.797   1.984 -0.2239  0.2966 -0.6337
 6852TIP3    H244752   6.647   3.695   1.872 -1.2453 -3.0497  2.2701
 6853TIP3   OH244753   4.331   4.127   2.671 -0.0186  0.4283  0.4725
 6853TIP3    H144754   4.318   4.221   2.654 -0.1634  0.6075  1.4914
 6853TIP3    H244755   4.262   4.105   2.735 -0.6387 -0.6183 -0.5245
 6854TIP3   OH244756   2.363   4.201   1.178 -0.3523  0.7931 -0.3913
 6854TIP3    H144757   2.446   4.224   1.221  0.2828  0.8186 -1.5902
 6854TIP3    H244758   2.296   4.221   1.244  0.6606 -0.6837  1.1908
 6855TIP3   OH244759   4.006   2.986   1.421 -0.2848 -0.4278  0.1552
 6855TIP3    H144760   3.922   3.007   1.462 -0.5096 -1.9114  0.5134
 6855TIP3    H244761   4.072   3.016   1.483 -0.6043 -1.0964  0.8403
 6856TIP3   OH244762   1.719   5.453   0.717  0.0050 -0.1478 -0.4756
 6856TIP3    H144763   1.632   5.415   0.728 -0.2042  0.6047  0.6981
 6856TIP3    H244764   1.704   5.535   0.671 -0.0012  0.2890  0.2836
 6857TIP3   OH244765   5.939   4.729   2.849 -0.6190  0.4013 -0.4130
 6857TIP3    H144766   6.026   4.747   2.884 -0.7641  2.3342 -0.9364
 6857TIP3    H244767   5.885   4.713   2.926 -0.0268  0.2029 -0.0255
 6858TIP3   OH244768   5.859   2.577   1.771 -0.4557  0.5033  0.4176
 6858TIP3    H144769   5.944   2.618   1.754 -0.1988  0.1596  0.8556
 6858TIP3    H244770   5.822   2.560   1.685  0.2201  0.0391  0.2129
 6859TIP3   OH244771   6.285   7.149   0.529  0.0340 -0.0551  0.2118
 6859TIP3    H144772   6.299   7.149   0.435  0.9253  0.1942  0.3319
 6859TIP3    H244773   6.233   7.228   0.546  0.2540  0.1412 -0.0178
 6860TIP3   OH244774   5.778   0.108   1.875  0.2046  0.0827  0.1567
 6860TIP3    H144775   5.789   0.060   1.793 -0.3980 -2.2294  1.3293
 6860TIP3    H244776   5.731   0.047   1.932  2.5782  0.6270  2.9922
 6861TIP3   OH244777   6.254   6.194   2.345  0.0219  0.1964  0.0739
 6861TIP3    H144778   6.205   6.149   2.277  0.6904 -0.9738  0.3352
 6861TIP3    H244779   6.187   6.232   2.402 -0.5377  0.8250 -0.9817
 6862TIP3   OH244780   0.417   0.395   0.419  0.4413  0.5462 -0.1883
 6862TIP3    H144781   0.441   0.487   0.404  0.2563  0.4183 -1.2975
 6862TIP3    H244782   0.490   0.345   0.385 -0.1029  0.2442 -0.9359
 6863TIP3   OH244783   5.601   2.601   1.899  0.0882 -0.1073 -0.1798
 6863TIP3    H144784   5.551   2.626   1.821 -0.5098 -0.3721  0.1179
 6863TIP3    H244785   5.692   2.601   1.869  0.1810  2.7237 -0.1172
 6864TIP3   OH244786   3.771   4.401   1.268  0.1300  0.1093  0.1396
 6864TIP3    H144787   3.725   4.429   1.347 -0.4853 -0.3402 -0.0441
 6864TIP3    H244788   3.790   4.482   1.221 -2.3895  0.2440 -0.8080
 6865TIP3   OH244789   2.437   6.578   0.772 -1.0321 -0.2028 -0.2052
 6865TIP3    H144790   2.343   6.563   0.784 -0.4400 -2.4130  3.0900
 6865TIP3    H244791   2.470   6.495   0.739 -0.0475  0.0781  0.0458
 6866TIP3   OH244792   3.068   0.794   2.177  0.3438  0.3785  0.0901
 6866TIP3    H144793   3.128   0.772   2.105  1.0203 -0.4925  0.8921
 6866TIP3    H244794   3.039   0.709   2.210 -2.0591  0.7723 -0.8293
 6867TIP3   OH244795   6.462   0.581   1.462 -0.0815 -0.2215  0.0667
 6867TIP3    H144796   6.419   0.542   1.386 -0.0160  1.1362 -0.7038
 6867TIP3    H244797   6.399   0.572   1.533 -0.7767 -0.1519 -0.5337
 6868TIP3   OH244798   0.158   4.416   2.202 -0.3815  0.2737  0.4499
 6868TIP3    H144799   0.167   4.510   2.182  0.9542  0.0546 -0.0470
 6868TIP3    H244800   0.232   4.397   2.260 -1.4002 -0.2029  1.6346
 6869TIP3   OH244801   0.038   0.632   2.497 -0.3876  0.4168  0.4314
 6869TIP3    H144802   0.079   0.717   2.509  0.3167  0.2392 -0.5697
 6869TIP3    H244803  -0.028   0.646   2.428  2.1944 -0.5260 -2.4732
 6870TIP3   OH244804   7.561   4.840   1.565  0.2171 -0.1103 -0.0073
 6870TIP3    H144805   7.558   4.837   1.470 -2.0820  0.7570 -0.0284
 6870TIP3    H244806   7.505   4.769   1.593 -0.7324  0.8595  0.6346
 6871TIP3   OH244807   7.107   0.483   3.087 -0.1532 -0.0680  0.3669
 6871TIP3    H144808   7.139   0.556   3.141 -0.9392  0.1614  0.5337
 6871TIP3    H244809   7.065   0.424   3.150 -1.9533  0.6723 -0.0752
 6872TIP3   OH244810   1.266   3.724   2.652 -0.1026 -0.0727  0.1322
 6872TIP3    H144811   1.200   3.790   2.633  0.2499 -0.6031 -3.5391
 6872TIP3    H244812   1.346   3.756   2.610  0.9780 -1.2691  1.1711
 6873TIP3   OH244813   4.027   5.753   2.751 -0.3825  0.3202 -0.0856
 6873TIP3    H144814   4.090   5.692   2.790 -0.3956 -1.5268 -2.6804
 6873TIP3    H244815   3.942   5.723   2.783 -0.2311  0.5330  0.5434
 6874TIP3   OH244816   7.407   1.766   2.202  0.0961 -0.2378 -0.2167
 6874TIP3    H144817   7.493   1.724   2.197 -0.5651 -1.8630  1.1000
 6874TIP3    H244818   7.346   1.700   2.170 -0.5581  1.6684 -3.3720
 6875TIP3   OH244819   5.156   0.502   2.185 -0.1992 -0.5377 -0.2206
 6875TIP3    H144820   5.090   0.456   2.235  0.5255 -1.3797 -0.0097
 6875TIP3    H244821   5.238   0.485   2.231  0.3671 -0.6734 -1.2381
 6876TIP3   OH244822   1.148   3.553   0.667 -0.0439  0.1441 -0.1085
 6876TIP3    H144823   1.061   3.525   0.636  0.0007 -0.1010 -0.0165
 6876TIP3    H244824   1.181   3.478   0.717 -0.6993  1.0092  1.7462
 6877TIP3   OH244825   0.233   1.531   2.157 -0.0745  0.1451  0.2917
 6877TIP3    H144826   0.237   1.436   2.156  0.4425  0.1687 -0.6848
 6877TIP3    H244827   0.256   1.555   2.247 -1.0885 -0.6756  0.7857
 6878TIP3   OH244828   1.610   4.858   3.017  0.2350 -0.1727 -0.2169
 6878TIP3    H144829   1.603   4.934   3.075 -2.2161 -0.2597 -0.2867
 6878TIP3    H244830   1.525   4.854   2.973  0.9778 -1.8800 -1.5941
 6879TIP3   OH244831   6.550   3.689   3.054 -0.3277 -0.4070 -0.1057
 6879TIP3    H144832   6.462   3.660   3.030 -0.5589 -0.0060  0.2376
 6879TIP3    H244833   6.608   3.620   3.021 -0.8886 -1.4454  1.0023
 6880TIP3   OH244834   6.261   3.758   0.727  0.6683 -0.8148  0.0115
 6880TIP3    H144835   6.279   3.693   0.660 -0.9182 -0.0721 -1.2022
 6880TIP3    H244836   6.172   3.738   0.756 -0.0364  1.0412 -0.7149
 6881TIP3   OH244837   1.690   1.278   1.605 -0.1522  0.3232  0.0821
 6881TIP3    H144838   1.696   1.368   1.572  2.1404 -0.0502 -0.7327
 6881TIP3    H244839   1.735   1.281   1.690 -0.9984  0.1479  0.5394
 6882TIP3   OH244840   3.859   5.683   2.962 -0.1000  0.1284 -0.2978
 6882TIP3    H144841   3.878   5.635   3.042 -2.4720  2.4363  1.8319
 6882TIP3    H244842   3.862   5.775   2.988 -0.1355  1.0094 -3.0919
 6883TIP3   OH244843   6.860   7.617   1.594 -0.1979  0.4213  0.6377
 6883TIP3    H144844   6.778   7.568   1.600 -0.8393  1.5023  1.2249
 6883TIP3    H244845   6.924   7.555   1.560 -1.0795 -0.6720  0.9276
 6884TIP3   OH244846   4.392   1.469   1.975 -0.5402 -0.1249 -0.1001
 6884TIP3    H144847   4.318   1.529   1.970  0.1409  0.6754 -0.7558
 6884TIP3    H244848   4.456   1.514   2.030 -1.4907 -1.8935  2.7020
 6885TIP3   OH244849   5.073   6.855   0.809  0.3188 -0.1433 -0.5284
 6885TIP3    H144850   4.993   6.896   0.776  0.0814  0.5395  0.8019
 6885TIP3    H244851   5.128   6.928   0.836  1.4466 -0.6032 -1.4848
 6886TIP3   OH244852   3.887   3.755   2.293  0.4599 -0.1369 -0.4475
 6886TIP3    H144853   3.849   3.760   2.381  2.0636  0.9602  0.2192
 6886TIP3    H244854   3.848   3.677   2.255  0.3950 -1.1454  1.5603
 6887TIP3   OH244855   5.688   0.668   2.885  0.2972  0.1782  0.0759
 6887TIP3    H144856   5.743   0.729   2.934  0.1171 -0.4341  1.0650
 6887TIP3    H244857   5.604   0.669   2.931 -0.3519  0.6948 -1.0965
 6888TIP3   OH244858   4.566   1.303   1.881  0.4100  0.6268  0.7435
 6888TIP3    H144859   4.486   1.348   1.909 -0.4373  0.0662 -0.6303
 6888TIP3    H244860   4.628   1.316   1.953 -1.3144  0.0357  2.4149
 6889TIP3   OH244861   3.361   7.242   2.779  0.1331  0.0172  0.1129
 6889TIP3    H144862   3.393   7.167   2.830 -0.7118 -0.1382  0.4287
 6889TIP3    H244863   3.432   7.306   2.783  0.5381 -0.4542  0.5153
 6890TIP3   OH244864   2.215   0.669   0.507  0.1189 -0.3747 -0.1768
 6890TIP3    H144865   2.122   0.691   0.514 -0.0717 -1.5569  1.3367
 6890TIP3    H244866   2.258   0.724   0.572  0.2388 -1.1095  0.3746
 6891TIP3   OH244867   2.791   5.297   3.282 -0.1597 -0.1400  0.2650
 6891TIP3    H144868   2.792   5.378   3.333  0.7573 -0.7076  1.1883
 6891TIP3    H244869   2.860   5.310   3.216 -0.1877 -0.0769  0.2476
 6892TIP3   OH244870   2.195   3.143   3.111  0.6449 -0.1140 -0.4517
 6892TIP3    H144871   2.218   3.077   3.176  0.8799  1.4212  1.0916
 6892TIP3    H244872   2.277   3.191   3.096  0.7646 -0.8181 -2.4067
 6893TIP3   OH244873   1.971   0.141   2.926 -0.6498 -0.2498  0.4699
 6893TIP3    H144874   2.003   0.201   2.993 -0.0140  0.9735 -0.8904
 6893TIP3    H244875   1.878   0.161   2.918 -0.8357 -0.7144  1.2570
 6894TIP3   OH244876   7.362   3.841   0.811  0.6395 -0.4113 -0.1773
 6894TIP3    H144877   7.395   3.913   0.865 -0.1011 -1.8626  2.4025
 6894TIP3    H244878   7.281   3.875   0.774  0.4068  0.2009  0.8349
 6895TIP3   OH244879   0.159   1.800   3.052  0.2758 -0.2005 -0.5649
 6895TIP3    H144880   0.227   1.830   3.112  0.0511 -1.5476  0.3970
 6895TIP3    H244881   0.165   1.860   2.977  1.4844  0.6449  0.1761
 6896TIP3   OH244882   1.561   5.595   1.273 -0.2651 -0.0350  0.0479
 6896TIP3    H144883   1.502   5.591   1.197  0.6859  0.4267 -0.7412
 6896TIP3    H244884   1.647   5.578   1.237  0.6000  2.7602  0.5337
 6897TIP3   OH244885   2.912   3.369   2.322  0.0684 -0.2074 -0.5824
 6897TIP3    H144886   2.864   3.287   2.334  0.3636 -0.2455  0.3580
 6897TIP3    H244887   2.976   3.350   2.254  0.7268 -1.0142  0.2584
 6898TIP3   OH244888   7.319   2.212   0.400 -0.2575 -0.3183 -0.3303
 6898TIP3    H144889   7.309   2.302   0.429 -0.9706 -0.8685  1.2989
 6898TIP3    H244890   7.239   2.194   0.350 -0.2154 -0.1085 -0.4717
 6899TIP3   OH244891   5.713   7.238   0.648  0.0470 -0.9597  0.0438
 6899TIP3    H144892   5.663   7.166   0.608 -0.4995 -0.4592 -0.1956
 6899TIP3    H244893   5.776   7.263   0.580 -1.4311  0.4476 -0.8997
 6900TIP3   OH244894   1.068   4.489   0.986  0.2661 -0.0727 -0.4549
 6900TIP3    H144895   1.028   4.404   0.971 -0.8012  0.2534  0.4210
 6900TIP3    H244896   1.142   4.470   1.044 -0.6952 -0.2836  0.7448
 6901TIP3   OH244897   2.236   3.522   2.981  0.3043 -0.1246 -0.2438
 6901TIP3    H144898   2.307   3.458   2.976  1.0286  0.5933  0.4760
 6901TIP3    H244899   2.279   3.606   2.962 -0.2873  0.3602  0.5289
 6902TIP3   OH244900   2.953   7.285   1.658  0.1276 -0.3964 -0.2955
 6902TIP3    H144901   2.971   7.303   1.566  3.2611 -1.8525 -0.0704
 6902TIP3    H244902   3.039   7.273   1.698 -1.1091  0.4382  2.9173
 6903TIP3   OH244903   7.553   3.514   1.064  0.5081 -0.3658  0.4593
 6903TIP3    H144904   7.571   3.450   0.996  0.8736 -0.1603  0.3571
 6903TIP3    H244905   7.640   3.543   1.093  0.3519 -0.2166  0.7851
 6904TIP3   OH244906   0.351   2.575   1.830  0.0767  0.0738 -0.3623
 6904TIP3    H144907   0.312   2.496   1.793  2.4908 -0.2627 -2.4812
 6904TIP3    H244908   0.375   2.550   1.919 -0.4826 -1.1031 -0.5140
 6905TIP3   OH244909   0.380   0.221   1.319  0.5607  0.5990 -0.1015
 6905TIP3    H144910   0.401   0.191   1.231  0.8412  3.4998 -1.1523
 6905TIP3    H244911   0.465   0.234   1.362  0.4286 -0.7319  0.6112
 6906TIP3   OH244912   1.413   7.155   1.632 -0.2102 -0.4357  0.0440
 6906TIP3    H144913   1.499   7.120   1.609 -0.6970 -1.0345 -0.8803
 6906TIP3    H244914   1.431   7.245   1.661  0.7312 -0.5819 -0.0610
 6907TIP3   OH244915   2.814   2.177   3.389 -0.1727  0.5271  0.0816
 6907TIP3    H144916   2.755   2.251   3.378  0.7275  1.5416  1.6696
 6907TIP3    H244917   2.901   2.216   3.399  0.5169 -0.8211 -0.3580
 6908TIP3   OH244918   0.032   4.545   3.152 -0.0348 -0.6719 -0.0289
 6908TIP3    H144919  -0.024   4.471   3.176 -0.1556 -0.8892 -0.9192
 6908TIP3    H244920  -0.029   4.617   3.135  0.0936 -0.3006  1.0164
 6909TIP3   OH244921   5.984   3.406   1.440 -0.1482  0.1158  0.0258
 6909TIP3    H144922   5.911   3.344   1.442 -1.4786  1.6223  0.0734
 6909TIP3    H244923   5.989   3.434   1.348  0.1110  0.3294  0.1043
 6910TIP3   OH244924   2.157   7.555   1.657 -1.0604 -0.3494  0.5388
 6910TIP3    H144925   2.071   7.572   1.697 -1.2075 -0.9304  0.4743
 6910TIP3    H244926   2.139   7.492   1.588 -0.6958  0.1225  0.0096
 6911TIP3   OH244927   2.177   2.738   1.272  0.6578 -0.4568  1.0419
 6911TIP3    H144928   2.218   2.802   1.331  2.7963 -0.7578  0.0026
 6911TIP3    H244929   2.189   2.776   1.184  0.9690 -1.7327  0.5068
 6912TIP3   OH244930   6.249   3.194   1.456 -0.7552  0.2562 -0.1372
 6912TIP3    H144931   6.267   3.202   1.362  1.0965  0.0965  0.1855
 6912TIP3    H244932   6.157   3.221   1.464 -1.0465  0.0139 -2.0212
 6913TIP3   OH244933   0.527   5.004   0.696 -0.1157 -0.3121  0.4235
 6913TIP3    H144934   0.476   5.072   0.739  1.2070  0.5283  0.7172
 6913TIP3    H244935   0.532   5.030   0.604 -0.0378 -0.2891  0.4343
 6914TIP3   OH244936   3.017   0.686   1.464  0.6199 -0.3946 -0.5093
 6914TIP3    H144937   3.106   0.680   1.428  0.0417 -0.5118 -2.0146
 6914TIP3    H244938   2.983   0.769   1.428  0.6453  0.4753  1.3555
 6915TIP3   OH244939   6.418   2.169   1.918  0.1732 -0.2189 -0.4517
 6915TIP3    H144940   6.461   2.169   2.003 -0.1042  1.2964 -0.2947
 6915TIP3    H244941   6.483   2.130   1.859  0.7719 -0.3074  0.2449
 6916TIP3   OH244942   6.254   7.617   1.712  0.0382 -0.1989 -0.4396
 6916TIP3    H144943   6.258   7.702   1.669 -0.7233 -0.1342 -0.4055
 6916TIP3    H244944   6.192   7.629   1.784 -1.3722 -1.1810 -1.4281
 6917TIP3   OH244945   2.348   3.429   0.695 -0.1000 -0.1519 -0.0455
 6917TIP3    H144946   2.443   3.421   0.697  0.0646  1.5191  0.9309
 6917TIP3    H244947   2.317   3.363   0.758  0.4538 -0.1835  0.1998
 6918TIP3   OH244948   6.012   5.348   0.510 -0.0272  0.2229 -0.4238
 6918TIP3    H144949   6.009   5.439   0.480  0.4217  0.3840  0.0139
 6918TIP3    H244950   5.920   5.323   0.517 -0.1481  0.0565 -2.2801
 6919TIP3   OH244951   0.459   6.543   2.640 -0.5002 -0.0796 -0.3549
 6919TIP3    H144952   0.547   6.579   2.646 -1.0632  1.4482 -0.6763
 6919TIP3    H244953   0.420   6.558   2.726 -0.0795 -1.8669  0.1880
 6920TIP3   OH244954   1.172   2.984   3.465 -0.7030  0.5748 -0.2019
 6920TIP3    H144955   1.109   3.055   3.478  0.0171  1.2175 -0.1818
 6920TIP3    H244956   1.153   2.922   3.536 -2.7017 -0.3030 -1.4004
 6921TIP3   OH244957   3.248   1.196   2.365  1.0518  0.5091 -0.0919
 6921TIP3    H144958   3.233   1.290   2.352  0.3328  0.4398  0.2165
 6921TIP3    H244959   3.225   1.181   2.457 -1.9470 -0.5636 -0.9351
 6922TIP3   OH244960   0.664   2.655   0.993  0.2509 -0.3598  0.1638
 6922TIP3    H144961   0.748   2.634   1.034  1.7702 -0.1010 -2.5612
 6922TIP3    H244962   0.615   2.572   0.995  1.2779 -0.9825  0.2356
 6923TIP3   OH244963   4.189   6.567   0.869  0.1724 -0.7675 -0.2058
 6923TIP3    H144964   4.166   6.534   0.783 -0.0561 -2.2161  0.3810
 6923TIP3    H244965   4.253   6.637   0.852  0.0312 -0.9426 -1.5307
 6924TIP3   OH244966   6.235   4.314   2.694 -0.0389 -0.0672 -0.3767
 6924TIP3    H144967   6.186   4.294   2.773  1.7750  1.3989  1.1963
 6924TIP3    H244968   6.290   4.236   2.679  1.0887  0.4199  1.0308
 6925TIP3   OH244969   4.963   6.200   1.721 -0.5830 -0.0255 -0.3735
 6925TIP3    H144970   4.996   6.290   1.721  0.9140 -0.5538 -0.7394
 6925TIP3    H244971   5.033   6.149   1.762 -1.7753 -0.9102  0.6385
 6926TIP3   OH244972   2.364   1.791   1.190 -0.4458  0.4839  0.5694
 6926TIP3    H144973   2.459   1.784   1.192 -0.4065  0.7091 -0.1573
 6926TIP3    H244974   2.333   1.723   1.249  0.1946  1.0996  1.6438
 6927TIP3   OH244975   2.297   1.570   1.689  0.3434 -0.5202  0.1133
 6927TIP3    H144976   2.290   1.475   1.699 -0.4903 -0.2348  3.1173
 6927TIP3    H244977   2.366   1.596   1.750 -0.7863  1.0022  0.7875
 6928TIP3   OH244978   4.393   1.861   1.555  0.3510  0.2590 -0.3299
 6928TIP3    H144979   4.358   1.794   1.496 -3.2198  1.7991 -0.1798
 6928TIP3    H244980   4.319   1.886   1.610  2.0700  2.9711  0.9565
 6929TIP3   OH244981   3.446   1.974   2.313 -0.3136  0.0881  0.0147
 6929TIP3    H144982   3.482   2.061   2.329  0.0629 -0.0638  0.0038
 6929TIP3    H244983   3.450   1.963   2.218 -0.5539  0.1401 -0.0021
 6930TIP3   OH244984   5.394   2.245   1.778  0.5504 -0.8382 -0.4734
 6930TIP3    H144985   5.440   2.235   1.861  1.0250 -0.4315 -0.6802
 6930TIP3    H244986   5.371   2.156   1.751  3.5202 -1.3464 -1.6466
 6931TIP3   OH244987   6.035   7.680   0.381 -0.1660  0.1119 -0.0087
 6931TIP3    H144988   6.028   7.758   0.437 -2.1117 -0.6198  0.8432
 6931TIP3    H244989   6.124   7.647   0.399 -0.0149  1.0314  1.1121
 6932TIP3   OH244990   2.339   3.569   1.476  0.0967 -0.3462  0.8538
 6932TIP3    H144991   2.279   3.643   1.491 -1.0541 -1.6847  3.4246
 6932TIP3    H244992   2.413   3.608   1.429 -1.6209  1.8786 -0.2118
 6933TIP3   OH244993   5.617   2.916   2.907 -0.0270  0.3499 -0.4242
 6933TIP3    H144994   5.643   2.964   2.985 -2.2261  0.1395  0.5141
 6933TIP3    H244995   5.534   2.956   2.881 -1.2349 -1.9983 -0.4054
 6934TIP3   OH244996   0.431   1.616   1.951  0.2642  0.7114 -0.1888
 6934TIP3    H144997   0.353   1.608   2.006  0.3396 -2.9902 -0.3541
 6934TIP3    H244998   0.418   1.698   1.903 -4.4658 -0.5134 -1.5733
 6935TIP3   OH244999   1.012   5.643   3.155 -0.2038  0.8436 -0.5691
 6935TIP3    H145000   1.013   5.733   3.123  0.7612  1.5061  1.2282
 6935TIP3    H245001   0.967   5.648   3.239 -3.0102 -0.9082 -1.8180
 6936TIP3   OH245002   1.667   1.630   0.834 -0.8460 -0.4210 -0.3464
 6936TIP3    H145003   1.594   1.674   0.789 -1.0021 -1.4673 -1.1482
 6936TIP3    H245004   1.744   1.678   0.805 -1.1524  0.4207  0.1675
 6937TIP3   OH245005   6.370   4.065   2.651  0.4662  0.7001  0.1004
 6937TIP3    H145006   6.418   4.036   2.573  2.5965  2.2688  0.7297
 6937TIP3    H245007   6.362   3.986   2.704  1.2694  0.1282 -0.5915
 6938TIP3   OH245008   2.347   2.536   1.631 -0.6590  0.1931  0.0324
 6938TIP3    H145009   2.279   2.506   1.571 -1.2834 -1.5583  1.5272
 6938TIP3    H245010   2.395   2.457   1.655  1.1189  1.2066  0.0136
 6939TIP3   OH245011   5.984   5.410   1.303  0.3422 -0.4892 -0.7808
 6939TIP3    H145012   5.925   5.364   1.363  0.8449 -1.2692 -0.8702
 6939TIP3    H245013   5.990   5.499   1.340  2.0507 -1.4087  1.4249
 6940TIP3   OH245014   6.857   1.317   1.199  0.1594 -0.8217  0.3120
 6940TIP3    H145015   6.782   1.313   1.139 -0.6424 -0.7710  1.2839
 6940TIP3    H245016   6.817   1.324   1.286  1.3018  0.4276  0.7590
 6941TIP3   OH245017   1.480   2.298   2.842  0.0112 -0.0265  0.1702
 6941TIP3    H145018   1.495   2.349   2.921  2.9694  0.9383 -0.8918
 6941TIP3    H245019   1.532   2.218   2.854  1.2493  0.5413 -1.0892
 6942TIP3   OH245020   1.225   0.047   1.814  0.5459  0.1194 -0.4613
 6942TIP3    H145021   1.164   0.120   1.821  0.2718 -0.0501 -0.9812
 6942TIP3    H245022   1.309   0.088   1.796  0.6175  0.3609  0.3723
 6943TIP3   OH245023   1.328   3.781   1.471  0.2584  0.2811  0.5606
 6943TIP3    H145024   1.381   3.711   1.509  0.1406  0.2200  0.6130
 6943TIP3    H245025   1.335   3.853   1.533 -0.0697  0.1233  0.7829
 6944TIP3   OH245026   6.054   2.161   0.830 -0.6702 -0.3227 -0.0497
 6944TIP3    H145027   5.965   2.143   0.859 -0.3560  1.0750  1.9143
 6944TIP3    H245028   6.109   2.114   0.893  0.0105  1.8469  1.0438
 6945TIP3   OH245029   1.195   6.393   2.977 -0.0661  0.1681  0.0342
 6945TIP3    H145030   1.275   6.342   2.966 -0.6538 -0.4622 -1.8485
 6945TIP3    H245031   1.207   6.469   2.919 -0.7780  0.1320 -0.1659
 6946TIP3   OH245032   3.453   2.804   1.169 -0.3667 -0.1161  0.0955
 6946TIP3    H145033   3.371   2.841   1.201 -1.2631 -1.2982 -0.7633
 6946TIP3    H245034   3.439   2.790   1.076  0.9247 -0.0620 -0.1268
 6947TIP3   OH245035   1.611   2.521   2.445  0.0381  0.4359  0.1503
 6947TIP3    H145036   1.624   2.575   2.366 -0.7314 -0.2083 -0.4328
 6947TIP3    H245037   1.688   2.465   2.449 -1.2353 -1.6316 -1.8828
 6948TIP3   OH245038   4.695   4.827   1.980  0.0185 -0.4904  0.2203
 6948TIP3    H145039   4.627   4.814   1.914 -0.5696 -0.9085  0.8930
 6948TIP3    H245040   4.671   4.768   2.051  0.8983 -0.3903  0.6185
 6949TIP3   OH245041   2.592   3.248   2.250  1.2790 -0.5298 -0.1141
 6949TIP3    H145042   2.515   3.281   2.204 -0.5551 -1.9187  1.8017
 6949TIP3    H245043   2.652   3.219   2.181  1.0816  2.5308 -1.7152
 6950TIP3   OH245044   6.803   2.067   1.513 -0.5235 -0.2917 -0.0754
 6950TIP3    H145045   6.725   2.116   1.538 -0.2907  0.6763 -1.1365
 6950TIP3    H245046   6.876   2.119   1.548 -0.3231 -0.8249  0.3148
 6951TIP3   OH245047   5.342   4.960   1.529  0.2356 -0.6927 -0.0105
 6951TIP3    H145048   5.411   5.025   1.541 -0.2432 -0.4112  1.4376
 6951TIP3    H245049   5.385   4.876   1.546 -0.1360 -0.3915  2.8505
 6952TIP3   OH245050   3.039   7.006   0.519 -0.2763 -0.3761 -0.0824
 6952TIP3    H145051   3.065   7.057   0.443  1.6166 -0.6930  0.3025
 6952TIP3    H245052   3.084   6.922   0.509  0.4042 -0.2608  1.6004
 6953TIP3   OH245053   4.324   2.312   2.038 -0.5747 -0.0662 -0.0342
 6953TIP3    H145054   4.257   2.251   2.072  0.3916 -1.0519  0.1610
 6953TIP3    H245055   4.301   2.396   2.078 -3.4879  0.3999 -2.3197
 6954TIP3   OH245056   2.249   3.744   1.146  0.2338  0.2709  0.4866
 6954TIP3    H145057   2.179   3.777   1.090  1.1500  0.3246 -0.6665
 6954TIP3    H245058   2.216   3.757   1.235 -1.5618 -0.4574 -0.0086
 6955TIP3   OH245059   4.496   5.530   2.369  0.4128 -0.0969 -0.3045
 6955TIP3    H145060   4.540   5.450   2.341  0.6007  0.4856 -1.7737
 6955TIP3    H245061   4.403   5.509   2.363  0.4681 -0.4087 -0.0686
 6956TIP3   OH245062   2.430   0.832   2.660  0.2314  0.4894  0.1839
 6956TIP3    H145063   2.381   0.768   2.712  1.1130  0.1617  0.6143
 6956TIP3    H245064   2.507   0.853   2.712 -0.5995  2.8311  0.6064
 6957TIP3   OH245065   2.490   7.002   0.914 -0.1103 -0.0986  0.2443
 6957TIP3    H145066   2.478   6.942   0.841  0.6178  0.8372 -0.6803
 6957TIP3    H245067   2.409   6.997   0.964 -0.9948 -0.0612 -1.1543
 6958TIP3   OH245068   4.215   7.241   1.252 -0.1164 -0.2771 -0.1466
 6958TIP3    H145069   4.210   7.152   1.286 -1.8522 -0.2547 -0.2057
 6958TIP3    H245070   4.143   7.245   1.188  0.1665  1.0544 -0.4066
 6959TIP3   OH245071   0.447   4.578   1.488 -1.1731  0.5600 -0.1164
 6959TIP3    H145072   0.381   4.558   1.554 -0.5079 -0.6076  0.2287
 6959TIP3    H245073   0.500   4.647   1.527 -0.3683 -0.5822  0.8998
 6960TIP3   OH245074   4.248   0.934   1.546 -0.7524  0.3899 -0.2532
 6960TIP3    H145075   4.226   0.857   1.599  0.8635  0.2378  0.2426
 6960TIP3    H245076   4.170   0.990   1.551 -1.3975 -0.5541  0.5713
 6961TIP3   OH245077   3.035   4.985   2.007  0.2207  0.2929 -0.1035
 6961TIP3    H145078   2.991   4.975   1.922  0.6437  0.7188 -0.3825
 6961TIP3    H245079   3.074   5.073   2.002  1.5190 -0.2651 -0.0644
 6962TIP3   OH245080   2.555   1.035   0.716 -0.3919  0.5471  0.4402
 6962TIP3    H145081   2.594   0.983   0.786 -1.3260 -0.0828  0.5171
 6962TIP3    H245082   2.604   1.011   0.637 -1.1534 -0.9115  0.3668
 6963TIP3   OH245083   4.760   7.602   2.613 -0.1615  0.2353 -0.2521
 6963TIP3    H145084   4.724   7.539   2.675  0.8265  0.2578  0.3594
 6963TIP3    H245085   4.693   7.610   2.545 -1.1374 -0.0046  0.6608
 6964TIP3   OH245086   7.271   1.555   2.105  0.2452  0.3272 -0.4053
 6964TIP3    H145087   7.176   1.558   2.090  0.6349  0.7587 -3.1654
 6964TIP3    H245088   7.289   1.462   2.122 -0.7140  0.3320  0.7992
 6965TIP3   OH245089   5.301   2.584   1.108 -0.0630 -0.2531 -0.2489
 6965TIP3    H145090   5.254   2.507   1.141 -1.9087  1.6378  1.9045
 6965TIP3    H245091   5.245   2.620   1.039 -0.5462  0.5614  0.5418
 6966TIP3   OH245092   7.491   7.115   0.859 -0.4962  0.2750 -0.0407
 6966TIP3    H145093   7.437   7.191   0.841  0.7112  0.7153 -2.0133
 6966TIP3    H245094   7.477   7.097   0.952  0.4837  3.9472  0.9627
 6967TIP3   OH245095   6.514   1.159   0.903  0.2577  0.5795 -0.3340
 6967TIP3    H145096   6.562   1.136   0.824  0.9431 -1.4441  0.6032
 6967TIP3    H245097   6.521   1.082   0.959 -1.3573  1.4406  1.1651
 6968TIP3   OH245098   1.939   3.813   2.082 -0.1936  0.2489 -0.2289
 6968TIP3    H145099   2.003   3.864   2.130 -0.4896  1.0380 -0.6491
 6968TIP3    H245100   1.914   3.743   2.142 -0.2361  0.9549  0.5999
 6969TIP3   OH245101   1.121   1.103   1.489 -0.2398 -0.2945 -0.5117
 6969TIP3    H145102   1.088   1.063   1.409 -0.3031  0.3870 -0.8342
 6969TIP3    H245103   1.050   1.093   1.552 -0.7358  0.3978 -0.9503
 6970TIP3   OH245104   2.996   3.170   1.323  0.3484  0.0907 -0.1749
 6970TIP3    H145105   2.941   3.243   1.294 -0.9124 -0.5213  0.5903
 6970TIP3    H245106   3.046   3.146   1.244 -0.4603  0.6857 -0.8941
 6971TIP3   OH245107   5.630   0.470   0.616 -0.6193  0.1413  0.3061
 6971TIP3    H145108   5.679   0.492   0.695 -2.4565  0.5674  1.3948
 6971TIP3    H245109   5.552   0.525   0.621 -1.0803 -0.2990 -1.4961
 6972TIP3   OH245110   3.122   7.279   3.423  0.1106  0.3889  0.4459
 6972TIP3    H145111   3.110   7.348   3.488 -0.3308 -0.5078  1.3511
 6972TIP3    H245112   3.047   7.221   3.437  0.2559 -0.0500 -0.5735
 6973TIP3   OH245113   3.379   7.549   1.492 -0.4805 -0.1645 -0.1538
 6973TIP3    H145114   3.376   7.620   1.556  0.2929 -1.2067  1.0826
 6973TIP3    H245115   3.450   7.574   1.432  0.2833 -0.2105  0.6985
 6974TIP3   OH245116   1.914   0.760   2.097  0.3022 -0.0534  0.2930
 6974TIP3    H145117   1.895   0.681   2.147  0.9193 -0.0259  0.5802
 6974TIP3    H245118   1.887   0.739   2.008 -1.1120  0.0077  0.6721
 6975TIP3   OH245119   2.933   0.375   0.431 -0.6670  0.0292  0.0762
 6975TIP3    H145120   3.023   0.401   0.455 -1.2848  1.5852  0.8861
 6975TIP3    H245121   2.940   0.282   0.411  0.7808 -0.3797  2.0694
 6976TIP3   OH245122   7.087   3.576   1.160  0.5854  0.5162 -0.3204
 6976TIP3    H145123   7.151   3.596   1.091  0.9734  0.2427 -0.0450
 6976TIP3    H245124   7.115   3.492   1.195 -1.2830 -0.8039 -1.7739
 6977TIP3   OH245125   4.780   0.394   1.512  0.0836 -0.2744 -0.0893
 6977TIP3    H145126   4.832   0.392   1.432 -2.7426 -3.1720 -2.1147
 6977TIP3    H245127   4.838   0.356   1.579  1.1472 -1.9258 -1.8571
 6978TIP3   OH245128   6.001   2.701   2.460  0.2000 -0.7756 -0.0141
 6978TIP3    H145129   6.052   2.620   2.467  2.9975  0.7807 -0.9227
 6978TIP3    H245130   6.054   2.766   2.506 -1.1145  0.9046 -0.7933
 6979TIP3   OH245131   0.787   7.321   2.965  0.0692 -0.7361 -0.8034
 6979TIP3    H145132   0.807   7.353   3.053  1.2221  3.1544 -2.2523
 6979TIP3    H245133   0.691   7.317   2.962  0.0187 -1.4047  0.7036
 6980TIP3   OH245134   2.859   4.508   1.211  0.7147 -0.9551  0.5447
 6980TIP3    H145135   2.878   4.456   1.289  0.0952 -0.1956  1.2167
 6980TIP3    H245136   2.944   4.542   1.184  1.5985 -4.1785 -1.3438
 6981TIP3   OH245137   2.854   5.670   0.946  0.3433 -0.7029  0.1570
 6981TIP3    H145138   2.862   5.720   0.865 -1.3689  2.1069  1.5890
 6981TIP3    H245139   2.940   5.676   0.987 -0.0890  2.3043  0.8578
 6982TIP3   OH245140   1.206   0.766   1.992  0.3710 -0.1276  0.1572
 6982TIP3    H145141   1.167   0.682   1.970 -0.2982  0.1810  0.1182
 6982TIP3    H245142   1.242   0.798   1.909  1.5729 -0.8399  0.3843
 6983TIP3   OH245143   2.462   0.153   2.933 -0.3541  0.5251  0.4486
 6983TIP3    H145144   2.443   0.232   2.883  1.0271  0.8548  0.4012
 6983TIP3    H245145   2.555   0.160   2.954 -0.4116 -0.6741  1.1831
 6984TIP3   OH245146   2.129   7.192   2.375 -0.1834  0.1942 -0.3150
 6984TIP3    H145147   2.039   7.217   2.395  0.1667  0.7251  0.6731
 6984TIP3    H245148   2.173   7.191   2.460  0.5740 -0.7688 -0.7057
 6985TIP3   OH245149   7.154   0.342   1.049 -0.6719  0.1989 -0.1840
 6985TIP3    H145150   7.222   0.373   1.108  0.0556  1.1694 -1.4783
 6985TIP3    H245151   7.123   0.260   1.088  0.7787  0.0766  0.7616
 6986TIP3   OH245152   0.380   4.274   1.004 -0.5231 -0.0509  0.4076
 6986TIP3    H145153   0.374   4.319   0.920 -0.9404 -1.0020 -0.0979
 6986TIP3    H245154   0.346   4.336   1.068  1.2715  1.2948  0.1317
 6987TIP3   OH245155   1.645   5.780   0.666  0.0013 -0.4118  0.3046
 6987TIP3    H145156   1.672   5.778   0.575  2.3669  0.8956  0.8924
 6987TIP3    H245157   1.716   5.825   0.712 -1.0299 -1.1372  2.8317
 6988TIP3   OH245158   3.157   5.090   0.962  0.0261  0.5937  0.4834
 6988TIP3    H145159   3.193   5.011   1.001  0.0289 -1.1514 -2.7299
 6988TIP3    H245160   3.064   5.088   0.986 -0.1564 -0.9054 -0.2124
 6989TIP3   OH245161   2.310   3.606   1.998 -0.0991 -0.5468  0.1319
 6989TIP3    H145162   2.230   3.606   1.945 -0.0301 -2.1012 -0.0390
 6989TIP3    H245163   2.280   3.621   2.088 -0.2024  2.2834 -0.2904
 6990TIP3   OH245164   4.135   2.692   2.425 -0.4431  0.3989  0.0549
 6990TIP3    H145165   4.169   2.635   2.495  0.0988  0.7913  0.1241
 6990TIP3    H245166   4.105   2.771   2.471 -3.1692 -0.6293  0.2068
 6991TIP3   OH245167   1.756   4.330   2.928  0.1551 -0.1244 -0.0859
 6991TIP3    H145168   1.822   4.281   2.977  0.0970 -0.9062 -0.7733
 6991TIP3    H245169   1.749   4.414   2.974  0.1961 -0.7868  1.1640
 6992TIP3   OH245170   3.233   7.307   1.484 -0.3072 -0.4473  0.2455
 6992TIP3    H145171   3.224   7.283   1.576 -1.1950  0.3048  0.3824
 6992TIP3    H245172   3.271   7.395   1.486 -1.4622  0.0797 -0.0404
 6993TIP3   OH245173   4.923   5.798   1.728  0.1918 -0.3508 -0.4388
 6993TIP3    H145174   4.924   5.720   1.783 -0.6861 -0.2721 -0.2948
 6993TIP3    H245175   4.878   5.864   1.781 -0.0215 -0.0662 -0.9677
 6994TIP3   OH245176   4.736   2.446   2.195  0.2565  0.5817 -0.6985
 6994TIP3    H145177   4.722   2.532   2.235  1.6812 -0.1492  1.5826
 6994TIP3    H245178   4.821   2.418   2.228 -0.1326 -1.6597 -1.4496
 6995TIP3   OH245179   1.667   3.906   2.303  0.3293  0.1785 -0.4979
 6995TIP3    H145180   1.743   3.919   2.360  0.4814 -3.1556  0.3230
 6995TIP3    H245181   1.661   3.986   2.251  2.4541  1.8499  1.6076
 6996TIP3   OH245182   2.931   4.767   1.792  0.2024 -0.5283  0.3711
 6996TIP3    H145183   2.938   4.790   1.699  0.3285 -1.4972  0.1296
 6996TIP3    H245184   3.004   4.707   1.808 -1.4913 -2.7750  0.3197
 6997TIP3   OH245185   5.006   5.193   2.517  0.2121  0.4947  0.5077
 6997TIP3    H145186   5.045   5.234   2.595  1.7149  1.6588 -0.7894
 6997TIP3    H245187   5.079   5.182   2.457 -0.7877 -1.1037 -0.4743
 6998TIP3   OH245188   2.011   3.699   0.928 -0.1468  0.2649  0.2609
 6998TIP3    H145189   1.942   3.753   0.889  0.7061  1.3604  0.2488
 6998TIP3    H245190   2.035   3.637   0.858 -0.1243  0.8072 -0.2154
 6999TIP3   OH245191   2.429   1.578   2.265  0.1078 -0.0578  0.0065
 6999TIP3    H145192   2.476   1.498   2.240  1.3238 -0.1918  2.4365
 6999TIP3    H245193   2.458   1.644   2.202 -0.1957 -1.2889 -1.4695
 7000TIP3   OH245194   1.596   3.828   1.830 -0.1813 -0.3908 -0.3438
 7000TIP3    H145195   1.548   3.845   1.911 -0.5363  2.0010 -0.9655
 7000TIP3    H245196   1.687   3.847   1.851 -0.4504  1.6342 -0.7825
 7001TIP3   OH245197   0.370   4.019   2.381 -0.4369  0.7482  0.7487
 7001TIP3    H145198   0.368   4.022   2.286 -0.8636  0.6698  0.7536
 7001TIP3    H245199   0.424   4.094   2.406  0.4388  0.2402  0.4224
 7002TIP3   OH245200   6.818   6.087   3.644  0.4162  0.0212  0.4308
 7002TIP3    H145201   6.795   6.177   3.670  2.2189  0.8041 -0.4971
 7002TIP3    H245202   6.755   6.066   3.575  0.5576  0.9573 -0.0049
 7003TIP3   OH245203   7.643   1.959   1.138  0.3983 -0.2555  0.2285
 7003TIP3    H145204   7.564   1.977   1.087  1.1702  1.4134 -0.4402
 7003TIP3    H245205   7.611   1.945   1.227 -0.8776 -2.2811 -0.4647
 7004TIP3   OH245206   1.367   4.747   2.485  0.5251 -0.2685  0.1075
 7004TIP3    H145207   1.458   4.725   2.506  1.4660  0.2151 -2.9102
 7004TIP3    H245208   1.361   4.733   2.390 -2.4280  0.2232  0.1370
 7005TIP3   OH245209   6.929   5.064   2.928 -0.0261 -0.0106  0.5429
 7005TIP3    H145210   6.977   5.012   2.991 -0.9178 -0.8405  0.5687
 7005TIP3    H245211   6.952   5.027   2.843 -1.8779 -1.5517  0.6558
 7006TIP3   OH245212   7.656   7.173   2.435  0.2232 -0.0879 -0.3772
 7006TIP3    H145213   7.741   7.172   2.479  0.2814 -0.7997 -0.4858
 7006TIP3    H245214   7.675   7.194   2.344  0.1882  0.5997 -0.2288
 7007TIP3   OH245215   5.603   6.714   0.562 -0.1938 -0.5549 -0.1476
 7007TIP3    H145216   5.584   6.709   0.656 -2.5041  0.7354 -0.4807
 7007TIP3    H245217   5.570   6.631   0.527  0.2953 -0.8629  0.1091
 7008TIP3   OH245218   7.254   0.792   1.070  0.8602  0.0893  0.0279
 7008TIP3    H145219   7.214   0.877   1.087 -0.1134 -0.5598  1.2402
 7008TIP3    H245220   7.310   0.776   1.146  0.5220 -0.6297  0.1368
 7009TIP3   OH245221   3.225   3.294   0.534  0.2310 -0.7994 -0.2038
 7009TIP3    H145222   3.310   3.265   0.502  1.2353 -0.6938  2.1675
 7009TIP3    H245223   3.244   3.338   0.617 -2.1335 -0.8994  0.4695
 7010TIP3   OH245224   2.860   1.638   1.499  0.0012  0.2710 -1.1632
 7010TIP3    H145225   2.923   1.630   1.428  2.3541 -0.7580  0.8779
 7010TIP3    H245226   2.848   1.733   1.509  1.6662  0.5190 -1.2785
 7011TIP3   OH245227   0.406   4.492   3.181 -0.1816 -0.7110  0.1629
 7011TIP3    H145228   0.407   4.564   3.118  0.6917  0.0920  1.0588
 7011TIP3    H245229   0.317   4.493   3.216 -0.3838 -0.5213 -0.3437
 7012TIP3   OH245230   6.960   0.670   0.992 -0.0512 -0.9619 -0.2137
 7012TIP3    H145231   6.962   0.765   0.983  0.8755 -1.1010 -1.8555
 7012TIP3    H245232   6.984   0.654   1.083 -3.1529  0.4431  1.0008
 7013TIP3   OH245233   2.373   1.054   2.972 -0.2195 -0.1175 -0.0715
 7013TIP3    H145234   2.277   1.055   2.976 -0.2564 -0.5616 -0.6714
 7013TIP3    H245235   2.398   0.980   3.028 -0.1834  0.4079  0.6271
 7014TIP3   OH245236   5.880   2.974   0.994 -0.6459  0.5200 -0.2203
 7014TIP3    H145237   5.813   2.973   1.062 -1.8005  1.5015 -1.3162
 7014TIP3    H245238   5.843   2.923   0.922  1.3318 -2.1882  0.5030
 7015TIP3   OH245239   1.852   1.009   2.579 -0.2328 -0.0355 -0.1201
 7015TIP3    H145240   1.772   1.030   2.626  0.2237  1.1090  0.1804
 7015TIP3    H245241   1.823   0.958   2.503 -0.9106 -2.7596  1.8087
 7016TIP3   OH245242   4.786   7.110   2.736 -0.3533  0.2545  0.3954
 7016TIP3    H145243   4.823   7.185   2.782  0.3545  0.2477 -0.1405
 7016TIP3    H245244   4.776   7.043   2.803 -0.2773  0.5799  0.7323
 7017TIP3   OH245245   1.386   5.138   1.166 -0.0570 -0.3900  0.3692
 7017TIP3    H145246   1.362   5.217   1.215 -0.7027  0.8602 -1.8404
 7017TIP3    H245247   1.452   5.095   1.221 -0.4634  1.1057  2.1256
 7018TIP3   OH245248   7.513   4.332   1.056  0.4831  0.1505 -0.5105
 7018TIP3    H145249   7.524   4.427   1.050 -0.4370  0.2192 -1.3978
 7018TIP3    H245250   7.599   4.299   1.083  0.5897  1.2970  0.6528
 7019TIP3   OH245251   0.929   2.240   1.047  0.4083  0.3528 -0.1888
 7019TIP3    H145252   1.016   2.280   1.056  0.0782  0.8432  0.9401
 7019TIP3    H245253   0.876   2.283   1.114 -0.7864  0.2626 -1.0507
 7020TIP3   OH245254   0.378   2.053   2.629  0.2392 -0.7935  0.5806
 7020TIP3    H145255   0.400   2.073   2.720 -0.0114  1.8288  0.1377
 7020TIP3    H245256   0.462   2.053   2.584  0.2295 -0.6186  0.5623
 7021TIP3   OH245257   7.449   1.596   1.094 -0.0301  0.3748 -0.0711
 7021TIP3    H145258   7.440   1.529   1.161 -1.2777  2.6387  2.2115
 7021TIP3    H245259   7.525   1.648   1.121 -0.6721  1.4494 -0.2833
 7022TIP3   OH245260   1.078   3.729   2.390  0.1106 -0.3653 -0.3829
 7022TIP3    H145261   1.111   3.759   2.474  0.5858 -0.6993 -0.4495
 7022TIP3    H245262   1.098   3.801   2.329 -0.0808 -0.1970 -0.2485
 7023TIP3   OH245263   3.252   3.858   2.472 -0.2119 -0.3043 -0.2187
 7023TIP3    H145264   3.245   3.929   2.408 -2.2314  0.0530  0.3185
 7023TIP3    H245265   3.228   3.779   2.423 -0.1475 -0.2783 -0.2925
 7024TIP3   OH245266   2.984   6.915   0.766 -0.5419 -0.2812 -0.2166
 7024TIP3    H145267   3.017   6.957   0.686 -3.0156 -0.0687 -1.2194
 7024TIP3    H245268   2.899   6.956   0.781 -0.3434 -0.6603  2.3105
 7025TIP3   OH245269   2.559   5.294   2.071 -0.3563 -0.1146 -0.4242
 7025TIP3    H145270   2.617   5.233   2.026  1.4165  0.0493  1.4859
 7025TIP3    H245271   2.588   5.381   2.041  0.5130 -0.0268  0.6204
 7026TIP3   OH245272   1.881   0.666   1.156 -0.2334  0.0940  0.0277
 7026TIP3    H145273   1.914   0.603   1.220 -1.0691 -0.8438 -0.4340
 7026TIP3    H245274   1.914   0.751   1.187  2.9032 -0.7500 -0.5978
 7027TIP3   OH245275   5.733   5.694   0.560 -0.5563  0.3349  0.6676
 7027TIP3    H145276   5.754   5.780   0.525  0.7611  0.0284  0.6690
 7027TIP3    H245277   5.637   5.692   0.562 -0.6792  0.8704 -1.6704
 7028TIP3   OH245278   6.587   2.378   0.858 -0.0118 -0.1533  0.4221
 7028TIP3    H145279   6.669   2.352   0.816 -0.3747  1.5184 -1.4870
 7028TIP3    H245280   6.597   2.472   0.873 -0.6861 -0.3461  2.3716
 7029TIP3   OH245281   4.747   7.079   1.847 -0.5322  0.5690 -0.1057
 7029TIP3    H145282   4.750   7.002   1.791  3.5149  0.1511  0.3690
 7029TIP3    H245283   4.680   7.060   1.912 -1.4420 -1.3600 -1.5341
 7030TIP3   OH245284   3.229   6.937   2.503 -0.3530  0.1038  0.0428
 7030TIP3    H145285   3.262   6.923   2.592 -1.9911 -1.4800  0.4553
 7030TIP3    H245286   3.307   6.931   2.447  0.5059 -0.3287  1.2426
 7031TIP3   OH245287   1.924   7.168   3.160  0.1913  0.2312 -0.2319
 7031TIP3    H145288   1.835   7.193   3.185  0.3872  0.3370  0.3674
 7031TIP3    H245289   1.969   7.152   3.243  1.3077  2.1257 -0.4017
 7032TIP3   OH245290   5.553   0.772   2.354  0.1392 -0.3696 -0.8697
 7032TIP3    H145291   5.480   0.711   2.367  0.2849 -0.5242 -0.7638
 7032TIP3    H245292   5.594   0.778   2.440 -0.9883  1.3341 -0.3984
 7033TIP3   OH245293   0.663   1.029   1.008 -0.2420 -0.1257 -0.0457
 7033TIP3    H145294   0.646   1.059   1.098 -2.2632 -4.3327  1.2501
 7033TIP3    H245295   0.579   0.995   0.978  0.4395  0.8918 -3.5731
 7034TIP3   OH245296   0.018   4.280   1.971  0.7321  0.6211 -0.0234
 7034TIP3    H145297  -0.038   4.352   1.940  1.4924  1.1125 -0.2739
 7034TIP3    H245298   0.040   4.304   2.061  0.6025  0.4690  0.0483
 7035TIP3   OH245299   1.609   2.872   2.382 -0.1946 -0.8190 -0.1293
 7035TIP3    H145300   1.609   2.855   2.477  1.0846  0.5237  0.1483
 7035TIP3    H245301   1.546   2.943   2.371  0.5374 -0.1594 -0.1056
 7036TIP3   OH245302   3.320   2.672   1.445  0.2389  0.3975  0.2019
 7036TIP3    H145303   3.242   2.631   1.483  0.1694  1.6277  1.4585
 7036TIP3    H245304   3.286   2.737   1.384  0.2016  1.8118  1.6690
 7037TIP3   OH245305   6.389   5.490   1.957  0.9946 -0.4117 -0.6120
 7037TIP3    H145306   6.435   5.573   1.942  3.0709 -1.2593  0.6621
 7037TIP3    H245307   6.453   5.423   1.933  0.0675 -1.6615  0.2997
 7038TIP3   OH245308   7.535   3.861   8.971  0.7057  0.1954  0.1809
 7038TIP3    H145309   7.547   3.766   8.969 -2.7212 -0.5187  3.1441
 7038TIP3    H245310   7.478   3.880   8.896  1.8807  0.0855 -0.7724
 7039TIP3   OH245311   6.136   5.414   3.478  0.1355  0.3396  0.3735
 7039TIP3    H145312   6.118   5.470   3.553 -1.4563  1.9677 -1.1167
 7039TIP3    H245313   6.052   5.372   3.459  1.0708 -1.9066  0.8704
 7040TIP3   OH245314   1.284   1.318   2.623  0.0969  0.0118  0.5521
 7040TIP3    H145315   1.262   1.403   2.584 -0.0189  0.2280  1.0813
 7040TIP3    H245316   1.252   1.254   2.560 -1.7058  0.3223  1.0941
 7041TIP3   OH245317   7.573   3.727   1.393 -0.4457 -0.3523 -0.0090
 7041TIP3    H145318   7.580   3.640   1.431 -1.2335 -0.3540  0.1576
 7041TIP3    H245319   7.577   3.786   1.468 -0.7278 -0.2916 -0.0385
 7042TIP3   OH245320   4.566   5.624   1.937 -0.7520 -0.6290  0.6164
 7042TIP3    H145321   4.534   5.664   2.017 -2.9107 -1.0880  0.0513
 7042TIP3    H245322   4.547   5.531   1.947  1.0280 -1.0463  0.4760
 7043TIP3   OH245323   1.103   0.068   1.101  0.3841 -0.3079 -0.8834
 7043TIP3    H145324   1.016   0.107   1.095 -0.6946 -2.3502  0.4845
 7043TIP3    H245325   1.147   0.118   1.170 -0.8331 -1.1448  0.5666
 7044TIP3   OH245326   2.095   2.654   2.560  0.4660 -0.3339 -0.1499
 7044TIP3    H145327   2.007   2.691   2.555 -0.5459 -2.4832  0.5714
 7044TIP3    H245328   2.085   2.564   2.529  1.7711 -1.5775  2.6870
 7045TIP3   OH245329   7.356   2.328   2.501  0.0457  0.4594  0.0841
 7045TIP3    H145330   7.426   2.300   2.559 -1.2565 -2.2040  0.5688
 7045TIP3    H245331   7.280   2.340   2.558 -1.1699 -1.8873 -0.8609
 7046TIP3   OH245332   3.638   3.592   2.768 -0.6095  0.8258  0.0382
 7046TIP3    H145333   3.725   3.576   2.732 -0.7719  0.8422 -0.3681
 7046TIP3    H245334   3.580   3.537   2.716 -0.5077 -1.6347  2.2983
 7047TIP3   OH245335   5.880   3.764   2.878 -0.6833 -0.0852 -0.0077
 7047TIP3    H145336   5.890   3.673   2.905 -1.3488 -0.1823 -0.0934
 7047TIP3    H245337   5.815   3.800   2.938  1.7018  1.1705  2.0200
 7048TIP3   OH245338   7.555   1.346   0.604  0.6596  0.4386 -0.4252
 7048TIP3    H145339   7.506   1.426   0.623  0.9954  0.7363 -0.7765
 7048TIP3    H245340   7.532   1.285   0.674 -0.7922  0.3093 -0.9867
 7049TIP3   OH245341   6.200   7.251   1.071  0.4792 -0.2154 -0.6002
 7049TIP3    H145342   6.139   7.318   1.101 -2.1090 -2.6658  0.0125
 7049TIP3    H245343   6.279   7.265   1.123 -0.2363  1.8403  0.0246
 7050TIP3   OH245344   2.622   0.432   2.130 -0.3361 -0.1742 -0.1412
 7050TIP3    H145345   2.566   0.407   2.056  0.6971  2.0007 -1.7651
 7050TIP3    H245346   2.705   0.388   2.112 -0.1602  0.1667 -0.1765
 7051TIP3   OH245347   7.241   4.096   2.397  0.3411 -0.1476 -0.0259
 7051TIP3    H145348   7.180   4.093   2.471 -0.9973  0.2580 -1.0579
 7051TIP3    H245349   7.321   4.056   2.430  0.2621  1.2569  2.0596
 7052TIP3   OH245350   6.728   4.559   3.202  0.5102  0.3502  0.0129
 7052TIP3    H145351   6.800   4.504   3.173 -0.0370  1.3177 -3.6526
 7052TIP3    H245352   6.659   4.497   3.228  1.0740 -0.6493 -0.8307
 7053TIP3   OH245353   6.554   6.412   1.383  0.4701  0.2871  0.4303
 7053TIP3    H145354   6.527   6.503   1.376 -0.0506  0.2109  1.3505
 7053TIP3    H245355   6.491   6.364   1.329  0.3544  0.3998  0.4663
 7054TIP3   OH245356   5.904   0.801   1.460 -0.2457 -0.7330  0.0821
 7054TIP3    H145357   5.911   0.768   1.370 -0.3641  0.8437 -0.5479
 7054TIP3    H245358   5.845   0.876   1.453  0.2516 -0.1919  1.3688
 7055TIP3   OH245359   2.173   7.309   0.784  0.2575 -0.5009 -0.2056
 7055TIP3    H145360   2.193   7.219   0.756  0.2291 -1.9199  3.7390
 7055TIP3    H245361   2.080   7.321   0.764 -0.4032 -2.3822  1.4668
 7056TIP3   OH245362   4.408   7.324   0.886  0.2249  0.2232  0.0279
 7056TIP3    H145363   4.419   7.399   0.828 -0.2056  0.0771 -0.2485
 7056TIP3    H245364   4.313   7.311   0.891  0.3062 -0.5232 -0.2198
 7057TIP3   OH245365   2.448   3.618   3.604  0.5702 -0.9365  0.3723
 7057TIP3    H145366   2.484   3.669   3.532  0.2428 -1.3224 -0.0736
 7057TIP3    H245367   2.438   3.530   3.569 -0.7817 -0.8487  0.4779
 7058TIP3   OH245368   4.451   2.149   2.926  0.1107 -0.1531 -0.0688
 7058TIP3    H145369   4.492   2.063   2.937  0.1122 -0.0213  1.1206
 7058TIP3    H245370   4.357   2.131   2.932  0.1057 -0.0900  0.0424
 7059TIP3   OH245371   3.520   3.129   1.129 -0.3781  0.0289  0.1926
 7059TIP3    H145372   3.575   3.094   1.059 -0.9108  1.6291 -1.0727
 7059TIP3    H245373   3.431   3.107   1.103 -0.6644  1.6406 -0.2637
 7060TIP3   OH245374   4.929   7.667   2.254 -0.0170  0.2624 -0.0721
 7060TIP3    H145375   4.982   7.621   2.317  1.3762  0.3933 -1.0998
 7060TIP3    H245376   4.861   7.605   2.228  0.9028 -0.6720 -0.2866
 7061TIP3   OH245377   4.777   4.260   1.936 -0.0558 -0.4785 -0.0374
 7061TIP3    H145378   4.858   4.260   1.986  1.0726 -2.2792 -1.6992
 7061TIP3    H245379   4.803   4.289   1.848 -1.7742  1.6645  0.0894
 7062TIP3   OH245380   0.738   3.077   0.935 -0.5372 -0.4289  0.0014
 7062TIP3    H145381   0.650   3.042   0.920 -0.2756 -0.3350 -1.9577
 7062TIP3    H245382   0.777   3.084   0.848  0.7865  1.2165  0.6615
 7063TIP3   OH245383   0.383   4.845   3.735  0.5227  0.3741 -0.3340
 7063TIP3    H145384   0.388   4.863   3.828 -2.3198  1.9690 -0.4069
 7063TIP3    H245385   0.464   4.881   3.699  1.1599  0.6880  1.3529
 7064TIP3   OH245386   2.333   4.478   0.653  0.8271  0.4227  0.4487
 7064TIP3    H145387   2.314   4.500   0.562  0.0874 -1.2146  0.1617
 7064TIP3    H245388   2.248   4.481   0.696  0.7133 -1.4872  0.4337
 7065TIP3   OH245389   2.446   7.489   1.432 -0.0518  0.6399 -0.0411
 7065TIP3    H145390   2.471   7.458   1.345  0.2161  0.8296 -0.0344
 7065TIP3    H245391   2.368   7.439   1.455  0.1242  0.2900 -0.2144
 7066TIP3   OH245392   5.447   3.652   0.952 -0.0531  0.6620  0.3277
 7066TIP3    H145393   5.535   3.689   0.948 -0.2851  1.2145  0.3226
 7066TIP3    H245394   5.448   3.582   0.886  0.6332  0.1121  0.8995
 7067TIP3   OH245395   1.620   0.885   0.818 -0.5869 -0.1368  0.0905
 7067TIP3    H145396   1.613   0.934   0.736 -1.1132 -0.7658 -0.2567
 7067TIP3    H245397   1.669   0.942   0.877  0.6096 -0.0560 -0.9558
 7068TIP3   OH245398   5.338   0.472   2.713 -0.0032  0.0522  0.1345
 7068TIP3    H145399   5.261   0.499   2.662 -0.5848 -0.6177  0.6357
 7068TIP3    H245400   5.306   0.463   2.803  0.7124 -0.0424  0.3906
 7069TIP3   OH245401   5.378   2.113   1.145 -0.1792 -0.1926 -0.1857
 7069TIP3    H145402   5.351   2.144   1.059  0.5881  0.4535 -0.2151
 7069TIP3    H245403   5.299   2.075   1.183 -0.6460 -0.0448 -0.9795
 7070TIP3   OH245404   3.082   1.139   2.077 -0.0040  0.0712  0.1719
 7070TIP3    H145405   3.048   1.105   1.994 -1.1980  2.9555 -0.6566
 7070TIP3    H245406   3.004   1.153   2.131  0.4890  0.8407  0.7095
 7071TIP3   OH245407   0.978   2.822   1.429  0.2272 -0.1115 -0.0346
 7071TIP3    H145408   0.954   2.757   1.363  2.6424 -0.1707 -0.9419
 7071TIP3    H245409   1.050   2.782   1.478  0.5670  1.1678  0.5669
 7072TIP3   OH245410   3.979   4.257   1.915 -0.3827  0.5614  0.1377
 7072TIP3    H145411   3.995   4.334   1.860  1.0694 -0.0875 -0.4004
 7072TIP3    H245412   4.018   4.280   2.000 -0.3267  0.5835  0.1063
 7073TIP3   OH245413   4.231   6.651   1.778 -0.1289 -0.4765  0.1537
 7073TIP3    H145414   4.143   6.682   1.758 -0.4003 -1.7247 -0.7379
 7073TIP3    H245415   4.219   6.560   1.806  0.8848 -0.8010 -0.3857
 7074TIP3   OH245416   5.888   0.154   2.109 -0.1680  0.7313 -0.2428
 7074TIP3    H145417   5.852   0.140   2.022 -1.3394  0.0307  0.3285
 7074TIP3    H245418   5.816   0.192   2.159  0.5543  1.3255  0.3657
 7075TIP3   OH245419   3.667   0.227   1.792 -0.3415 -0.0077  0.0704
 7075TIP3    H145420   3.597   0.229   1.727  0.9272 -0.3442 -1.3747
 7075TIP3    H245421   3.654   0.145   1.839 -1.3597  0.3038  0.3557
 7076TIP3   OH245422   2.129   3.765   1.435  0.1557  0.2926  0.3403
 7076TIP3    H145423   2.069   3.779   1.508  0.2229  1.6009  0.1675
 7076TIP3    H245424   2.160   3.853   1.413  1.2881 -0.2535 -0.2866
 7077TIP3   OH245425   4.201   4.951   3.164 -0.4757 -0.4826 -0.9877
 7077TIP3    H145426   4.210   4.859   3.142  2.6572 -0.7996  1.1262
 7077TIP3    H245427   4.267   4.995   3.111  0.4544  0.0273  0.5393
 7078TIP3   OH245428   4.187   6.051   2.277  0.3258  0.3353 -0.4269
 7078TIP3    H145429   4.194   6.079   2.186 -1.5808 -0.4563 -0.8581
 7078TIP3    H245430   4.094   6.060   2.298  0.7050  0.3283  1.3985
 7079TIP3   OH245431   0.159   5.953   2.122 -0.3378  0.1447 -0.2255
 7079TIP3    H145432   0.134   6.006   2.046  3.2731 -1.5523 -2.9074
 7079TIP3    H245433   0.229   6.004   2.165  1.5393 -1.2647 -1.4686
 7080TIP3   OH245434   7.031   2.448   2.514  0.2210  0.0819 -0.2554
 7080TIP3    H145435   7.119   2.473   2.485  0.0483  0.4268 -0.4854
 7080TIP3    H245436   7.046   2.386   2.585  0.6915 -2.0597 -2.0795
 7081TIP3   OH245437   4.928   3.774   1.347  0.6431  0.0355  0.3990
 7081TIP3    H145438   4.896   3.795   1.435  1.3650  0.8138  0.4826
 7081TIP3    H245439   4.917   3.855   1.298  3.0626  0.5587  0.6015
 7082TIP3   OH245440   6.188   6.659   1.613 -0.4713  0.3241  0.0687
 7082TIP3    H145441   6.201   6.752   1.598 -1.0055  0.4698  0.4822
 7082TIP3    H245442   6.237   6.616   1.542  1.8811  0.8358  1.2807
 7083TIP3   OH245443   0.751   3.705   1.279 -0.0715  0.0943  0.3019
 7083TIP3    H145444   0.676   3.659   1.241 -1.1173  1.0745  1.1188
 7083TIP3    H245445   0.827   3.667   1.235 -1.0849 -0.3865 -1.1020
 7084TIP3   OH245446   2.096   4.963   2.071  0.0171  0.5378 -0.4356
 7084TIP3    H145447   2.003   4.958   2.051 -0.1322 -0.2390  0.3791
 7084TIP3    H245448   2.120   4.874   2.097  0.6956  0.9972  0.5733
 7085TIP3   OH245449   5.388   0.347   3.026  0.6000  0.1904 -0.0178
 7085TIP3    H145450   5.472   0.302   3.018  0.7495 -0.0328  2.1669
 7085TIP3    H245451   5.406   0.419   3.087 -1.1976 -1.1201  2.2193
 7086TIP3   OH245452   7.015   3.985   1.306  0.8329 -0.0132  0.0957
 7086TIP3    H145453   6.964   3.940   1.373  1.6964 -1.7739 -0.3552
 7086TIP3    H245454   7.102   3.994   1.344  1.6963 -2.2126 -1.1819
 7087TIP3   OH245455   4.851   7.170   1.499  0.0183 -0.2337  0.5121
 7087TIP3    H145456   4.760   7.200   1.500 -0.6566 -2.1401  0.7851
 7087TIP3    H245457   4.880   7.184   1.409 -0.9861 -0.7571  0.0815
 7088TIP3   OH245458   2.637   4.242   0.553 -0.4397 -0.5205  0.0732
 7088TIP3    H145459   2.605   4.152   0.555 -1.3879 -0.1928  2.0503
 7088TIP3    H245460   2.564   4.294   0.585  0.1574  0.9679 -0.8455
 7089TIP3   OH245461   2.465   0.823   3.109  0.2639  0.1522  0.0745
 7089TIP3    H145462   2.555   0.848   3.126  0.6482 -0.3964 -1.0332
 7089TIP3    H245463   2.471   0.733   3.074 -0.4135  1.0310 -2.5665
 7090TIP3   OH245464   3.273   3.425   0.804  0.1006 -0.5451 -0.2832
 7090TIP3    H145465   3.365   3.400   0.815  0.4286  0.0554 -1.4985
 7090TIP3    H245466   3.266   3.510   0.849  0.5228  0.1238 -1.4430
 7091TIP3   OH245467   1.284   1.392   0.734  0.2982  0.4756 -0.1443
 7091TIP3    H145468   1.251   1.446   0.805 -1.2854  1.9244 -1.8590
 7091TIP3    H245469   1.327   1.454   0.675 -1.8461  0.0526 -2.3285
 7092TIP3   OH245470   3.917   6.101   2.354 -0.0597  0.2846  0.3644
 7092TIP3    H145471   3.872   6.181   2.329  0.8619  0.5061 -0.6762
 7092TIP3    H245472   3.854   6.053   2.408 -2.3210 -0.3428 -2.6221
 7093TIP3   OH245473   0.643   5.694   0.798 -0.6158  0.0755 -0.0050
 7093TIP3    H145474   0.557   5.679   0.758  0.1928 -1.1854 -1.3705
 7093TIP3    H245475   0.663   5.613   0.844  0.5031 -0.2623 -1.0265
 7094TIP3   OH245476   4.425   3.977   1.018 -0.3328  0.1394  0.4257
 7094TIP3    H145477   4.400   3.906   1.078 -1.2236 -0.3774 -0.5226
 7094TIP3    H245478   4.351   4.038   1.022  0.4672  1.0703  1.2984
 7095TIP3   OH245479   2.716   3.302   2.638 -0.0194  0.4580  0.4344
 7095TIP3    H145480   2.714   3.287   2.732  1.5646  0.1610  0.4452
 7095TIP3    H245481   2.653   3.239   2.603 -2.9266  2.5483  1.4449
 7096TIP3   OH245482   2.125   4.738   0.463 -0.1432 -0.1639 -0.2943
 7096TIP3    H145483   2.106   4.645   0.454  1.7699 -0.8178  1.5989
 7096TIP3    H245484   2.156   4.748   0.553  2.1630  1.8018 -1.1753
 7097TIP3   OH245485   4.334   0.988   2.640  0.3588 -0.2359 -0.1268
 7097TIP3    H145486   4.412   1.003   2.694  0.5220  1.0018 -0.6657
 7097TIP3    H245487   4.348   0.902   2.601  1.1723 -0.2928  0.2677
 7098TIP3   OH245488   3.862   6.692   0.919  0.4684 -0.1012 -0.6736
 7098TIP3    H145489   3.832   6.734   1.000 -0.8554 -1.7187 -0.2709
 7098TIP3    H245490   3.882   6.602   0.945  0.5099 -0.5117 -2.0525
 7099TIP3   OH245491   7.666   1.649   2.147 -0.2813 -0.1370 -0.1198
 7099TIP3    H145492   7.758   1.634   2.167 -0.6870 -1.1273  1.2002
 7099TIP3    H245493   7.655   1.618   2.057  0.5489 -0.5288 -0.0951
 7100TIP3   OH245494   0.759   2.809   2.970  0.4037 -0.4555  0.2194
 7100TIP3    H145495   0.765   2.903   2.986  1.2033 -0.3148 -0.8093
 7100TIP3    H245496   0.666   2.792   2.956  0.2840  0.2088  0.2027
 7101TIP3   OH245497   1.032   3.874   2.951  0.4046 -0.3124  0.6497
 7101TIP3    H145498   1.095   3.926   3.001  2.5155 -1.4046 -0.7303
 7101TIP3    H245499   0.981   3.938   2.902  1.2112  0.5671  0.9371
 7102TIP3   OH245500   6.682   4.960   1.360 -0.1617 -0.5676 -0.5182
 7102TIP3    H145501   6.691   4.867   1.336  2.3633 -0.5308  0.0770
 7102TIP3    H245502   6.768   4.998   1.342 -0.8310  1.4369  0.2738
 7103TIP3   OH245503   7.005   5.836   0.773 -0.2423  0.3032  0.4262
 7103TIP3    H145504   7.057   5.794   0.704  0.5527  1.7012  0.1462
 7103TIP3    H245505   6.981   5.921   0.737  1.0556  1.5104  2.1935
 7104TIP3   OH245506   4.642   6.275   1.237  0.3536 -0.3051  0.1994
 7104TIP3    H145507   4.605   6.191   1.266  0.1009 -0.3528 -0.2572
 7104TIP3    H245508   4.704   6.299   1.306 -1.0360  0.1232  1.3291
 7105TIP3   OH245509   0.633   4.520   2.143  0.8805 -0.0689  0.2352
 7105TIP3    H145510   0.627   4.530   2.238  0.2981 -0.5834  0.2580
 7105TIP3    H245511   0.633   4.610   2.110  1.9815  0.1500  0.7570
 7106TIP3   OH245512   0.621   3.097   2.094  0.4718  0.0666  0.5711
 7106TIP3    H145513   0.539   3.055   2.122  0.4323  0.7434  1.5253
 7106TIP3    H245514   0.670   3.110   2.175  0.7393  1.3156  0.2282
 7107TIP3   OH245515   6.293   4.224   3.392 -0.0079  0.0656  0.5284
 7107TIP3    H145516   6.303   4.301   3.448 -0.6680  0.3347  0.2909
 7107TIP3    H245517   6.212   4.183   3.421 -0.1538 -0.0085  0.0349
 7108TIP3   OH245518   6.407   2.943   2.576 -0.3426 -0.2690 -0.5074
 7108TIP3    H145519   6.412   2.986   2.661  1.4663 -1.0407 -0.1738
 7108TIP3    H245520   6.456   3.000   2.517  0.7562 -1.0606 -0.3961
 7109TIP3   OH245521   2.641   0.519   1.661 -0.6641  0.1356 -0.3987
 7109TIP3    H145522   2.659   0.429   1.636  1.7507  0.6774 -0.8422
 7109TIP3    H245523   2.560   0.541   1.614 -0.5808 -1.3887 -1.3101
 7110TIP3   OH245524   0.970   7.296   0.520 -0.0535 -0.4714  0.0518
 7110TIP3    H145525   0.934   7.275   0.606 -1.4735 -1.4754 -0.7386
 7110TIP3    H245526   0.896   7.286   0.460  0.8924  0.2357 -1.2869
 7111TIP3   OH245527   2.400   5.455   0.639  0.0420  0.7498  0.0803
 7111TIP3    H145528   2.473   5.437   0.698  0.4662 -1.2855 -0.9468
 7111TIP3    H245529   2.439   5.456   0.552 -0.8645  1.7355 -0.3386
 7112TIP3   OH245530   0.187   0.253   2.318  0.1694  0.2387  0.4231
 7112TIP3    H145531   0.150   0.322   2.263 -1.2157 -1.2376 -0.6218
 7112TIP3    H245532   0.248   0.298   2.376  1.7627  1.9245 -2.3137
 7113TIP3   OH245533   6.186   1.866   1.912 -0.0702 -0.1467  0.5831
 7113TIP3    H145534   6.154   1.802   1.976 -0.4938  0.2526  0.7761
 7113TIP3    H245535   6.264   1.903   1.952 -0.1866 -0.0857  0.7534
 7114TIP3   OH245536   3.508   4.245   1.294 -0.4566 -0.0336  0.6963
 7114TIP3    H145537   3.514   4.258   1.388 -1.9457 -0.1366  0.8410
 7114TIP3    H245538   3.434   4.300   1.267 -0.2012 -0.1813 -0.3740
 7115TIP3   OH245539   6.192   4.448   0.770 -0.1216 -0.6531 -0.9330
 7115TIP3    H145540   6.223   4.458   0.860 -0.5833 -0.8565 -0.7473
 7115TIP3    H245541   6.136   4.524   0.755  0.4404 -0.3024 -1.2559
 7116TIP3   OH245542   0.481   0.854   0.550  0.1800 -0.1827  0.1862
 7116TIP3    H145543   0.412   0.828   0.611 -0.9478 -0.1374 -1.0487
 7116TIP3    H245544   0.521   0.772   0.522 -0.2470 -0.2933 -0.1009
 7117TIP3   OH245545   3.156   1.451   2.283 -0.1944  0.4175  0.2836
 7117TIP3    H145546   3.144   1.517   2.351  1.1773  0.9088  0.0938
 7117TIP3    H245547   3.089   1.471   2.218 -1.2275  0.2173  1.2653
 7118TIP3   OH245548   4.423   3.907   1.478 -0.3390 -0.8799  0.1114
 7118TIP3    H145549   4.392   3.818   1.458 -0.5951 -0.7202 -0.2196
 7118TIP3    H245550   4.370   3.963   1.422 -0.4993 -0.4787  0.6677
 7119TIP3   OH245551   4.198   4.022   1.702 -0.0190 -0.1780  0.1702
 7119TIP3    H145552   4.235   4.109   1.689 -0.2472  0.1140  1.3631
 7119TIP3    H245553   4.188   4.014   1.797  1.9778 -2.3058  0.3095
 7120TIP3   OH245554   3.426   3.200   1.845  0.4720  0.1496 -0.4553
 7120TIP3    H145555   3.452   3.232   1.758  0.7608  0.4026 -0.2754
 7120TIP3    H245556   3.497   3.141   1.871  0.3707  0.0501 -0.4027
 7121TIP3   OH245557   4.085   7.596   0.615  0.2112  0.2853  0.5176
 7121TIP3    H145558   4.035   7.650   0.676 -0.9603  1.9705 -1.7861
 7121TIP3    H245559   4.160   7.650   0.591  0.7226 -0.3981  0.5482
 7122TIP3   OH245560   4.702   5.224   1.452 -0.4894  0.5014  0.3962
 7122TIP3    H145561   4.617   5.206   1.411  0.9853  0.3803 -2.9750
 7122TIP3    H245562   4.715   5.151   1.513 -2.3891  0.0650  0.3559
 7123TIP3   OH245563   0.556   2.898   1.147  1.0380 -0.2126 -0.2064
 7123TIP3    H145564   0.509   2.848   1.213  1.2913 -0.0150  0.1251
 7123TIP3    H245565   0.584   2.833   1.083  0.6909 -0.3882 -0.1846
 7124TIP3   OH245566   2.007   7.040   0.705 -0.1245 -0.5021 -0.3834
 7124TIP3    H145567   1.979   7.063   0.793 -0.2157  0.1737 -0.5806
 7124TIP3    H245568   2.102   7.055   0.705  0.1376 -1.9824  0.0381
 7125TIP3   OH245569   5.926   2.106   1.969  0.3521 -0.5108  0.3552
 7125TIP3    H145570   5.927   2.086   2.063  0.9591 -0.2366  0.4139
 7125TIP3    H245571   6.017   2.129   1.949 -0.2030  1.7519  0.1923
 7126TIP3   OH245572   4.464   1.961   1.176 -0.3671  0.2788 -0.1405
 7126TIP3    H145573   4.374   1.978   1.150 -1.2488 -1.4753  1.5149
 7126TIP3    H245574   4.468   1.866   1.188  1.5396  0.3868  0.3917
 7127TIP3   OH245575   0.103   0.680   1.099  0.7688  0.2456 -0.1756
 7127TIP3    H145576   0.087   0.689   1.005 -0.8108 -0.2971 -0.0002
 7127TIP3    H245577   0.179   0.622   1.106  0.8329  0.2132 -1.1198
 7128TIP3   OH245578   2.955   6.631   1.520 -0.5658 -0.0090  0.1895
 7128TIP3    H145579   2.868   6.641   1.558 -0.8533 -2.1673  0.2411
 7128TIP3    H245580   2.947   6.554   1.464  1.4634 -0.6661  0.7260
 7129TIP3   OH245581   2.031   3.186   2.898 -0.1316 -0.1085 -0.4124
 7129TIP3    H145582   2.094   3.224   2.836  1.6441 -2.6850 -0.3565
 7129TIP3    H245583   2.071   3.199   2.984 -0.8670  0.3294 -0.1297
 7130TIP3   OH245584   6.203   4.947   1.700 -0.5831  0.4243 -0.2431
 7130TIP3    H145585   6.152   4.866   1.695 -0.1129  0.0979  0.1277
 7130TIP3    H245586   6.137   5.016   1.704 -0.9946  0.0410 -0.2440
 7131TIP3   OH245587   0.292   0.093   3.071 -0.5159 -0.6970 -0.3791
 7131TIP3    H145588   0.380   0.127   3.054 -0.4081 -1.3255 -1.1077
 7131TIP3    H245589   0.245   0.167   3.110 -0.6074  0.6872 -2.9140
 7132TIP3   OH245590   4.658   4.666   2.208 -0.2324  0.0074  0.5708
 7132TIP3    H145591   4.625   4.640   2.294 -1.5187 -0.8527 -0.1457
 7132TIP3    H245592   4.651   4.587   2.155 -0.7484  0.8673 -0.6965
 7133TIP3   OH245593   4.296   6.435   2.049 -0.3506  0.2252  0.1022
 7133TIP3    H145594   4.310   6.427   1.954  0.6654 -0.5422  0.3084
 7133TIP3    H245595   4.382   6.423   2.087 -1.0019 -1.2003  1.2254
 7134TIP3   OH245596   2.761   4.784   1.189  0.3243  0.3519 -0.2765
 7134TIP3    H145597   2.810   4.707   1.158  0.5977  0.1692  0.5986
 7134TIP3    H245598   2.678   4.748   1.220 -0.6261  0.7122 -2.2109
 7135TIP3   OH245599   0.337   3.032   1.068  0.0829 -0.3015 -0.2223
 7135TIP3    H145600   0.412   2.974   1.059  0.3212  0.0813 -0.7145
 7135TIP3    H245601   0.315   3.028   1.161 -0.6635 -2.1100 -0.4368
 7136TIP3   OH245602   0.519   2.385   2.427 -0.3197  0.0833  0.1898
 7136TIP3    H145603   0.497   2.355   2.339  0.1334 -1.6676  0.6359
 7136TIP3    H245604   0.585   2.453   2.412  1.4896 -1.7619 -0.8143
 7137TIP3   OH245605   3.900   5.960   3.004 -0.4671  0.4685  0.8304
 7137TIP3    H145606   3.852   6.014   2.941  1.0435  1.5505  0.5474
 7137TIP3    H245607   3.991   5.965   2.975 -0.0257 -0.6900  1.9357
 7138TIP3   OH245608   7.003   2.227   1.630 -0.3852 -0.0149  0.2231
 7138TIP3    H145609   7.008   2.187   1.717 -0.9143 -1.9355 -0.5864
 7138TIP3    H245610   7.077   2.190   1.582  0.2013  1.4122 -0.0321
 7139TIP3   OH245611   5.921   6.976   1.640 -0.1598 -0.5123 -0.3084
 7139TIP3    H145612   5.914   6.916   1.565 -0.9653  0.2356 -0.8560
 7139TIP3    H245613   5.845   6.956   1.694 -0.3903 -0.0488 -0.4552
 7140TIP3   OH245614   4.232   0.597   0.915  0.3735  0.2431  0.4827
 7140TIP3    H145615   4.163   0.663   0.923  0.6428  0.4864  0.8283
 7140TIP3    H245616   4.268   0.590   1.003  0.4693 -0.2369  0.4086
 7141TIP3   OH245617   1.039   0.233   0.666  0.4707  0.5424  0.0225
 7141TIP3    H145618   0.978   0.171   0.628  1.4931  0.7169 -2.0245
 7141TIP3    H245619   1.120   0.183   0.679 -0.3332 -0.1211  4.1305
 7142TIP3   OH245620   0.581   6.905   1.327 -0.4006 -0.0597 -0.0303
 7142TIP3    H145621   0.521   6.852   1.274  0.0441 -0.4166 -0.1844
 7142TIP3    H245622   0.576   6.866   1.414  1.4680 -1.7270 -0.5791
 7143TIP3   OH245623   5.429   1.131   2.976 -0.0025 -0.3651 -0.0604
 7143TIP3    H145624   5.427   1.095   2.887 -1.2584  2.4812 -1.3244
 7143TIP3    H245625   5.370   1.075   3.026  3.4963 -4.3958  0.2257
 7144TIP3   OH245626   5.529   4.635   1.085 -0.1341 -0.1237 -0.3047
 7144TIP3    H145627   5.547   4.592   1.169  1.2223 -0.3730 -0.6923
 7144TIP3    H245628   5.560   4.572   1.019 -0.8474  0.2230 -0.9939
 7145TIP3   OH245629   5.116   4.444   1.533  0.4879 -0.2629 -0.4448
 7145TIP3    H145630   5.190   4.399   1.574 -0.7195  0.2182  2.5366
 7145TIP3    H245631   5.151   4.530   1.508  1.2309 -0.4852 -0.1965
 7146TIP3   OH245632   3.917   3.236   1.196  0.9600 -0.6138 -0.3041
 7146TIP3    H145633   3.962   3.314   1.229  0.7813 -0.6914  0.1200
 7146TIP3    H245634   3.832   3.236   1.240 -0.7362  1.1329 -3.1841
 7147TIP3   OH245635   1.279   5.786   2.320 -0.2625  0.2902  0.3057
 7147TIP3    H145636   1.318   5.872   2.338 -0.1386  0.0607  1.1676
 7147TIP3    H245637   1.277   5.781   2.225 -0.7274  1.4589  0.2308
 7148TIP3   OH245638   2.449   1.630   0.653  0.4104 -0.0674  0.1742
 7148TIP3    H145639   2.539   1.660   0.641  0.4174  0.4216  1.2978
 7148TIP3    H245640   2.404   1.703   0.696 -1.4765  1.1015 -3.3640
 7149TIP3   OH245641   7.256   6.324   2.026 -0.3213 -0.1760  0.5935
 7149TIP3    H145642   7.191   6.336   2.095 -0.2526  1.6511  0.4103
 7149TIP3    H245643   7.246   6.402   1.970  2.7827  0.8066  1.2209
 7150TIP3   OH245644   0.260   6.964   1.141  0.2043 -0.3980 -0.3022
 7150TIP3    H145645   0.176   6.929   1.168  0.3935  0.3832  1.4802
 7150TIP3    H245646   0.275   6.928   1.054 -2.0061 -0.4693 -0.7069
 7151TIP3   OH245647   2.348   1.538   1.296  0.3824  0.4358  0.2892
 7151TIP3    H145648   2.440   1.551   1.316  0.3482  0.8876  0.1546
 7151TIP3    H245649   2.348   1.492   1.211  0.5267 -1.5459  1.2963
 7152TIP3   OH245650   6.764   2.165   1.862 -0.1430  0.3725  0.0284
 7152TIP3    H145651   6.745   2.256   1.885  0.7510  0.5198  0.2188
 7152TIP3    H245652   6.859   2.157   1.872 -0.1807 -0.5132 -0.2386
 7153TIP3   OH245653   5.388   3.422   3.215  0.1199  0.5426  0.1046
 7153TIP3    H145654   5.383   3.462   3.128  1.6480  1.5942  0.4558
 7153TIP3    H245655   5.297   3.418   3.245 -0.4803 -0.2824 -1.7135
 7154TIP3   OH245656   2.362   1.294   1.753  0.2268  0.2742  0.0229
 7154TIP3    H145657   2.405   1.241   1.820  0.1167  0.3591  0.1599
 7154TIP3    H245658   2.275   1.254   1.744  0.3136  0.1320 -0.2198
 7155TIP3   OH245659   0.428   6.386   1.225 -0.0099 -0.0271 -0.4140
 7155TIP3    H145660   0.459   6.329   1.155  0.5920 -0.3165  0.0806
 7155TIP3    H245661   0.399   6.326   1.294 -2.4243  0.2002 -1.1281
 7156TIP3   OH245662   0.470   0.019   1.559  0.4344 -0.2353 -0.1368
 7156TIP3    H145663   0.477  -0.033   1.479  0.8697 -0.7911  0.2561
 7156TIP3    H245664   0.390  -0.013   1.601 -0.4514  0.8688 -0.9065
 7157TIP3   OH245665   4.549   7.006   1.339 -0.1893  0.3234  0.3476
 7157TIP3    H145666   4.515   6.919   1.316 -0.0407  0.5220 -0.6538
 7157TIP3    H245667   4.514   7.064   1.272 -0.2980  1.0551  1.0181
 7158TIP3   OH245668   4.858   4.792   1.784 -0.1425  0.4925 -0.2259
 7158TIP3    H145669   4.923   4.846   1.829 -1.0200  1.3525  0.0444
 7158TIP3    H245670   4.790   4.776   1.850  0.6122 -1.9089  0.0486
 7159TIP3   OH245671   4.405   2.418   2.894  0.5839  0.4452  0.2011
 7159TIP3    H145672   4.426   2.324   2.898  1.1552  0.5903  0.6853
 7159TIP3    H245673   4.322   2.426   2.940 -0.7607 -0.1708 -1.9416
 7160TIP3   OH245674   0.852   7.281   0.766  0.0596  0.2200 -0.7017
 7160TIP3    H145675   0.863   7.311   0.856 -0.1321  2.3539 -1.3257
 7160TIP3    H245676   0.813   7.194   0.774 -1.8660  1.1606  1.2790
 7161TIP3   OH245677   7.298   3.850   2.599  0.5240 -0.2398 -0.2381
 7161TIP3    H145678   7.267   3.919   2.658  1.7907  1.1204 -1.0812
 7161TIP3    H245679   7.219   3.813   2.560 -0.2188  0.1818  0.8121
 7162TIP3   OH245680   5.491   1.501   2.438  0.0713  0.6913  0.5563
 7162TIP3    H145681   5.415   1.557   2.454  0.8581  1.6469  1.1261
 7162TIP3    H245682   5.480   1.471   2.348 -0.8954  0.9391  0.5796
 7163TIP3   OH245683   2.749   1.678   1.934  0.3004  0.3404  0.1725
 7163TIP3    H145684   2.762   1.608   1.870 -0.0225  0.1281  0.3386
 7163TIP3    H245685   2.790   1.755   1.894  1.2395 -0.0988  0.2797
 7164TIP3   OH245686   2.747   6.609   2.489  0.2783  0.0314  0.0940
 7164TIP3    H145687   2.709   6.608   2.576  0.5678  0.5093  0.2320
 7164TIP3    H245688   2.829   6.658   2.499 -0.9487  2.4815 -0.9367
 7165TIP3   OH245689   3.561   2.578   1.488 -0.2427  0.2196 -0.7155
 7165TIP3    H145690   3.481   2.628   1.470  0.2727  1.8368  1.2084
 7165TIP3    H245691   3.615   2.637   1.540  0.9458 -1.9130  0.6021
 7166TIP3   OH245692   5.718   6.826   2.599 -0.0594 -0.1892  0.3910
 7166TIP3    H145693   5.740   6.744   2.556 -2.5914 -0.6923 -0.0736
 7166TIP3    H245694   5.702   6.888   2.528  0.1239  0.2346  0.7098
 7167TIP3   OH245695   3.513   7.048   2.381 -0.7303  0.2727 -0.0423
 7167TIP3    H145696   3.516   7.141   2.360 -0.9347  0.9409  2.5328
 7167TIP3    H245697   3.599   7.015   2.353  0.0699  1.6633  0.6215
 7168TIP3   OH245698   5.971   6.855   1.378 -0.0540  0.3267  0.0420
 7168TIP3    H145699   5.970   6.907   1.298  0.0871  0.1382 -0.0808
 7168TIP3    H245700   6.033   6.784   1.361  0.5066  0.6795  0.5716
 7169TIP3   OH245701   5.760   2.101   1.712 -0.0192 -0.0544  0.2017
 7169TIP3    H145702   5.822   2.066   1.776  0.8402  0.9096 -0.0885
 7169TIP3    H245703   5.688   2.038   1.713  0.8924 -1.1401  0.6416
 7170TIP3   OH245704   0.550   1.603   0.841 -0.1704  0.1633  0.1763
 7170TIP3    H145705   0.580   1.533   0.900  0.7012  1.1686  0.9571
 7170TIP3    H245706   0.579   1.575   0.754 -1.5590 -1.3926  0.1757
 7171TIP3   OH245707   3.961   6.427   0.926  0.3446  0.1621  0.3468
 7171TIP3    H145708   3.996   6.338   0.920  1.6412  0.6822 -0.2200
 7171TIP3    H245709   4.039   6.483   0.933 -0.3464  1.3606 -0.9386
 7172TIP3   OH245710   7.143   4.224   3.559  0.1766  0.0017 -0.2517
 7172TIP3    H145711   7.215   4.285   3.574  0.7541 -0.6074 -0.4711
 7172TIP3    H245712   7.163   4.150   3.616 -0.1152 -0.3042 -0.5452
 7173TIP3   OH245713   1.413   4.439   2.684  0.1696 -0.4609  0.6561
 7173TIP3    H145714   1.425   4.352   2.723  0.5129 -0.6746  0.0862
 7173TIP3    H245715   1.468   4.438   2.606 -1.5199 -0.5249 -0.5923
 7174TIP3   OH245716   3.571   5.578   0.593 -0.2911 -0.2480 -0.3564
 7174TIP3    H145717   3.664   5.580   0.612 -0.1509 -3.1326 -0.3548
 7174TIP3    H245718   3.538   5.662   0.626  2.0988  0.4087  0.5504
 7175TIP3   OH245719   1.012   5.068   2.459 -0.1068 -0.7296 -0.2548
 7175TIP3    H145720   1.074   5.038   2.392  0.1316 -1.7374  0.4053
 7175TIP3    H245721   1.061   5.131   2.511 -0.0777 -0.4809 -0.5759
 7176TIP3   OH245722   0.028   2.715   1.440 -0.3404  0.6050 -0.1691
 7176TIP3    H145723   0.052   2.798   1.482  1.6845  0.6268 -1.2712
 7176TIP3    H245724   0.060   2.648   1.499  0.4847  0.6269 -0.5871
 7177TIP3   OH245725   3.675   5.825   1.996  0.2950 -0.3639  0.0386
 7177TIP3    H145726   3.745   5.764   2.021  0.6375  0.2381  0.5977
 7177TIP3    H245727   3.707   5.869   1.918 -0.4943 -1.7786 -1.1359
 7178TIP3   OH245728   3.431   6.796   1.953 -0.4292 -0.0403  0.1786
 7178TIP3    H145729   3.516   6.752   1.965 -0.3867  0.2900  1.2049
 7178TIP3    H245730   3.374   6.756   2.019 -1.3508 -0.8971 -1.0948
 7179TIP3   OH245731   3.526   6.254   2.885  0.3273 -0.7208 -0.1054
 7179TIP3    H145732   3.441   6.226   2.917  0.1026  0.3035  0.2341
 7179TIP3    H245733   3.585   6.242   2.960 -0.3882  2.6047  1.1539
 7180TIP3   OH245734   7.023   4.923   1.094  0.2033  0.0182  0.0021
 7180TIP3    H145735   6.945   4.920   1.038  0.6673  0.3105 -0.6715
 7180TIP3    H245736   7.014   4.847   1.151 -0.4362 -0.1116 -0.2638
 7181TIP3   OH245737   3.609   4.216   0.984 -0.3413  0.0233  0.1657
 7181TIP3    H145738   3.606   4.269   0.905 -0.8257 -1.4715 -0.8770
 7181TIP3    H245739   3.576   4.130   0.956 -0.0917 -0.6743  1.8874
 7182TIP3   OH245740   4.706   0.356   0.882 -0.3169 -0.2525 -0.1580
 7182TIP3    H145741   4.622   0.349   0.927  0.0329 -0.4567  0.4744
 7182TIP3    H245742   4.728   0.266   0.859 -0.2166 -0.2134 -0.2152
 7183TIP3   OH245743   7.184   1.724   0.462  0.1588  0.4535  0.4211
 7183TIP3    H145744   7.196   1.643   0.412  0.9051  0.8707 -0.0868
 7183TIP3    H245745   7.273   1.759   0.473 -0.1808  1.3227  0.4433
 7184TIP3   OH245746   6.303   3.221   2.220 -0.3388  0.2345  0.4185
 7184TIP3    H145747   6.246   3.222   2.297 -0.8143  0.8470  0.0743
 7184TIP3    H245748   6.244   3.242   2.147  0.0767 -0.4627 -0.1306
 7185TIP3   OH245749   3.540   1.443   2.642 -0.8250  0.8842 -0.1453
 7185TIP3    H145750   3.550   1.414   2.732  1.3480  0.6060 -0.4154
 7185TIP3    H245751   3.482   1.518   2.647  1.3487  2.5662  1.8861
 7186TIP3   OH245752   3.200   5.769   1.725 -0.4108 -0.4290  0.2473
 7186TIP3    H145753   3.194   5.854   1.681 -1.2575 -0.6557 -0.0877
 7186TIP3    H245754   3.292   5.746   1.719 -0.3820 -0.1073 -0.7477
 7187TIP3   OH245755   6.204   2.994   1.708  0.0296  0.1096  0.2302
 7187TIP3    H145756   6.253   3.009   1.627  0.3426  0.3488  0.4662
 7187TIP3    H245757   6.258   3.032   1.777 -0.2570 -0.0593  0.5494
 7188TIP3   OH245758   5.990   4.537   2.649  0.4095  0.6650  0.3788
 7188TIP3    H145759   6.082   4.527   2.673  0.4559  1.5396  0.5624
 7188TIP3    H245760   5.957   4.609   2.702 -0.6095 -0.1662  0.9217
 7189TIP3   OH245761   2.888   0.579   2.169 -0.3768  0.3074 -0.1779
 7189TIP3    H145762   2.818   0.645   2.167 -0.0512  0.7394  1.5774
 7189TIP3    H245763   2.876   0.533   2.252 -0.0101 -1.2360 -0.9405
 7190TIP3   OH245764   1.994   2.998   2.403 -0.3637  0.0718 -0.6316
 7190TIP3    H145765   1.934   2.940   2.449  2.4749 -1.1405  1.8848
 7190TIP3    H245766   1.999   3.076   2.458  0.7946 -0.1378 -0.3954
 7191TIP3   OH245767   7.539   6.957   2.050 -0.2695 -0.1565  0.1305
 7191TIP3    H145768   7.633   6.971   2.063  0.1409 -1.7293 -0.8845
 7191TIP3    H245769   7.512   6.906   2.126 -0.1307 -0.3533  0.0497
 7192TIP3   OH245770   5.922   4.117   0.773  0.5344 -0.6267 -0.3202
 7192TIP3    H145771   6.007   4.081   0.799  0.9260 -0.2079 -0.9862
 7192TIP3    H245772   5.900   4.069   0.692  0.9024  0.3669 -1.0301
 7193TIP3   OH245773   3.358   5.976   1.016 -0.4812  0.4499 -0.5383
 7193TIP3    H145774   3.345   6.064   1.052 -0.1313  0.5076 -0.5532
 7193TIP3    H245775   3.283   5.963   0.957 -0.5276  0.7400 -0.5454
 7194TIP3   OH245776   5.839   4.908   2.656 -0.3149  0.9231  0.2757
 7194TIP3    H145777   5.893   4.842   2.700 -2.6778  0.2167  2.3699
 7194TIP3    H245778   5.764   4.859   2.623 -1.1214  2.2522  0.0863
 7195TIP3   OH245779   7.662   3.673   2.354  0.0952 -0.3348  0.2494
 7195TIP3    H145780   7.748   3.715   2.365 -0.0933 -0.0178  0.5271
 7195TIP3    H245781   7.668   3.629   2.269 -0.6147  2.5918 -1.4760
 7196TIP3   OH245782   5.460   5.718   1.552  0.1392 -0.0383  0.6516
 7196TIP3    H145783   5.383   5.770   1.528  0.3145  0.1160  0.4205
 7196TIP3    H245784   5.524   5.736   1.483  0.1085 -0.7700  0.4218
 7197TIP3   OH245785   4.275   3.803   1.207  0.4152  0.0215  0.3285
 7197TIP3    H145786   4.227   3.742   1.152  1.2850  0.9631 -1.5752
 7197TIP3    H245787   4.324   3.747   1.268 -0.7041 -1.0411  0.2871
 7198TIP3   OH245788   1.321   6.089   0.905 -0.1168 -0.0236 -0.0573
 7198TIP3    H145789   1.252   6.137   0.950 -1.9767 -0.3906 -2.2613
 7198TIP3    H245790   1.369   6.155   0.855 -0.0305  0.0185  0.0814
 7199TIP3   OH245791   5.444   6.309   2.234 -0.2744 -0.2511 -0.2847
 7199TIP3    H145792   5.503   6.253   2.284  0.8118  0.0184 -1.2348
 7199TIP3    H245793   5.435   6.388   2.286  0.6950 -0.0532 -0.3965
 7200TIP3   OH245794   4.092   3.191   3.023 -0.1314 -0.0103 -0.6359
 7200TIP3    H145795   4.161   3.194   3.089 -1.1147  1.9245  0.3927
 7200TIP3    H245796   4.090   3.279   2.986 -2.2596  0.1066 -0.3785
 7201TIP3   OH245797   2.277   7.003   1.086 -0.9848 -0.6904  0.3188
 7201TIP3    H145798   2.210   6.949   1.043 -1.3095  0.8852 -1.3060
 7201TIP3    H245799   2.229   7.080   1.117 -0.6798 -1.5723  3.2945
 7202TIP3   OH245800   5.564   3.752   0.616 -0.1911 -0.0889 -0.1103
 7202TIP3    H145801   5.607   3.669   0.638  0.1099 -0.1508 -0.8775
 7202TIP3    H245802   5.496   3.728   0.554 -0.2611  0.2090 -0.1501
 7203TIP3   OH245803   5.364   1.382   2.891  0.4453  0.3980  0.2527
 7203TIP3    H145804   5.368   1.297   2.935  1.7816  0.4033  0.1731
 7203TIP3    H245805   5.294   1.372   2.827 -0.9550  0.1090  1.7714
 7204TIP3   OH245806   0.924   3.420   2.820  0.0876 -0.4968  0.2396
 7204TIP3    H145807   0.844   3.458   2.783  1.6950  1.0854 -1.8138
 7204TIP3    H245808   0.985   3.493   2.826  1.9950 -1.9940  0.0293
 7205TIP3   OH245809   2.277   7.510   2.404 -0.0230  0.3254 -0.0390
 7205TIP3    H145810   2.345   7.447   2.430 -1.4049 -0.9368  0.6763
 7205TIP3    H245811   2.205   7.494   2.465 -2.6542 -1.3772 -3.2630
 7206TIP3   OH245812   7.435   1.855   0.486 -0.4442  0.2771 -0.2127
 7206TIP3    H145813   7.506   1.817   0.539  1.2352  1.6886 -1.3647
 7206TIP3    H245814   7.466   1.848   0.396 -2.1589  0.2060 -0.8252
 7207TIP3   OH245815   5.959   7.326   2.052 -0.4006  0.1996 -0.2293
 7207TIP3    H145816   6.016   7.261   2.011 -0.9020 -0.6394  0.3756
 7207TIP3    H245817   6.000   7.344   2.137  0.7490  2.0829 -1.1147
 7208TIP3   OH245818   2.757   3.871   2.164 -0.0446  0.6389  0.5005
 7208TIP3    H145819   2.816   3.889   2.091  0.0952  0.6284  0.6100
 7208TIP3    H245820   2.766   3.777   2.180 -0.2217  0.6037  0.4068
 7209TIP3   OH245821   4.473   3.215   1.708 -0.0174 -0.4002  0.0141
 7209TIP3    H145822   4.555   3.249   1.744  1.8593 -1.1286 -3.0888
 7209TIP3    H245823   4.429   3.291   1.671 -0.0603 -0.1955  0.4821
 7210TIP3   OH245824   4.618   1.242   2.325 -0.0805 -0.0840  0.2638
 7210TIP3    H145825   4.535   1.289   2.321  0.9127  1.8959  1.2490
 7210TIP3    H245826   4.615   1.194   2.407 -0.8551 -1.3186 -0.4568
 7211TIP3   OH245827   3.608   4.254   2.314 -0.4260  0.1850  0.2166
 7211TIP3    H145828   3.674   4.323   2.313 -0.6294  0.5615 -4.1259
 7211TIP3    H245829   3.534   4.292   2.362  0.4013  1.9963  0.1396
 7212TIP3   OH245830   2.382   6.551   1.066  0.2207  0.4115  0.3594
 7212TIP3    H145831   2.341   6.638   1.065 -1.5131 -0.3026 -2.4387
 7212TIP3    H245832   2.447   6.554   0.996  0.8623 -0.2740  0.9047
 7213TIP3   OH245833   6.105   4.719   1.040  0.1003 -0.7445 -0.0461
 7213TIP3    H145834   6.140   4.804   1.067 -0.7385 -0.4749  0.2215
 7213TIP3    H245835   6.101   4.724   0.944 -0.0368 -0.4452 -0.0256
 7214TIP3   OH245836   0.516   0.238   1.778 -0.0909  0.4830 -0.2415
 7214TIP3    H145837   0.493   0.157   1.734 -0.1914  0.8306 -0.8369
 7214TIP3    H245838   0.434   0.268   1.817 -0.0179  0.2143  0.1217
 7215TIP3   OH245839   3.328   7.307   2.499  0.0818 -0.2605  0.5840
 7215TIP3    H145840   3.350   7.233   2.556  0.0954 -1.5476 -1.0076
 7215TIP3    H245841   3.365   7.383   2.543  0.7589 -1.3100  1.8964
 7216TIP3   OH245842   3.456   3.971   0.925 -0.4537  0.0821 -0.0942
 7216TIP3    H145843   3.423   3.948   0.839  2.2394  0.7327 -1.4114
 7216TIP3    H245844   3.504   3.894   0.954 -1.6128 -0.2572  1.0337
 7217TIP3   OH245845   7.439   4.603   1.671  0.4623  0.0415  0.0891
 7217TIP3    H145846   7.385   4.599   1.750 -2.0342 -1.5411 -1.5530
 7217TIP3    H245847   7.477   4.515   1.663 -1.2749 -0.6162 -1.6618
 7218TIP3   OH245848   7.677   4.932   0.354 -0.0076 -0.2195 -0.3509
 7218TIP3    H145849   7.661   5.019   0.391 -0.2446  0.5991 -2.2981
 7218TIP3    H245850   7.663   4.872   0.428 -0.3255  1.3422  0.9039
 7219TIP3   OH245851   2.429   4.820   2.385  0.2114 -0.0180 -0.1924
 7219TIP3    H145852   2.397   4.899   2.342  1.9587 -0.8122 -3.2125
 7219TIP3    H245853   2.360   4.796   2.446 -0.5199  3.6069  0.6321
 7220TIP3   OH245854   0.826   1.804   1.189 -0.0074  0.0558  0.1232
 7220TIP3    H145855   0.765   1.756   1.246 -0.9395 -1.1312 -1.7485
 7220TIP3    H245856   0.912   1.764   1.207 -0.1945  0.0598  1.0530
 7221TIP3   OH245857   1.094   6.819   1.814 -0.1225  0.5017  0.0851
 7221TIP3    H145858   1.156   6.747   1.804  1.5996  2.0565 -1.0983
 7221TIP3    H245859   1.147   6.892   1.846 -1.7669  1.3485  0.9986
 7222TIP3   OH245860   5.369   1.407   0.672 -0.0281  0.2239  0.0071
 7222TIP3    H145861   5.400   1.488   0.632  1.2745 -0.2852 -0.0641
 7222TIP3    H245862   5.328   1.435   0.754  1.2221  0.8835  0.4226
 7223TIP3   OH245863   0.646   4.309   3.302 -0.0756 -0.3995  0.1548
 7223TIP3    H145864   0.553   4.313   3.280 -0.2402 -0.0503  0.8759
 7223TIP3    H245865   0.648   4.310   3.398  0.6931  0.3135  0.1425
 7224TIP3   OH245866   0.478   5.135   3.371  0.1008 -0.7031  0.6405
 7224TIP3    H145867   0.562   5.171   3.341 -0.7485  2.0834  1.3198
 7224TIP3    H245868   0.424   5.212   3.388 -2.1997 -2.3967  1.4309
 7225TIP3   OH245869   1.946   0.127   0.865 -0.1477 -0.3648 -0.1598
 7225TIP3    H145870   1.956   0.115   0.959 -0.7000 -2.2014 -0.3035
 7225TIP3    H245871   1.854   0.110   0.848 -0.3176  1.1237 -0.9022
 7226TIP3   OH245872   1.725   0.364   1.327 -0.0864  0.1382  0.0075
 7226TIP3    H145873   1.757   0.351   1.416 -0.2000  0.9992  0.1807
 7226TIP3    H245874   1.702   0.457   1.323 -0.7962 -0.0562 -0.6836
 7227TIP3   OH245875   0.210   5.744   1.882 -0.1056  0.6300  0.1932
 7227TIP3    H145876   0.227   5.774   1.971  0.8636 -0.3965  0.3839
 7227TIP3    H245877   0.297   5.720   1.848 -0.7268 -1.2654 -0.1654
 7228TIP3   OH245878   4.291   0.571   1.185  0.5776  0.4430  0.0745
 7228TIP3    H145879   4.209   0.590   1.230  0.5309  0.8261 -0.1684
 7228TIP3    H245880   4.356   0.627   1.228  0.9399 -0.6212  0.9774
 7229TIP3   OH245881   7.164   1.585   1.172  0.1654  0.2787  0.1524
 7229TIP3    H145882   7.146   1.599   1.079  0.1740  2.0959  0.3859
 7229TIP3    H245883   7.258   1.568   1.176 -0.1699 -2.0607 -0.3475
 7230TIP3   OH245884   1.508   6.636   2.721  0.1245  0.1674 -0.3372
 7230TIP3    H145885   1.583   6.576   2.725  0.9349  0.9584 -2.3931
 7230TIP3    H245886   1.537   6.714   2.768 -0.2992 -0.3729  0.8593
 7231TIP3   OH245887   5.586   7.026   0.551 -0.0972 -0.3776 -0.0958
 7231TIP3    H145888   5.501   7.025   0.595  0.2227  1.4905  0.6357
 7231TIP3    H245889   5.604   6.934   0.532 -1.9107 -0.8833  0.4413
 7232TIP3   OH245890   3.065   6.316   0.639  0.0417  0.2673  0.1920
 7232TIP3    H145891   3.032   6.247   0.581  0.4061 -0.5202  0.8969
 7232TIP3    H245892   3.105   6.268   0.712 -0.7867  1.2363  1.3130
 7233TIP3   OH245893   3.666   6.263   1.718  0.2228  0.2134 -0.9133
 7233TIP3    H145894   3.723   6.308   1.655  1.4836  1.1313  0.8133
 7233TIP3    H245895   3.589   6.239   1.666  1.1820  0.9397 -2.8046
 7234TIP3   OH245896   4.027   1.188   1.243  0.0255 -0.5368 -0.1607
 7234TIP3    H145897   4.002   1.237   1.322  0.8022 -0.4141  0.0162
 7234TIP3    H245898   4.003   1.098   1.263  0.9641 -0.6473  0.5595
 7235TIP3   OH245899   5.274   5.468   1.459  0.4740 -0.4293  0.9600
 7235TIP3    H145900   5.184   5.448   1.432  1.0317 -0.3777 -1.1001
 7235TIP3    H245901   5.263   5.532   1.529 -1.1067  0.3840  0.0534
 7236TIP3   OH245902   7.173   5.661   3.473  0.1631  0.1728 -0.0511
 7236TIP3    H145903   7.159   5.749   3.439  0.1110  0.1939  0.0234
 7236TIP3    H245904   7.126   5.604   3.413  0.1014  0.2062 -0.0345
 7237TIP3   OH245905   6.825   7.025   0.610  0.1807 -0.0009  0.6643
 7237TIP3    H145906   6.744   7.074   0.598  0.4577 -0.0635 -2.1403
 7237TIP3    H245907   6.797   6.936   0.629 -0.4964 -0.2857 -1.4510
 7238TIP3   OH245908   1.595   6.356   1.323 -0.1790 -0.1015  0.5581
 7238TIP3    H145909   1.500   6.360   1.320 -0.2285 -0.9141  0.9119
 7238TIP3    H245910   1.622   6.448   1.328 -1.0251  0.1077  2.3635
 7239TIP3   OH245911   7.491   3.700   1.668 -0.4096 -0.2269  0.0650
 7239TIP3    H145912   7.418   3.668   1.614 -0.8300  0.7453  0.0271
 7239TIP3    H245913   7.499   3.636   1.738 -1.5807 -0.1562  0.2927
 7240TIP3   OH245914   6.222   2.452   1.116  0.1414  0.4188 -0.2429
 7240TIP3    H145915   6.269   2.375   1.147  1.2039  1.1530  0.0401
 7240TIP3    H245916   6.163   2.419   1.048  0.9307 -0.5620 -0.4716
 7241TIP3   OH245917   3.786   7.441   1.549 -0.1833  0.4799  0.2259
 7241TIP3    H145918   3.779   7.515   1.488  1.0361  3.3543  3.2447
 7241TIP3    H245919   3.696   7.424   1.577 -0.4888  0.7199 -0.5787
 7242TIP3   OH245920   1.182   1.074   2.499 -0.1736  0.4160 -0.2774
 7242TIP3    H145921   1.160   1.026   2.579 -0.4540  0.6644 -0.2060
 7242TIP3    H245922   1.258   1.027   2.463  1.3147  1.5326  1.2447
 7243TIP3   OH245923   0.863   1.612   0.771  0.0742  0.0067 -0.0582
 7243TIP3    H145924   0.836   1.558   0.697  0.6383 -0.3951  0.0228
 7243TIP3    H245925   0.804   1.688   0.769 -0.8406 -0.6960 -0.0577
 7244TIP3   OH245926   2.793   0.514   0.839 -0.4831  0.8569  0.1234
 7244TIP3    H145927   2.741   0.584   0.877  1.0063  1.8676  0.3742
 7244TIP3    H245928   2.838   0.555   0.765 -0.9440 -0.3047 -0.8514
 7245TIP3   OH245929   5.792   2.862   0.761  0.3612  0.5685  0.5247
 7245TIP3    H145930   5.825   2.776   0.786 -2.3275 -0.9276 -0.5860
 7245TIP3    H245931   5.846   2.888   0.687  0.6734 -0.6049  0.3283
 7246TIP3   OH245932   2.709   3.318   3.207 -0.7657 -0.5370  0.1628
 7246TIP3    H145933   2.774   3.282   3.268  0.1355 -0.5217 -0.7596
 7246TIP3    H245934   2.637   3.254   3.208 -0.6951 -0.6137  1.1086
 7247TIP3   OH245935   6.373   6.372   0.772 -0.1273  0.3944  0.0038
 7247TIP3    H145936   6.457   6.390   0.814  0.0328 -2.1316  0.9077
 7247TIP3    H245937   6.393   6.309   0.703 -1.6331 -3.9115  3.0495
 7248TIP3   OH245938   5.133   1.326   1.031 -0.5442  0.1918  0.4178
 7248TIP3    H145939   5.146   1.254   0.970  0.7098  0.4475  0.3396
 7248TIP3    H245940   5.074   1.291   1.098 -0.4224 -0.7158  0.0684
 7249TIP3   OH245941   1.092   4.533   1.352  0.0381 -0.4180  0.1869
 7249TIP3    H145942   1.062   4.455   1.305 -1.1181 -0.0136  0.2154
 7249TIP3    H245943   1.019   4.554   1.411  0.5912  0.3293  0.6089
 7250TIP3   OH245944   7.648   1.257   1.398  0.3346  0.6035 -0.1553
 7250TIP3    H145945   7.651   1.165   1.426  2.0280  0.6962  0.1136
 7250TIP3    H245946   7.724   1.266   1.341  0.0006  1.7641 -0.4307
 7251TIP3   OH245947   2.531   2.858   2.502 -0.0367 -0.0139 -0.2682
 7251TIP3    H145948   2.494   2.813   2.425 -1.8007 -0.5482  0.8170
 7251TIP3    H245949   2.573   2.936   2.466 -1.5694  0.2163 -1.7260
 7252TIP3   OH245950   1.485   5.087   2.728  0.5080  0.0395 -0.4501
 7252TIP3    H145951   1.578   5.070   2.737  0.1570 -2.4658 -0.8160
 7252TIP3    H245952   1.445   5.045   2.804 -0.3301  1.5195 -0.0150
 7253TIP3   OH245953   5.716   6.103   3.498  0.1799  0.4025 -0.1617
 7253TIP3    H145954   5.795   6.133   3.543  0.5812  2.1407 -1.8729
 7253TIP3    H245955   5.725   6.008   3.495  1.9793  0.5146  0.1262
 7254TIP3   OH245956   0.354   6.013   1.367  0.1271 -0.4685  0.1406
 7254TIP3    H145957   0.401   5.955   1.428  0.5107  0.0817  0.3737
 7254TIP3    H245958   0.383   6.101   1.391 -0.8138 -0.1403  0.0971
 7255TIP3   OH245959   0.888   3.268   2.164  0.2547 -0.1382 -0.0181
 7255TIP3    H145960   0.928   3.206   2.104  1.8311 -1.3432  2.1333
 7255TIP3    H245961   0.795   3.268   2.142  0.1018 -3.6781  0.1717
 7256TIP3   OH245962   0.425   2.300   2.182 -0.3337 -0.5205 -0.0007
 7256TIP3    H145963   0.383   2.220   2.215 -2.5556 -0.1201 -1.5898
 7256TIP3    H245964   0.443   2.281   2.090  0.7736  0.2195  0.0392
 7257TIP3   OH245965   7.099   1.872   1.887  0.2213  0.0170 -0.1625
 7257TIP3    H145966   7.069   1.960   1.866  1.2390  0.3915 -0.0652
 7257TIP3    H245967   7.106   1.828   1.803 -1.6316 -0.4407 -0.1284
 7258TIP3   OH245968   4.583   2.957   0.894 -0.3797  0.4399  0.0354
 7258TIP3    H145969   4.587   3.049   0.865  1.2456  0.1650 -0.7414
 7258TIP3    H245970   4.648   2.951   0.963  0.0861 -0.3095 -0.4646
 7259TIP3   OH245971   1.667   7.315   0.489  0.1820  0.9828 -0.1527
 7259TIP3    H145972   1.688   7.405   0.466 -0.3552  0.8718 -1.1292
 7259TIP3    H245973   1.747   7.266   0.471 -0.3154  0.8330 -2.3026
 7260TIP3   OH245974   0.220   0.677   2.808  0.3302  0.6138 -0.3992
 7260TIP3    H145975   0.281   0.634   2.748 -1.2133 -0.9879 -0.8995
 7260TIP3    H245976   0.153   0.715   2.752  0.8639  2.4495  0.1373
 7261TIP3   OH245977   5.763   0.502   0.866  0.0712  0.3507 -0.0745
 7261TIP3    H145978   5.777   0.421   0.915  1.2847  0.9046  0.5418
 7261TIP3    H245979   5.842   0.554   0.883 -0.4126  1.4075 -0.9568
 7262TIP3   OH245980   4.404   7.251   1.729 -0.1619 -0.2222 -0.8236
 7262TIP3    H145981   4.333   7.303   1.767  0.9408  0.5135  0.3255
 7262TIP3    H245982   4.460   7.315   1.684 -0.2488 -0.8000 -1.7894
 7263TIP3   OH245983   7.631   5.785   1.765  0.3431  0.1251 -0.5465
 7263TIP3    H145984   7.714   5.794   1.812 -0.1100  1.4816  0.0445
 7263TIP3    H245985   7.566   5.822   1.824 -0.1531  2.5054 -2.4397
 7264TIP3   OH245986   0.286   7.450   0.858  0.2960  0.4871  0.2172
 7264TIP3    H145987   0.299   7.360   0.887  0.1796  0.3878 -0.0310
 7264TIP3    H245988   0.346   7.502   0.911  0.9864  0.1646 -0.2313
 7265TIP3   OH245989   7.679   0.465   8.305 -0.0002  0.1329 -0.1345
 7265TIP3    H145990   7.676   0.404   8.379 -0.0564  0.9849  0.5849
 7265TIP3    H245991   7.730   0.539   8.337  0.6511  0.1734 -1.2251
 7266TIP3   OH245992   3.467   5.426   1.038  0.1033 -0.3613 -0.6176
 7266TIP3    H145993   3.481   5.415   0.944  2.6940  0.1969 -0.3657
 7266TIP3    H245994   3.420   5.509   1.045 -0.8638 -0.8090 -1.4208
 7267TIP3   OH245995   0.164   1.866   1.375 -0.2823 -0.8074  0.2736
 7267TIP3    H145996   0.249   1.839   1.411  0.2657  0.5562  0.0781
 7267TIP3    H245997   0.187   1.928   1.305 -1.4367  1.5181  1.8109
 7268TIP3   OH245998   7.335   6.361   1.462  0.0139  0.4268  0.5742
 7268TIP3    H145999   7.393   6.375   1.537  0.1473 -1.2997  0.8480
 7268TIP3    H246000   7.249   6.343   1.500  0.2149 -1.0937  0.4013
 7269TIP3   OH246001   0.366   5.415   2.431  0.4293 -0.3008  0.0558
 7269TIP3    H146002   0.385   5.424   2.524  1.2841  1.2240 -0.2200
 7269TIP3    H246003   0.274   5.438   2.423  0.8671  1.7808  0.3064
 7270TIP3   OH246004   3.190   6.652   1.134  0.0996  0.3285  0.4071
 7270TIP3    H146005   3.107   6.683   1.096 -0.2916 -1.8304 -0.7030
 7270TIP3    H246006   3.202   6.705   1.212 -1.3710  1.9623 -0.3970
 7271TIP3   OH246007   5.371   2.508   1.713 -0.3257  0.0669 -0.4024
 7271TIP3    H146008   5.370   2.470   1.625  3.2498 -0.2644 -0.4484
 7271TIP3    H246009   5.382   2.433   1.771 -0.2722  0.4777  0.1202
 7272TIP3   OH246010   4.319   2.440   1.443  0.6190  0.1798 -0.2590
 7272TIP3    H146011   4.266   2.374   1.488  1.1108  0.5106  0.8234
 7272TIP3    H246012   4.399   2.394   1.418  1.5387  0.6617  1.6690
 7273TIP3   OH246013   7.332   3.397   0.635 -0.3395 -0.1246  0.1306
 7273TIP3    H146014   7.267   3.348   0.684 -0.0703 -1.8759 -1.1852
 7273TIP3    H246015   7.283   3.470   0.596 -0.9532  0.0953  1.2703
 7274TIP3   OH246016   1.161   5.245   2.659 -0.3099  0.1735  0.0267
 7274TIP3    H146017   1.130   5.220   2.745 -1.2424 -1.5606 -0.7618
 7274TIP3    H246018   1.256   5.235   2.664 -0.4323 -0.9269  0.5824
 7275TIP3   OH246019   7.157   0.552   1.608  0.4738 -0.4357 -0.4013
 7275TIP3    H146020   7.238   0.511   1.578  0.3867 -0.2606 -0.8806
 7275TIP3    H246021   7.182   0.599   1.688  0.8074 -0.5231 -0.4529
 7276TIP3   OH246022   6.499   7.163   2.116  0.7195 -0.1948 -0.1774
 7276TIP3    H146023   6.558   7.234   2.092  0.3960  0.0807 -0.1595
 7276TIP3    H246024   6.553   7.083   2.107  1.4762  0.1404  1.0683
 7277TIP3   OH246025   0.441   0.694   0.966 -0.0316  0.2349  0.0567
 7277TIP3    H146026   0.362   0.643   0.946  0.2788  0.1147 -0.8973
 7277TIP3    H246027   0.513   0.633   0.950  0.2398  0.0107  1.9525
 7278TIP3   OH246028   6.543   6.620   2.070  0.4392  0.0876 -0.9478
 7278TIP3    H146029   6.598   6.546   2.045 -1.5185 -0.9338 -2.4457
 7278TIP3    H246030   6.458   6.601   2.031 -0.2708  2.9005 -0.9429
 7279TIP3   OH246031   3.718   7.184   2.607  0.1088  0.0909 -0.4191
 7279TIP3    H146032   3.751   7.243   2.676  2.0989 -1.0053 -0.3669
 7279TIP3    H246033   3.727   7.235   2.526  0.1743  0.4770 -0.1718
 7280TIP3   OH246034   6.567   3.155   1.197 -0.2312  0.3545  0.2385
 7280TIP3    H146035   6.498   3.219   1.214 -0.1515  0.9783 -1.5310
 7280TIP3    H246036   6.521   3.073   1.180 -0.5888  0.8129 -1.1343
 7281TIP3   OH246037   7.176   4.677   1.504  0.3392 -0.8459  0.0849
 7281TIP3    H146038   7.128   4.625   1.567 -0.7938 -0.2851 -0.2790
 7281TIP3    H246039   7.226   4.613   1.453  0.3269 -1.4027  0.7566
 7282TIP3   OH246040   2.223   3.002   1.407 -0.6967 -0.3860 -0.1063
 7282TIP3    H146041   2.216   3.019   1.501 -1.4147  0.6875 -0.3330
 7282TIP3    H246042   2.285   3.068   1.376 -1.0428 -0.2434 -0.5009
 7283TIP3   OH246043   1.793   0.413   1.013  0.0419 -0.6835  0.0495
 7283TIP3    H146044   1.879   0.453   0.999  0.2603 -1.4391 -0.7912
 7283TIP3    H246045   1.798   0.378   1.102  0.2416  0.1676  0.3826
 7284TIP3   OH246046   3.992   5.777   1.914 -0.1136 -0.2213  0.4637
 7284TIP3    H146047   3.992   5.833   1.991  0.3817  0.4738 -0.0349
 7284TIP3    H246048   4.040   5.699   1.941  0.5705  0.2706  0.6830
 7285TIP3   OH246049   3.949   5.298   1.611 -0.3417 -0.0062 -0.2302
 7285TIP3    H146050   3.880   5.352   1.649  0.2617  0.5979  0.0313
 7285TIP3    H246051   3.951   5.323   1.518  1.1669  1.8366  0.2292
 7286TIP3   OH246052   0.316   4.402   0.522  0.1002  0.1623 -0.1033
 7286TIP3    H146053   0.401   4.410   0.565 -0.0543 -0.3358  0.3069
 7286TIP3    H246054   0.291   4.491   0.500  0.3325  0.3983  0.5604
 7287TIP3   OH246055   5.769   3.257   1.521  0.4527  0.0498 -0.3709
 7287TIP3    H146056   5.752   3.329   1.582  1.2323  0.3897 -0.5407
 7287TIP3    H246057   5.684   3.241   1.479 -0.3667 -0.8909  1.5116
 7288TIP3   OH246058   3.691   5.885   0.641 -0.0312  0.3272  0.3886
 7288TIP3    H146059   3.683   5.959   0.581  1.4875 -0.6871 -1.1869
 7288TIP3    H246060   3.603   5.849   0.647 -0.5881  1.6630  0.3902
 7289TIP3   OH246061   4.662   2.864   1.665 -0.2613  0.2793  0.7369
 7289TIP3    H146062   4.710   2.873   1.747  1.3953 -1.0070 -0.0352
 7289TIP3    H246063   4.727   2.836   1.601 -1.7451  0.0219 -0.7541
 7290TIP3   OH246064   5.894   2.623   0.858  0.2403 -0.3530 -0.5620
 7290TIP3    H146065   5.816   2.567   0.860  0.5542 -0.7775  0.2106
 7290TIP3    H246066   5.967   2.562   0.866  0.5988  0.1539  0.1199
 7291TIP3   OH246067   3.630   5.576   3.337 -0.4712  0.2055  0.1153
 7291TIP3    H146068   3.601   5.633   3.265 -1.1124  1.9583  1.6543
 7291TIP3    H246069   3.688   5.513   3.297  0.6882  2.2720 -1.6666
 7292TIP3   OH246070   3.795   3.060   2.542 -0.0990 -0.4543  0.1892
 7292TIP3    H146071   3.777   3.146   2.580  1.2732 -0.5083  1.0187
 7292TIP3    H246072   3.718   3.007   2.566  0.0038 -0.0382  1.5307
 7293TIP3   OH246073   3.489   6.387   0.731  0.1952  0.0119 -0.9381
 7293TIP3    H146074   3.429   6.444   0.779  1.0772 -0.6828  1.1136
 7293TIP3    H246075   3.566   6.381   0.787  0.9348 -1.5907 -2.0442
 7294TIP3   OH246076   0.806   5.661   1.216 -0.5275 -0.0107  0.2120
 7294TIP3    H146077   0.845   5.626   1.136  4.2174  0.0898  2.1146
 7294TIP3    H246078   0.828   5.754   1.215  1.4869 -0.3451  2.3208
 7295TIP3   OH246079   0.248   3.362   0.765  0.6921  0.4638 -0.1261
 7295TIP3    H146080   0.336   3.373   0.802  0.5242 -0.0045  0.4215
 7295TIP3    H246081   0.233   3.443   0.716  0.9925  1.0315  0.6965
 7296TIP3   OH246082   6.330   6.147   0.605  0.8884  0.3257  0.6323
 7296TIP3    H146083   6.415   6.102   0.604 -0.6495 -2.8822  1.5052
 7296TIP3    H246084   6.300   6.143   0.514  1.4393  1.1315  0.3966
 7297TIP3   OH246085   0.020   3.796   1.826 -0.6454  0.4241 -0.0755
 7297TIP3    H146086  -0.052   3.786   1.764 -0.2058  1.2116 -0.7326
 7297TIP3    H246087  -0.007   3.867   1.883 -1.1739 -0.4856  0.8429
 7298TIP3   OH246088   5.164   4.590   2.267  0.2774  0.4289 -0.0076
 7298TIP3    H146089   5.154   4.556   2.178  1.0675 -0.5597  0.2644
 7298TIP3    H246090   5.077   4.624   2.289  0.4288  2.0316 -1.6681
 7299TIP3   OH246091   7.668   3.979   1.519 -0.2274 -0.3134 -0.0264
 7299TIP3    H146092   7.578   3.999   1.546 -0.0797  0.4957 -0.1043
 7299TIP3    H246093   7.688   4.044   1.451 -0.1251 -1.4710 -1.1503
 7300TIP3   OH246094   7.295   4.265   2.181 -0.7402  0.1503  0.5755
 7300TIP3    H146095   7.277   4.202   2.251  0.8113 -0.3842  0.5247
 7300TIP3    H246096   7.294   4.213   2.101 -0.6598  0.4124  0.4037
 7301TIP3   OH246097   5.769   6.064   2.721  0.0844  0.0123 -0.6830
 7301TIP3    H146098   5.742   6.149   2.757  3.3403  1.4896 -1.3204
 7301TIP3    H246099   5.709   6.048   2.649 -1.3463  1.1611  0.1871
 7302TIP3   OH246100   0.875   1.255   1.915  1.1149 -0.3250  0.2538
 7302TIP3    H146101   0.781   1.250   1.929  1.1866 -0.8579  0.5905
 7302TIP3    H246102   0.904   1.164   1.916  1.2731 -0.4003 -2.4942
 7303TIP3   OH246103   0.621   4.308   0.694 -0.4013  0.0471  0.2807
 7303TIP3    H146104   0.701   4.286   0.645  1.0516  1.2497  1.9568
 7303TIP3    H246105   0.640   4.279   0.783 -2.1254 -0.1907  0.5878
 7304TIP3   OH246106   2.222   5.982   3.158 -0.1837  0.4547 -0.1235
 7304TIP3    H146107   2.292   5.937   3.205  0.2767  1.3772  0.1013
 7304TIP3    H246108   2.174   5.913   3.113  0.2198 -0.2997  0.5887
 7305TIP3   OH246109   3.593   6.937   2.928  0.3293  0.2019  0.4588
 7305TIP3    H146110   3.504   6.958   2.956 -0.3109 -0.2420 -1.1395
 7305TIP3    H246111   3.634   7.022   2.914 -0.8981  0.4954 -1.8680
 7306TIP3   OH246112   5.911   5.468   1.698 -0.3037  0.1063  0.3164
 7306TIP3    H146113   5.982   5.509   1.649 -0.1949  1.3042  1.4329
 7306TIP3    H246114   5.877   5.401   1.639  1.4908 -0.2321 -0.3859
 7307TIP3   OH246115   6.095   2.428   2.072 -0.3789  0.2292 -0.5479
 7307TIP3    H146116   6.006   2.402   2.051 -0.5771  0.8176 -0.4620
 7307TIP3    H246117   6.127   2.473   1.994 -0.4051  0.6313 -0.3316
 7308TIP3   OH246118   4.793   5.181   1.017  0.4862  0.5709 -0.2344
 7308TIP3    H146119   4.770   5.232   1.094 -3.1689 -0.8149 -0.2031
 7308TIP3    H246120   4.830   5.100   1.052 -0.0768  0.4289  0.0505
 7309TIP3   OH246121   3.530   2.809   3.287  0.1938  0.4256  0.2885
 7309TIP3    H146122   3.573   2.875   3.231 -0.7643 -0.4399 -1.5503
 7309TIP3    H246123   3.583   2.730   3.276  0.0510  0.2659  0.7208
 7310TIP3   OH246124   4.961   4.994   2.088  0.5110 -0.4530 -0.3981
 7310TIP3    H146125   4.895   4.979   2.157  0.1331 -0.1206 -0.6831
 7310TIP3    H246126   5.045   4.983   2.133  0.2730  0.0573  0.1889
 7311TIP3   OH246127   0.620   5.344   2.937 -0.2172 -0.9376  0.2964
 7311TIP3    H146128   0.701   5.363   2.888  0.2512 -0.7117  1.1465
 7311TIP3    H246129   0.550   5.377   2.880  0.3499 -0.1923  0.0086
 7312TIP3   OH246130   5.932   5.724   1.392  0.1040 -0.2404 -0.4835
 7312TIP3    H146131   5.843   5.716   1.424 -0.0924  1.3731 -0.5643
 7312TIP3    H246132   5.925   5.713   1.297 -0.3011  1.7424 -0.7093
 7313TIP3   OH246133   5.388   2.582   0.746 -0.4094  0.5460  1.3088
 7313TIP3    H146134   5.456   2.648   0.761 -1.1450  1.6874 -0.1521
 7313TIP3    H246135   5.311   2.618   0.790 -1.3347  1.6744 -1.1049
 7314TIP3   OH246136   7.220   1.055   0.865 -0.5208  0.4547 -0.2196
 7314TIP3    H146137   7.237   0.961   0.876 -2.5702 -0.1986 -1.9689
 7314TIP3    H246138   7.180   1.062   0.778 -0.6113  2.9511 -0.0465
 7315TIP3   OH246139   4.023   5.493   2.594 -0.3753 -0.1606  0.5320
 7315TIP3    H146140   4.117   5.501   2.610 -0.4771  1.6238  0.3910
 7315TIP3    H246141   3.987   5.461   2.677  0.4310 -1.7938  0.2993
 7316TIP3   OH246142   6.800   6.738   0.985 -0.4132 -0.3664  0.3244
 7316TIP3    H146143   6.848   6.746   0.903 -0.7410  0.6268  0.2166
 7316TIP3    H246144   6.854   6.681   1.039  1.0871  1.0232  0.3503
 7317TIP3   OH246145   5.873   6.262   1.709  0.1681 -0.2178  0.4198
 7317TIP3    H146146   5.837   6.348   1.731  1.8264  0.4790  0.5772
 7317TIP3    H246147   5.844   6.206   1.780  0.3496  0.5897  1.1562
 7318TIP3   OH246148   2.127   1.219   2.229 -0.0089 -0.1301 -0.3257
 7318TIP3    H146149   2.145   1.235   2.321 -0.1272  0.3215 -0.3788
 7318TIP3    H246150   2.032   1.225   2.221  0.0129  0.0080 -0.5067
 7319TIP3   OH246151   0.462   1.070   2.530 -0.1915  0.2131 -0.2213
 7319TIP3    H146152   0.539   1.108   2.574 -1.0343  0.7479  0.8328
 7319TIP3    H246153   0.492   0.985   2.499  0.3867 -0.2837  1.5869
 7320TIP3   OH246154   5.672   5.791   1.789  0.3278 -0.3137 -0.2985
 7320TIP3    H146155   5.611   5.855   1.754  0.4187 -0.1236 -0.1161
 7320TIP3    H246156   5.670   5.718   1.727  0.7568  0.1642 -0.8873
 7321TIP3   OH246157   6.941   2.963   0.562  0.3802  0.7968  0.4917
 7321TIP3    H146158   6.895   2.965   0.477 -0.8448 -0.9678  1.0481
 7321TIP3    H246159   6.919   3.046   0.603  0.8701  1.6199 -0.8420
 7322TIP3   OH246160   4.764   0.085   0.916  0.0293 -0.2653 -0.3697
 7322TIP3    H146161   4.715   0.034   0.851 -0.8779  0.1062  0.0089
 7322TIP3    H246162   4.710   0.081   0.995  0.7923 -0.1480  0.1674
 7323TIP3   OH246163   3.353   4.394   2.665 -0.7101 -0.3068 -0.3171
 7323TIP3    H146164   3.310   4.311   2.685 -0.6465 -0.1252  0.5726
 7323TIP3    H246165   3.408   4.412   2.741 -0.5387  0.4364 -0.6078
 7324TIP3   OH246166   0.103   6.369   1.014  0.1845 -0.5993 -0.1873
 7324TIP3    H146167   0.013   6.390   0.990  0.1985 -0.3868 -0.0465
 7324TIP3    H246168   0.098   6.282   1.054  0.0237 -0.5257 -0.0504
 7325TIP3   OH246169   0.280   5.323   0.507 -0.4375  0.4049  0.0705
 7325TIP3    H146170   0.339   5.396   0.486  0.4688  0.1120  1.4765
 7325TIP3    H246171   0.193   5.363   0.511  0.0163  1.3881  0.6567
 7326TIP3   OH246172   6.656   7.132   1.580 -0.2124  0.0414 -0.2194
 7326TIP3    H146173   6.619   7.177   1.656 -0.6325 -0.0211 -0.3814
 7326TIP3    H246174   6.692   7.203   1.526 -1.1122  0.2286 -0.6039
 7327TIP3   OH246175   5.630   4.044   2.067 -0.1445  0.3042  0.2171
 7327TIP3    H146176   5.583   3.991   2.132  1.0315  0.1109  0.9271
 7327TIP3    H246177   5.713   4.066   2.109  2.4886 -3.1450 -2.5603
 7328TIP3   OH246178   3.321   2.982   0.799  0.1149  0.5017 -0.0619
 7328TIP3    H146179   3.302   3.028   0.881  1.8047  2.3867 -0.6478
 7328TIP3    H246180   3.252   3.010   0.739 -0.2254  0.3621  0.2583
 7329TIP3   OH246181   2.443   2.303   3.233  0.1569 -0.0523 -0.6761
 7329TIP3    H146182   2.469   2.238   3.298 -3.4047 -1.1554 -0.1144
 7329TIP3    H246183   2.513   2.369   3.234  0.8950 -0.6681  3.3635
 7330TIP3   OH246184   3.571   1.284   2.428 -0.3557 -0.1440  0.6014
 7330TIP3    H146185   3.479   1.262   2.411 -0.5418  0.7314  0.4048
 7330TIP3    H246186   3.567   1.340   2.506 -0.0793  0.5528  0.1292
 7331TIP3   OH246187   1.551   5.354   3.253 -0.1159  0.6260  0.1923
 7331TIP3    H146188   1.481   5.391   3.199 -2.2782  1.0817  3.0470
 7331TIP3    H246189   1.627   5.407   3.233 -0.5475  0.2632 -2.8909
 7332TIP3   OH246190   4.420   1.811   2.395  0.2697 -0.6334  0.6317
 7332TIP3    H146191   4.450   1.721   2.385  0.7533 -0.6085  1.7704
 7332TIP3    H246192   4.478   1.850   2.460 -0.2663  0.3489  0.5548
 7333TIP3   OH246193   5.370   0.579   0.688 -0.2909 -0.4210  0.1866
 7333TIP3    H146194   5.313   0.645   0.648  1.0764  0.6005 -0.1431
 7333TIP3    H246195   5.396   0.617   0.772  0.6681 -0.4236 -0.0963
 7334TIP3   OH246196   4.134   4.520   2.312 -0.0835 -0.3924  0.2353
 7334TIP3    H146197   4.187   4.493   2.236  3.0999  0.0004  2.1239
 7334TIP3    H246198   4.083   4.595   2.280 -0.0822 -1.2265 -1.9042
 7335TIP3   OH246199   7.011   7.248   0.542 -0.4685  0.2131  0.5505
 7335TIP3    H146200   6.992   7.156   0.562 -0.8613  0.5961  2.1153
 7335TIP3    H246201   6.925   7.291   0.544 -0.3482  0.5448 -0.6473
 7336TIP3   OH246202   6.473   3.348   2.715  0.0333 -0.3045  0.1879
 7336TIP3    H146203   6.545   3.381   2.769 -2.0736 -0.6799  3.4810
 7336TIP3    H246204   6.515   3.289   2.652  2.7478  0.8784  0.7526
 7337TIP3   OH246205   6.888   4.245   1.089  0.5334 -0.3954  0.0687
 7337TIP3    H146206   6.891   4.284   1.176 -1.9594 -0.0589  0.0839
 7337TIP3    H246207   6.883   4.320   1.029  1.1403 -0.6466 -0.3117
 7338TIP3   OH246208   2.940   0.938   1.412  0.5051  0.5513  0.4405
 7338TIP3    H146209   2.965   1.017   1.459  0.7680  0.5573  0.2953
 7338TIP3    H246210   2.928   0.967   1.322  1.6437  0.2467  0.1643
 7339TIP3   OH246211   2.734   6.148   1.256  0.0816 -0.7049  0.0873
 7339TIP3    H146212   2.653   6.144   1.306 -0.4551  0.8212 -0.5897
 7339TIP3    H246213   2.796   6.095   1.306 -1.1728 -1.4447  0.9099
 7340TIP3   OH246214   4.427   5.349   1.730  0.2735  0.4989  0.1284
 7340TIP3    H146215   4.422   5.387   1.818  0.2973 -0.1151  0.4040
 7340TIP3    H246216   4.477   5.267   1.742  1.2224  0.9380 -0.6407
 7341TIP3   OH246217   0.183   0.217   0.452 -0.1951 -0.1650 -0.5005
 7341TIP3    H146218   0.129   0.259   0.519 -1.1672 -1.0776 -0.6849
 7341TIP3    H246219   0.243   0.286   0.423 -0.1943  0.4255  0.8289
 7342TIP3   OH246220   5.161   2.660   0.841  0.0540 -0.4896 -0.0166
 7342TIP3    H146221   5.099   2.613   0.787  0.5071  0.2742 -1.2468
 7342TIP3    H246222   5.116   2.742   0.865 -0.8650 -1.6074  2.4011
 7343TIP3   OH246223   7.609   5.354   2.514 -0.1529 -0.0725  0.8462
 7343TIP3    H146224   7.627   5.344   2.607 -1.7909  0.6315  1.2827
 7343TIP3    H246225   7.535   5.296   2.497 -0.6172  0.6554  0.2607
 7344TIP3   OH246226   6.646   3.274   0.934 -0.1165  0.1707  0.2065
 7344TIP3    H146227   6.626   3.222   1.012  0.4524 -1.1647 -0.5057
 7344TIP3    H246228   6.728   3.318   0.956  0.2043 -0.4379  0.2791
 7345TIP3   OH246229   7.115   3.994   0.793  0.1651 -0.1936  0.5837
 7345TIP3    H146230   7.074   3.983   0.879  1.1281 -1.9516  0.8565
 7345TIP3    H246231   7.068   3.933   0.736  0.6204 -0.2370  0.2536
 7346TIP3   OH246232   1.333   4.316   2.216 -0.6294 -0.4526 -0.7010
 7346TIP3    H146233   1.363   4.235   2.175 -0.9533 -0.6709 -0.5101
 7346TIP3    H246234   1.301   4.370   2.144 -0.9505 -0.7277 -0.7673
 7347TIP3   OH246235   6.879   3.363   1.037  0.0880  0.0962 -0.3796
 7347TIP3    H146236   6.972   3.342   1.025 -0.2381 -1.7010 -0.1841
 7347TIP3    H246237   6.878   3.422   1.112  0.9669 -1.9913  1.4284
 7348TIP3   OH246238   1.110   6.696   3.021  0.1812 -0.1037  0.3670
 7348TIP3    H146239   1.099   6.638   3.096 -1.0875 -0.1903  0.1381
 7348TIP3    H246240   1.142   6.638   2.951  0.3901 -0.2172  0.5531
 7349TIP3   OH246241   2.618   4.204   1.273 -0.0736  0.1311 -0.5610
 7349TIP3    H146242   2.600   4.137   1.339  0.5483 -0.9160 -1.4222
 7349TIP3    H246243   2.693   4.170   1.225  1.2934  2.1809 -0.0183
 7350TIP3   OH246244   5.843   6.095   1.495  0.1571 -1.0423 -0.2245
 7350TIP3    H146245   5.854   6.158   1.567  1.6893 -0.8899 -0.5616
 7350TIP3    H246246   5.867   6.144   1.417 -0.8234 -1.4116 -0.7723
 7351TIP3   OH246247   4.297   6.952   1.834 -0.6499  0.3794  0.8876
 7351TIP3    H146248   4.272   6.869   1.874 -1.2674  0.2955  0.3591
 7351TIP3    H246249   4.380   6.934   1.790  0.4483  0.6908  2.7716
 7352TIP3   OH246250   1.000   7.100   2.163 -0.2839  0.5510 -0.0823
 7352TIP3    H146251   1.069   7.037   2.184 -0.1832 -0.5910 -3.2903
 7352TIP3    H246252   0.923   7.046   2.143 -1.0364  1.6113 -0.1646
 7353TIP3   OH246253   5.098   1.078   1.409  0.2549 -0.6848  0.4917
 7353TIP3    H146254   5.129   0.995   1.374  0.9197  0.2625 -1.2797
 7353TIP3    H246255   5.172   1.111   1.460  1.0621  0.0840 -1.1102
 7354TIP3   OH246256   5.729   7.615   0.649 -0.1964  0.0748  0.0214
 7354TIP3    H146257   5.739   7.597   0.742 -0.5860 -1.2591 -0.1756
 7354TIP3    H246258   5.757   7.534   0.605  2.1539  1.4032 -1.1570
 7355TIP3   OH246259   3.355   5.684   0.372  0.0932  0.4805 -0.0806
 7355TIP3    H146260   3.400   5.601   0.360  1.2438  0.8200  1.4710
 7355TIP3    H246261   3.368   5.731   0.290 -0.8031 -0.9412 -1.0777
 7356TIP3   OH246262   6.764   5.284   1.562 -0.3545  0.1694  0.3785
 7356TIP3    H146263   6.838   5.345   1.562 -1.9298  2.2013  1.8613
 7356TIP3    H246264   6.774   5.233   1.642 -1.1620  1.2806  1.2099
 7357TIP3   OH246265   1.168   1.857   1.832  0.0763 -0.3433  0.0295
 7357TIP3    H146266   1.192   1.797   1.902 -0.5430  0.3659  0.8594
 7357TIP3    H246267   1.130   1.801   1.764  3.1311 -1.4167 -0.9842
 7358TIP3   OH246268   1.510   2.558   3.046  0.3393  0.2859  0.0380
 7358TIP3    H146269   1.447   2.526   3.110  1.3415 -0.3118  0.7506
 7358TIP3    H246270   1.580   2.598   3.098  1.5875 -0.9603 -0.5913
 7359TIP3   OH246271   2.271   4.393   2.002 -0.4341  0.4421 -0.0332
 7359TIP3    H146272   2.217   4.315   2.009  0.6687 -0.3200  0.3401
 7359TIP3    H246273   2.319   4.397   2.084  0.3244  0.8937 -0.4804
 7360TIP3   OH246274   0.275   6.975   0.505 -0.1131  0.4069  0.5909
 7360TIP3    H146275   0.258   7.042   0.572 -1.3458  1.9585 -1.1631
 7360TIP3    H246276   0.359   7.002   0.467  0.1265  0.0636  0.8680
 7361TIP3   OH246277   5.426   5.698   0.525 -0.4421  0.2192  0.4844
 7361TIP3    H146278   5.428   5.604   0.507 -0.4680  0.3712 -0.3509
 7361TIP3    H246279   5.357   5.709   0.591 -1.4903 -0.1631 -0.5222
 7362TIP3   OH246280   1.274   6.759   1.278 -0.0022  0.3282  0.3553
 7362TIP3    H146281   1.306   6.799   1.359 -0.3131  0.7922  0.2551
 7362TIP3    H246282   1.321   6.805   1.208 -0.2073  0.3793  0.2482
 7363TIP3   OH246283   0.464   5.749   1.815 -0.1259  0.3753 -0.7841
 7363TIP3    H146284   0.488   5.671   1.764  0.0794 -0.6187  0.7922
 7363TIP3    H246285   0.520   5.819   1.780  0.8717 -0.5594 -1.0960
 7364TIP3   OH246286   0.862   7.242   1.065 -0.0928 -0.2417 -0.1960
 7364TIP3    H146287   0.919   7.183   1.015 -0.9485 -0.4016 -1.0196
 7364TIP3    H246288   0.834   7.191   1.141 -0.5493 -0.7861 -0.7223
 7365TIP3   OH246289   2.042   2.945   0.723  0.6513  0.1299  0.3911
 7365TIP3    H146290   2.039   3.005   0.797  0.1866  1.1997 -0.4779
 7365TIP3    H246291   2.011   2.996   0.649  1.6183 -0.7541 -0.6631
 7366TIP3   OH246292   6.188   5.312   2.177  0.5197  0.3864  0.2384
 7366TIP3    H146293   6.178   5.312   2.082  1.3390 -1.6342  0.0955
 7366TIP3    H246294   6.180   5.404   2.202  4.8199  1.7850 -2.3427
 7367TIP3   OH246295   7.504   4.939   2.674  0.7396 -0.1130  0.9521
 7367TIP3    H146296   7.526   4.929   2.581  1.2646 -0.3755  1.1028
 7367TIP3    H246297   7.430   4.999   2.674 -0.0842 -1.0946  0.2728
 7368TIP3   OH246298   1.384   1.103   1.389  0.0472 -0.1767 -0.3316
 7368TIP3    H146299   1.350   1.109   1.300 -0.2040  0.0282 -0.2251
 7368TIP3    H246300   1.307   1.117   1.445  0.3042  0.2965 -0.0868
 7369TIP3   OH246301   7.241   5.580   1.959 -0.3124  0.5277  0.5737
 7369TIP3    H146302   7.276   5.593   1.871  0.1313  0.8389  0.7928
 7369TIP3    H246303   7.162   5.634   1.961  0.0599  1.0847  0.5922
 7370TIP3   OH246304   3.827   4.511   0.848  0.5494  0.8341 -0.1197
 7370TIP3    H146305   3.804   4.604   0.847 -0.0186  0.6952 -1.3059
 7370TIP3    H246306   3.917   4.508   0.814  0.7243  0.9760  0.3199
 7371TIP3   OH246307   1.533   5.559   1.567  0.5053 -0.6777 -0.5681
 7371TIP3    H146308   1.526   5.616   1.491  1.1603  2.8098  1.7372
 7371TIP3    H246309   1.625   5.532   1.569  0.8944  0.6042 -0.1793
 7372TIP3   OH246310   6.853   6.148   2.660  0.0175  0.0361 -0.1971
 7372TIP3    H146311   6.938   6.190   2.676  0.2371 -0.1857 -0.7711
 7372TIP3    H246312   6.804   6.213   2.610 -0.0075  0.0060 -0.2120
 7373TIP3   OH246313   0.277   5.956   0.706  0.4018 -0.7580  0.2205
 7373TIP3    H146314   0.332   5.901   0.650  0.9092 -1.4025  1.3219
 7373TIP3    H246315   0.274   6.040   0.660  2.5056 -0.6289  0.2214
 7374TIP3   OH246316   7.001   3.852   0.580  0.3111  0.2520 -0.1833
 7374TIP3    H146317   6.963   3.764   0.581  0.6332  0.1071 -0.4135
 7374TIP3    H246318   7.038   3.862   0.492  0.3818  0.5724 -0.1213
 7375TIP3   OH246319   3.677   3.835   1.431  0.3716 -0.3331 -0.0995
 7375TIP3    H146320   3.709   3.837   1.522  0.6700 -0.7930 -0.1891
 7375TIP3    H246321   3.602   3.776   1.434 -0.5242  0.7819  0.1187
 7376TIP3   OH246322   3.122   6.936   1.580 -0.0984 -0.2725  0.8130
 7376TIP3    H146323   3.184   7.004   1.606  0.3304 -0.4037  0.1639
 7376TIP3    H246324   3.045   6.951   1.635 -0.5247  1.5486 -0.2001
 7377TIP3   OH246325   1.548   3.642   1.601 -0.3219 -0.3580 -0.1664
 7377TIP3    H146326   1.568   3.550   1.621  2.5110  0.2714  0.3027
 7377TIP3    H246327   1.546   3.685   1.686  0.4809  0.3632 -0.4976
 7378TIP3   OH246328   2.764   5.173   1.893 -0.5690  0.0926  0.1074
 7378TIP3    H146329   2.845   5.148   1.938 -1.1429  0.9625  1.6995
 7378TIP3    H246330   2.751   5.105   1.828  0.9260 -0.5866  0.4736
 7379TIP3   OH246331   3.925   3.927   2.064 -0.1261 -0.0959  0.3952
 7379TIP3    H146332   3.879   4.011   2.069  0.4448  0.1709  1.3775
 7379TIP3    H246333   3.891   3.878   2.139 -0.8869 -0.9712 -0.5051
 7380TIP3   OH246334   4.084   4.495   1.791  0.3066  0.0090 -0.1097
 7380TIP3    H146335   4.114   4.536   1.710  2.3460 -0.7368  0.2006
 7380TIP3    H246336   4.106   4.559   1.859  1.5492 -0.6603  0.1511
 7381TIP3   OH246337   4.050   7.335   1.937 -0.2313  0.0275 -0.2935
 7381TIP3    H146338   3.987   7.405   1.955  1.0895  1.0794  0.4748
 7381TIP3    H246339   4.052   7.329   1.841 -0.5830  0.8551 -0.3648
 7382TIP3   OH246340   7.307   3.783   3.350  0.5539  0.0603  0.1936
 7382TIP3    H146341   7.216   3.780   3.380  0.2941 -2.1668 -0.6259
 7382TIP3    H246342   7.331   3.691   3.336  2.7372  0.6285 -0.2241
 7383TIP3   OH246343   7.124   6.004   1.460 -0.0237  0.2056 -0.1114
 7383TIP3    H146344   7.053   6.022   1.398 -0.5648 -0.8439  0.1779
 7383TIP3    H246345   7.121   6.077   1.521 -1.2054 -0.0617  0.1874
 7384TIP3   OH246346   5.921   3.179   1.772  0.0255 -0.2172  0.5098
 7384TIP3    H146347   5.863   3.193   1.697 -0.3558  0.7063  0.9609
 7384TIP3    H246348   5.969   3.261   1.781 -0.2493 -0.1603  1.5418
 7385TIP3   OH246349   0.860   2.780   2.454  0.3608 -0.4500 -0.1083
 7385TIP3    H146350   0.908   2.806   2.532  0.9014  0.7614 -0.8160
 7385TIP3    H246351   0.915   2.712   2.414 -0.6759 -2.2228  1.3374
 7386TIP3   OH246352   6.623   4.508   2.893 -0.0789 -0.0423  0.5868
 7386TIP3    H146353   6.584   4.561   2.824  0.1723  1.7831  1.7712
 7386TIP3    H246354   6.714   4.539   2.898  0.5020 -1.6095  0.3720
 7387TIP3   OH246355   6.820   4.034   2.495 -0.0710  0.1370  0.3529
 7387TIP3    H146356   6.906   4.032   2.538 -0.4510  1.3726  1.2291
 7387TIP3    H246357   6.825   4.107   2.434 -0.3399 -0.0832  0.0652
 7388TIP3   OH246358   4.996   5.883   0.842  0.1152  0.3456 -0.4636
 7388TIP3    H146359   4.949   5.885   0.925  0.8235  1.9033 -0.0545
 7388TIP3    H246360   4.934   5.920   0.779  1.2927  4.2941  0.4421
 7389TIP3   OH246361   4.041   0.713   1.260 -0.1847  1.0076  0.0367
 7389TIP3    H146362   4.002   0.774   1.323 -0.1054  1.4672 -0.3531
 7389TIP3    H246363   4.059   0.767   1.183  1.3066  0.8419  0.2320
 7390TIP3   OH246364   2.494   3.357   2.918 -0.1397 -0.3416 -0.6185
 7390TIP3    H146365   2.471   3.371   3.010 -1.2568  1.6072 -1.1427
 7390TIP3    H246366   2.584   3.325   2.920  0.7364  1.9804  1.0863
 7391TIP3   OH246367   0.740   2.431   1.937  0.3791  0.0828 -0.0405
 7391TIP3    H146368   0.763   2.372   1.865 -0.8283 -0.0388 -0.3537
 7391TIP3    H246369   0.815   2.428   1.996  1.4207  0.2082 -1.3033
 7392TIP3   OH246370   3.116   1.851   0.922 -0.6363  0.4581  0.1874
 7392TIP3    H146371   3.131   1.934   0.966  1.0154 -0.5218  1.6038
 7392TIP3    H246372   3.045   1.809   0.971 -0.6110  0.5048  0.2636
 7393TIP3   OH246373   0.402   3.345   2.358 -0.8073 -0.0498  0.5730
 7393TIP3    H146374   0.446   3.288   2.295 -2.6007 -1.6597  0.6913
 7393TIP3    H246375   0.451   3.333   2.439 -0.5193 -0.5828  0.3256
 7394TIP3   OH246376   7.549   6.361   2.162 -0.4927 -0.0366 -0.1433
 7394TIP3    H146377   7.524   6.385   2.251 -1.5745  2.3733 -1.0108
 7394TIP3    H246378   7.466   6.347   2.117  0.0327 -0.8915 -0.8615
 7395TIP3   OH246379   3.009   3.589   0.903  0.0746 -0.5906 -0.2349
 7395TIP3    H146380   3.039   3.619   0.818 -1.3936 -0.1699 -0.6294
 7395TIP3    H246381   2.927   3.543   0.885 -1.8018  1.9592  1.2104
 7396TIP3   OH246382   2.980   5.851   1.191 -0.5017  0.1004 -0.3357
 7396TIP3    H146383   2.900   5.801   1.206 -1.2343  1.1382 -0.6809
 7396TIP3    H246384   3.045   5.810   1.248 -1.0951 -1.1872 -0.5629
 7397TIP3   OH246385   6.782   4.664   1.882 -0.7778  0.3937  0.0589
 7397TIP3    H146386   6.749   4.687   1.968 -0.2308  0.3574  0.2836
 7397TIP3    H246387   6.772   4.569   1.876 -0.3996  0.3379  0.2662
 7398TIP3   OH246388   0.974   0.525   2.619  0.3004 -0.6180 -0.1879
 7398TIP3    H146389   0.978   0.446   2.566 -0.0746  0.5467 -2.0270
 7398TIP3    H246390   1.059   0.567   2.607  0.0385 -0.0988 -0.2950
 7399TIP3   OH246391   1.864   1.236   2.306  0.8220 -0.1052 -0.4483
 7399TIP3    H146392   1.826   1.203   2.387 -1.4046  0.3503 -1.2254
 7399TIP3    H246393   1.860   1.331   2.314 -0.6243 -0.0418 -1.5657
 7400TIP3   OH246394   5.161   4.932   2.426 -0.1453 -0.1085 -0.1342
 7400TIP3    H146395   5.205   4.946   2.343  0.2301 -1.9556 -0.2969
 7400TIP3    H246396   5.067   4.940   2.407 -0.0838 -0.9849 -0.8615
 7401TIP3   OH246397   5.071   7.040   1.621  0.5559  0.2381  0.5211
 7401TIP3    H146398   4.999   7.066   1.563  1.6059 -0.2486 -1.0589
 7401TIP3    H246399   5.032   7.039   1.709 -1.2972  0.2088 -0.2623
 7402TIP3   OH246400   3.472   1.822   0.669  0.0778 -0.0273 -0.4118
 7402TIP3    H146401   3.505   1.843   0.582  1.0229 -0.2592 -0.1268
 7402TIP3    H246402   3.537   1.860   0.729 -1.2285  1.2692  0.2309
 7403TIP3   OH246403   4.332   6.524   2.578  0.0922 -0.8312 -0.5270
 7403TIP3    H146404   4.395   6.553   2.511  0.3692 -0.0139  0.0712
 7403TIP3    H246405   4.263   6.480   2.528  1.2458 -1.9553 -1.1837
 7404TIP3   OH246406   3.731   3.947   1.180  0.2586  0.3807  0.0138
 7404TIP3    H146407   3.788   3.886   1.134 -0.5004  0.4153 -0.9877
 7404TIP3    H246408   3.718   3.906   1.266  0.9446 -0.1345 -0.1180
 7405TIP3   OH246409   6.058   1.302   2.091  0.0461 -0.2348  0.3682
 7405TIP3    H146410   6.015   1.285   2.175 -1.0676 -1.0181 -0.3387
 7405TIP3    H246411   6.085   1.394   2.096  0.0281 -0.2762  1.5801
 7406TIP3   OH246412   1.748   1.061   3.228  0.3543 -0.1008  0.0388
 7406TIP3    H146413   1.761   1.136   3.285 -0.4561 -0.9214  1.3696
 7406TIP3    H246414   1.836   1.036   3.200  0.7065  0.7180  0.3979
 7407TIP3   OH246415   2.756   7.048   0.522 -0.2976 -0.2478  0.5698
 7407TIP3    H146416   2.733   6.957   0.502  0.8816 -0.2956 -0.7075
 7407TIP3    H246417   2.847   7.056   0.494 -0.7181  1.6369 -0.4006
 7408TIP3   OH246418   0.201   3.984   1.698 -0.0859  0.0335 -0.3532
 7408TIP3    H146419   0.118   3.956   1.661 -0.8190 -0.6830  1.7217
 7408TIP3    H246420   0.188   4.076   1.720  0.4252  0.5286 -1.9181
 7409TIP3   OH246421   6.541   1.821   0.935  0.3060 -0.5358 -0.1465
 7409TIP3    H146422   6.561   1.730   0.954  0.0109 -1.2197 -2.7116
 7409TIP3    H246423   6.624   1.858   0.905  0.2107 -0.2322 -0.0376
 7410TIP3   OH246424   3.987   7.513   0.914 -0.5324  0.0094  0.3427
 7410TIP3    H146425   4.045   7.460   0.859  1.4039  2.5950 -0.2937
 7410TIP3    H246426   3.997   7.476   1.001  3.5498  1.2809  0.6264
 7411TIP3   OH246427   5.399   4.711   2.351 -0.0896 -0.2146  0.0207
 7411TIP3    H146428   5.312   4.745   2.329  0.3654  0.4536 -0.7730
 7411TIP3    H246429   5.399   4.622   2.314 -0.1335  0.0936 -0.7480
 7412TIP3   OH246430   3.723   4.178   2.073  0.1644 -0.2838  0.2269
 7412TIP3    H146431   3.664   4.154   2.144 -0.3304 -2.4178 -0.8142
 7412TIP3    H246432   3.793   4.227   2.116 -0.3486 -1.0974  2.1161
 7413TIP3   OH246433   6.238   1.054   3.127 -0.1318  0.3349 -0.0618
 7413TIP3    H146434   6.244   1.116   3.199  1.8648  0.9035 -0.6413
 7413TIP3    H246435   6.214   1.108   3.051 -0.0271  0.1270 -0.2442
 7414TIP3   OH246436   6.248   4.953   1.074  0.4199  0.2890  0.4681
 7414TIP3    H146437   6.291   5.004   1.005  0.3559  1.5501  1.3186
 7414TIP3    H246438   6.315   4.944   1.142  0.4738 -0.9217  0.2826
 7415TIP3   OH246439   4.214   4.084   0.599 -0.2865  0.1905 -0.2026
 7415TIP3    H146440   4.244   4.165   0.640 -1.3713  1.3743 -1.6424
 7415TIP3    H246441   4.127   4.105   0.565 -0.4081 -1.4537 -0.9967
 7416TIP3   OH246442   4.857   5.639   1.312  0.8036 -0.2771  0.3920
 7416TIP3    H146443   4.940   5.663   1.271 -0.6707 -0.4792 -3.0495
 7416TIP3    H246444   4.790   5.682   1.259 -1.4831 -3.8673 -0.0116
 7417TIP3   OH246445   0.614   1.125   1.286 -0.1298 -0.0692 -0.1922
 7417TIP3    H146446   0.701   1.149   1.320  0.3750 -0.3192 -1.2576
 7417TIP3    H246447   0.569   1.087   1.362  1.4228 -1.7989 -0.0464
 7418TIP3   OH246448   4.513   5.609   1.299 -0.4852  0.2743 -0.3218
 7418TIP3    H146449   4.538   5.526   1.260 -0.9921 -0.2975  0.5418
 7418TIP3    H246450   4.523   5.596   1.393  1.1062  1.7549 -0.2288
 7419TIP3   OH246451   5.723   3.904   1.260 -0.2156  0.2134 -0.1291
 7419TIP3    H146452   5.629   3.886   1.252  0.0169 -1.0202 -0.3649
 7419TIP3    H246453   5.747   3.864   1.343  0.4584 -1.2089 -0.9759
 7420TIP3   OH246454   4.764   2.239   1.815  0.4648  0.5627 -0.1155
 7420TIP3    H146455   4.827   2.274   1.751  1.3920  0.5271  0.7641
 7420TIP3    H246456   4.779   2.289   1.895 -2.9386  2.9724 -0.7317
 7421TIP3   OH246457   4.854   0.260   2.166 -0.3336 -0.1298  0.2381
 7421TIP3    H146458   4.901   0.208   2.102 -1.6039 -0.7503 -0.2093
 7421TIP3    H246459   4.922   0.291   2.226  0.7436 -0.3048 -0.8626
 7422TIP3   OH246460   5.050   5.284   1.183  0.0230  0.4594  0.6275
 7422TIP3    H146461   5.032   5.232   1.261 -0.2509  0.1380  0.3467
 7422TIP3    H246462   4.967   5.325   1.161 -0.0457  0.0484  0.1294
 7423TIP3   OH246463   1.033   1.099   3.330  0.3070  0.4260 -0.8579
 7423TIP3    H146464   0.951   1.069   3.368  0.3820 -1.1144 -1.8350
 7423TIP3    H246465   1.058   1.031   3.269  3.2612 -0.0891  0.7186
 7424TIP3   OH246466   1.391   2.557   0.815 -0.5621 -0.4768  0.1215
 7424TIP3    H146467   1.429   2.639   0.784  1.7268 -1.1394  1.0161
 7424TIP3    H246468   1.456   2.520   0.875 -2.3375 -2.0527  1.2158
 7425TIP3   OH246469   5.947   6.744   0.608  0.1717  0.2358 -0.3090
 7425TIP3    H146470   5.891   6.766   0.533 -0.3037  1.3400  0.3461
 7425TIP3    H246471   6.033   6.780   0.585 -0.8683  4.2441  1.2725
 7426TIP3   OH246472   4.123   4.895   0.923 -0.0465  0.1852  0.2645
 7426TIP3    H146473   4.107   4.989   0.919  0.0247  0.1635 -0.7949
 7426TIP3    H246474   4.111   4.872   1.016 -1.4178  0.9793  0.3029
 7427TIP3   OH246475   2.618   5.050   2.982  0.3263 -0.1013 -0.3562
 7427TIP3    H146476   2.586   5.117   3.042 -0.4813  0.0962 -0.9763
 7427TIP3    H246477   2.671   5.098   2.918  0.8720 -0.2549 -0.0233
 7428TIP3   OH246478   3.164   5.743   0.541  0.0978 -0.0633  0.7792
 7428TIP3    H146479   3.129   5.660   0.574  0.9709 -1.0618 -0.6856
 7428TIP3    H246480   3.216   5.718   0.464  0.9478  1.7750  0.7146
 7429TIP3   OH246481   5.304   4.399   1.216 -0.0256 -0.0427 -0.2570
 7429TIP3    H146482   5.281   4.468   1.279 -1.2563 -0.1455 -0.5671
 7429TIP3    H246483   5.240   4.409   1.145 -0.3337 -1.5821 -0.2413
 7430TIP3   OH246484   5.564   0.148   2.947  0.3234  0.1074 -0.0587
 7430TIP3    H146485   5.520   0.096   2.879 -3.5439  1.3533  1.2668
 7430TIP3    H246486   5.576   0.086   3.020  1.1879 -0.3067 -0.5251
 7431TIP3   OH246487   1.897   3.801   2.527  0.2513 -0.5713 -0.0380
 7431TIP3    H146488   1.914   3.766   2.440  0.1957 -1.4725  0.3128
 7431TIP3    H246489   1.823   3.750   2.561  2.4723 -2.7111  1.9388
 7432TIP3   OH246490   4.636   6.921   2.550  0.2037  0.4473 -0.9213
 7432TIP3    H146491   4.671   6.970   2.625  1.0562  0.7784 -1.5203
 7432TIP3    H246492   4.580   6.984   2.505 -2.6546 -0.5341  0.9465
 7433TIP3   OH246493   5.662   7.228   1.790  0.0126  0.0765 -0.4645
 7433TIP3    H146494   5.748   7.250   1.752 -0.5007  2.3461 -0.4769
 7433TIP3    H246495   5.617   7.180   1.721  0.9509 -0.3860 -0.7792
 7434TIP3   OH246496   2.362   5.408   3.216  0.1046 -0.0416 -0.7077
 7434TIP3    H146497   2.354   5.481   3.278  0.6669 -0.3782 -0.2332
 7434TIP3    H246498   2.319   5.440   3.137  1.5037  1.3250 -0.9653
 7435TIP3   OH246499   2.902   6.736   2.918  0.0191  0.2013 -0.2470
 7435TIP3    H146500   2.984   6.778   2.942  1.3316 -1.9232 -0.7712
 7435TIP3    H246501   2.861   6.797   2.857  1.2221  1.2840 -0.0121
 7436TIP3   OH246502   4.132   6.984   0.415  0.1985  0.2612  0.3029
 7436TIP3    H146503   4.131   6.892   0.388  1.0338  0.0453  0.9722
 7436TIP3    H246504   4.224   7.005   0.428  0.0353  1.2650 -0.0419
 7437TIP3   OH246505   6.275   7.359   1.738 -0.1268  0.4906 -0.0001
 7437TIP3    H146506   6.273   7.320   1.651  0.1657  0.4834 -0.0033
 7437TIP3    H246507   6.228   7.442   1.728 -1.1397 -0.0470  0.1038
 7438TIP3   OH246508   1.355   3.770   1.087  0.2555 -0.0068 -0.1774
 7438TIP3    H146509   1.305   3.704   1.038  0.7059 -0.9224  0.5654
 7438TIP3    H246510   1.304   3.785   1.166 -0.3037  1.2352 -0.7351
 7439TIP3   OH246511   7.647   2.088   0.748 -1.0752 -0.2344 -0.0316
 7439TIP3    H146512   7.613   2.092   0.659 -3.2988 -1.7805  0.6239
 7439TIP3    H246513   7.584   2.138   0.800 -1.5351 -1.8185  1.0327
 7440TIP3   OH246514   6.365   6.752   3.159  0.1134 -0.2345  0.1503
 7440TIP3    H146515   6.285   6.789   3.197  1.0095  0.5662  1.3429
 7440TIP3    H246516   6.377   6.668   3.204 -0.7327 -0.9706 -0.9629
 7441TIP3   OH246517   6.987   6.587   1.107 -0.4287 -1.1705 -0.2312
 7441TIP3    H146518   7.025   6.573   1.194  0.2498 -2.0787 -0.6658
 7441TIP3    H246519   7.059   6.620   1.054 -0.7557 -0.9484 -0.5403
 7442TIP3   OH246520   7.481   4.776   1.310 -0.2954 -0.1517  0.0443
 7442TIP3    H146521   7.430   4.698   1.334 -0.2357  0.6377  3.1677
 7442TIP3    H246522   7.415   4.837   1.276 -0.5863 -0.9672 -0.9033
 7443TIP3   OH246523   1.723   2.887   2.671  0.5801 -0.1435  0.1957
 7443TIP3    H146524   1.658   2.862   2.736 -0.7512  0.2391 -0.9530
 7443TIP3    H246525   1.700   2.976   2.646  0.8497 -0.3893 -1.0336
 7444TIP3   OH246526   5.005   4.124   2.737  0.2727  0.3850 -0.3803
 7444TIP3    H146527   5.098   4.137   2.756  0.8464 -0.5616 -2.3063
 7444TIP3    H246528   4.985   4.191   2.672 -1.1112  2.2254  1.7758
 7445TIP3   OH246529   4.101   0.628   1.737  0.3371  0.3835 -0.1733
 7445TIP3    H146530   4.043   0.692   1.694 -0.3027 -0.1595 -0.1404
 7445TIP3    H246531   4.046   0.586   1.802  0.2551 -1.3498 -1.2968
 7446TIP3   OH246532   4.722   6.223   2.070  0.2917  0.2076 -0.1151
 7446TIP3    H146533   4.647   6.169   2.097 -0.6539  2.1137  1.2654
 7446TIP3    H246534   4.775   6.230   2.149  0.0021  1.8933 -0.0479
 7447TIP3   OH246535   7.202   6.449   1.028  0.0356 -0.0979  0.0691
 7447TIP3    H146536   7.180   6.404   0.947 -0.0200  1.5988 -0.9184
 7447TIP3    H246537   7.218   6.379   1.091 -1.8998 -1.4603 -0.8498
 7448TIP3   OH246538   4.291   1.766   1.191  0.1698 -0.0206  0.0897
 7448TIP3    H146539   4.217   1.731   1.140  0.8313 -0.6644 -0.4596
 7448TIP3    H246540   4.322   1.691   1.242  1.4799 -0.2217 -0.9413
 7449TIP3   OH246541   0.824   4.226   1.456  0.0555 -0.1379  0.0298
 7449TIP3    H146542   0.797   4.223   1.364  2.1383 -0.2137 -0.6272
 7449TIP3    H246543   0.754   4.181   1.503 -0.1240 -1.8463 -1.7549
 7450TIP3   OH246544   2.959   0.414   1.487  0.2600 -0.3201  0.1784
 7450TIP3    H146545   2.869   0.396   1.460  0.0903  1.9183 -1.0346
 7450TIP3    H246546   2.959   0.508   1.507  2.7755  0.2480 -1.9592
 7451TIP3   OH246547   2.074   2.105   0.998  0.5130  0.8030  0.7499
 7451TIP3    H146548   2.166   2.124   1.019  1.0412  0.0507 -0.7339
 7451TIP3    H246549   2.072   2.010   0.984 -0.2129  0.9864 -0.5106
 7452TIP3   OH246550   2.347   0.821   1.473 -0.5527 -0.0538 -0.2254
 7452TIP3    H146551   2.263   0.866   1.483  0.3288  1.4632  0.8522
 7452TIP3    H246552   2.405   0.888   1.436  0.5493 -0.6088  0.4461
 7453TIP3   OH246553   4.154   4.914   2.143 -0.1125 -0.4185 -0.1454
 7453TIP3    H146554   4.210   4.863   2.202 -0.4226 -0.6151 -0.0198
 7453TIP3    H246555   4.065   4.897   2.174 -0.1408  2.2867  1.6707
 7454TIP3   OH246556   2.349   1.535   2.509 -0.5055 -0.3480 -0.2227
 7454TIP3    H146557   2.287   1.463   2.512  0.4415 -1.2377 -1.2111
 7454TIP3    H246558   2.376   1.541   2.418 -1.8811  2.4640 -0.5475
 7455TIP3   OH246559   1.295   4.219   1.750 -0.0921 -0.9792 -0.0387
 7455TIP3    H146560   1.247   4.253   1.826  0.2035 -0.5188 -0.0475
 7455TIP3    H246561   1.239   4.239   1.675 -0.8125 -2.2627  0.1328
 7456TIP3   OH246562   3.041   2.357   1.272  0.4787  0.1900 -0.3863
 7456TIP3    H146563   2.948   2.340   1.256  0.2934 -0.4245  1.0993
 7456TIP3    H246564   3.059   2.439   1.227 -0.9489  0.6309 -0.2049
 7457TIP3   OH246565   5.376   1.428   1.101  0.9289  0.7060  0.2242
 7457TIP3    H146566   5.399   1.406   1.191 -0.5551 -1.8701  0.0848
 7457TIP3    H246567   5.287   1.393   1.090  1.1547  0.7584 -2.2812
 7458TIP3   OH246568   5.912   7.337   2.701 -0.0478 -0.3093  0.8020
 7458TIP3    H146569   6.005   7.356   2.715  0.3520 -0.2679 -1.4474
 7458TIP3    H246570   5.869   7.422   2.704  0.6347  0.2377 -1.9387
 7459TIP3   OH246571   6.004   0.998   1.039 -0.4696 -0.7920 -0.1122
 7459TIP3    H146572   5.923   0.947   1.040 -0.5714 -0.6478  0.9767
 7459TIP3    H246573   5.975   1.088   1.052 -0.1263 -0.7832  0.6847
 7460TIP3   OH246574   2.095   7.247   1.148  0.5054  0.5959 -0.1113
 7460TIP3    H146575   2.172   7.298   1.174  1.1944 -0.3346 -0.2760
 7460TIP3    H246576   2.051   7.302   1.083  1.2521  0.9705 -0.3138
 7461TIP3   OH246577   7.439   0.905   1.325 -0.1608  0.1602 -0.4436
 7461TIP3    H146578   7.501   0.917   1.397 -1.4741  0.4783  0.6734
 7461TIP3    H246579   7.472   0.963   1.256  0.2117  1.1137  0.5093
 7462TIP3   OH246580   6.030   2.820   1.324 -0.3033 -0.0479  0.2473
 7462TIP3    H146581   5.956   2.763   1.345 -1.4942  1.1237 -0.6196
 7462TIP3    H246582   6.082   2.770   1.261  0.3636 -1.3681  1.7467
 7463TIP3   OH246583   0.594   3.549   1.930  0.3622 -0.5656  0.1785
 7463TIP3    H146584   0.658   3.507   1.873  0.8418 -1.7297  1.5203
 7463TIP3    H246585   0.625   3.639   1.940  0.8473 -0.6523 -0.5234
 7464TIP3   OH246586   6.097   2.426   0.877 -0.0109  0.0603  0.0910
 7464TIP3    H146587   6.149   2.466   0.806 -0.7694  0.1724 -0.4118
 7464TIP3    H246588   6.077   2.338   0.845  0.9454 -0.4493  0.8385
 7465TIP3   OH246589   6.311   2.983   1.184  0.0815 -0.2400  0.1961
 7465TIP3    H146590   6.279   2.896   1.205 -0.1887  0.2604  2.0626
 7465TIP3    H246591   6.236   3.027   1.143 -0.6304 -0.0768  1.6398
 7466TIP3   OH246592   5.308   3.874   2.614 -0.2285 -0.4035 -0.5741
 7466TIP3    H146593   5.400   3.891   2.636 -0.4681  0.4411 -0.1873
 7466TIP3    H246594   5.304   3.881   2.519 -0.1731  1.0481 -0.4823
 7467TIP3   OH246595   2.474   1.683   1.872  0.6000  0.0294  0.5159
 7467TIP3    H146596   2.475   1.754   1.808  0.9624 -1.0310 -0.7033
 7467TIP3    H246597   2.556   1.692   1.919  0.9862 -0.0243 -0.1423
 7468TIP3   OH246598   7.517   6.782   2.294  0.4157 -0.4794  0.7148
 7468TIP3    H146599   7.572   6.704   2.291  0.7725 -0.2171  0.3495
 7468TIP3    H246600   7.541   6.824   2.377 -0.7696 -1.4601  1.5933
 7469TIP3   OH246601   5.755   1.278   2.093  0.1373 -0.5681 -0.3287
 7469TIP3    H146602   5.808   1.330   2.033 -1.8446  0.1056 -1.5917
 7469TIP3    H246603   5.694   1.230   2.037 -1.3318 -0.4460  1.0748
 7470TIP3   OH246604   1.661   0.222   0.838  0.3155 -0.1910  0.0626
 7470TIP3    H146605   1.694   0.297   0.888  1.0516 -1.3496  1.3845
 7470TIP3    H246606   1.566   0.224   0.853  0.2587  0.7975 -0.3829
 7471TIP3   OH246607   2.817   2.541   1.355  0.6073 -0.0668 -0.0815
 7471TIP3    H146608   2.752   2.493   1.407 -0.8135  3.2064  1.5096
 7471TIP3    H246609   2.792   2.526   1.264 -2.8576  1.4384  0.4724
 7472TIP3   OH246610   5.990   4.346   3.317 -0.1489  0.7764  0.2695
 7472TIP3    H146611   6.018   4.405   3.388 -0.2634  0.9176  0.1984
 7472TIP3    H246612   6.024   4.387   3.237 -1.4836  1.5426  0.0634
 7473TIP3   OH246613   7.044   6.334   3.090 -0.6293 -0.4287  1.0584
 7473TIP3    H146614   6.999   6.412   3.060 -1.1407 -1.6120 -1.5460
 7473TIP3    H246615   6.980   6.289   3.145 -1.4265 -0.4527  0.1315
 7474TIP3   OH246616   3.040   2.397   2.131 -0.1112 -0.2901 -0.9777
 7474TIP3    H146617   2.985   2.469   2.097  1.0492  0.7802 -0.6497
 7474TIP3    H246618   3.119   2.440   2.163  1.6016 -1.8966 -2.7438
 7475TIP3   OH246619   6.367   4.770   1.281  0.1554  0.4700 -0.6354
 7475TIP3    H146620   6.408   4.828   1.345  1.5082 -0.8291 -0.2663
 7475TIP3    H246621   6.295   4.729   1.329 -0.6085  1.5540 -0.8071
 7476TIP3   OH246622   5.882   5.512   1.978 -0.1782 -0.0485 -0.1841
 7476TIP3    H146623   5.885   5.484   1.886 -0.5460 -0.7863  0.0246
 7476TIP3    H246624   5.889   5.608   1.974  1.1138 -0.1522 -0.9127
 7477TIP3   OH246625   0.105   6.670   0.950 -0.1622 -0.1969 -0.0496
 7477TIP3    H146626   0.140   6.695   0.864  0.6189 -0.5812  0.1494
 7477TIP3    H246627   0.111   6.575   0.952 -1.0918 -0.2550  0.0517
 7478TIP3   OH246628   1.530   6.603   0.673  0.2443  0.2997 -0.3425
 7478TIP3    H146629   1.623   6.622   0.669  0.1819  0.6283 -0.2253
 7478TIP3    H246630   1.490   6.683   0.707 -0.4213  1.2313 -3.0145
 7479TIP3   OH246631   0.248   6.940   7.673  0.1611  0.1390  0.1299
 7479TIP3    H146632   0.300   6.892   7.609  1.4887  1.6712 -0.0121
 7479TIP3    H246633   0.302   7.015   7.697 -1.8379  1.6563  0.2441
 7480TIP3   OH246634   0.587   1.380   0.992  0.1332 -0.1187  0.1240
 7480TIP3    H146635   0.559   1.356   1.080 -0.0612 -0.7067 -0.0965
 7480TIP3    H246636   0.563   1.306   0.938 -0.5075  0.5820 -0.5749
 7481TIP3   OH246637   0.446   3.615   0.554 -0.0973  0.4133  0.0558
 7481TIP3    H146638   0.357   3.581   0.555  0.1097 -0.4885 -2.6354
 7481TIP3    H246639   0.458   3.656   0.640 -2.0595 -2.0085  1.6154
 7482TIP3   OH246640   0.400   4.290   3.442 -0.0509  0.2468 -0.0933
 7482TIP3    H146641   0.390   4.383   3.465  1.0879  0.5345 -0.6757
 7482TIP3    H246642   0.312   4.253   3.451 -0.4143  1.2550  0.6877
 7483TIP3   OH246643   6.195   4.857   2.821  0.0878  0.1819  0.0464
 7483TIP3    H146644   6.209   4.762   2.822  1.4902  0.2671  3.5277
 7483TIP3    H246645   6.264   4.891   2.765  2.1721 -0.7221  1.8840
 7484TIP3   OH246646   3.626   6.270   1.983 -0.4496  0.3771 -0.7117
 7484TIP3    H146647   3.654   6.264   1.892 -2.7443  0.5595 -1.4933
 7484TIP3    H246648   3.543   6.221   1.986 -1.8549  2.6577  0.6189
 7485TIP3   OH246649   0.798   3.953   0.812  0.3728  0.5167 -0.6510
 7485TIP3    H146650   0.708   3.968   0.782 -0.8037 -1.2092  1.6847
 7485TIP3    H246651   0.832   4.041   0.831 -0.8762  1.1842 -1.3963
 7486TIP3   OH246652   2.066   4.211   2.014  0.6558 -0.5230  0.6383
 7486TIP3    H146653   2.018   4.262   1.948 -0.5015 -2.8470 -0.4053
 7486TIP3    H246654   2.079   4.125   1.974  1.2861 -1.5470  2.8811
 7487TIP3   OH246655   1.991   1.573   1.449 -0.0930  0.7330  0.1176
 7487TIP3    H146656   2.003   1.583   1.355  1.6895 -0.2498  0.1830
 7487TIP3    H246657   1.897   1.561   1.461 -0.1181 -2.0215 -1.8935
 7488TIP3   OH246658   2.867   1.295   2.206  0.3616  0.2104 -0.4160
 7488TIP3    H146659   2.882   1.367   2.144  0.8687  0.3627 -0.1234
 7488TIP3    H246660   2.884   1.334   2.292  0.6365 -0.2546 -0.2581
 7489TIP3   OH246661   4.257   0.105   0.855 -0.1153 -0.0418  0.1109
 7489TIP3    H146662   4.238   0.059   0.936 -0.5657  0.9631  0.5979
 7489TIP3    H246663   4.245   0.198   0.876 -0.2560  0.2406 -1.0962
 7490TIP3   OH246664   3.795   7.163   1.028 -0.9010  0.5297 -0.0660
 7490TIP3    H146665   3.789   7.211   0.945  0.2858 -0.6568 -0.8905
 7490TIP3    H246666   3.715   7.110   1.030 -1.3108  1.1338 -0.0572
 7491TIP3   OH246667   0.285   7.668   0.448 -0.4771 -0.6341  0.4035
 7491TIP3    H146668   0.235   7.748   0.434 -1.7172 -1.6400 -1.2635
 7491TIP3    H246669   0.229   7.613   0.503 -1.9636 -2.2872 -2.5184
 7492TIP3   OH246670   6.894   0.869   2.535 -0.3223  0.6240 -0.0009
 7492TIP3    H146671   6.847   0.829   2.609 -0.2561  2.2302  0.9417
 7492TIP3    H246672   6.951   0.799   2.503 -2.9554 -1.2875 -0.9207
 7493TIP3   OH246673   2.126   7.296   2.123 -0.2618 -0.0470 -0.3965
 7493TIP3    H146674   2.217   7.278   2.099 -0.0568 -0.0204  0.3362
 7493TIP3    H246675   2.114   7.249   2.205 -0.4112  1.2861  0.3668
 7494TIP3   OH246676   5.027   2.957   2.722 -0.1156 -0.3038  0.0198
 7494TIP3    H146677   5.071   2.882   2.681 -1.0872  0.0739 -1.8645
 7494TIP3    H246678   4.940   2.958   2.682 -1.5149 -0.3779  2.8176
 7495TIP3   OH246679   3.001   1.818   2.521  0.3001  0.0883  0.3257
 7495TIP3    H146680   2.966   1.890   2.574 -0.9321  0.6885 -1.2157
 7495TIP3    H246681   3.085   1.850   2.489 -0.6006  1.2472 -1.0168
 7496TIP3   OH246682   7.413   2.746   1.428  0.1136 -0.4280  0.1177
 7496TIP3    H146683   7.508   2.750   1.426  0.2009 -1.9848 -0.8915
 7496TIP3    H246684   7.393   2.681   1.496 -0.2735  0.4598  0.8716
 7497TIP3   OH246685   3.161   0.008   3.129  0.1872  0.6264 -0.0372
 7497TIP3    H146686   3.232   0.055   3.084  0.0541 -0.6092 -1.6354
 7497TIP3    H246687   3.081   0.045   3.090  0.0050  0.8209  0.5210
 7498TIP3   OH246688   5.078   2.880   1.657  0.2269 -0.1117 -0.3044
 7498TIP3    H146689   5.129   2.799   1.659  0.9702  0.3288 -0.8394
 7498TIP3    H246690   5.018   2.869   1.584  0.6563  0.0042 -0.6793
 7499TIP3   OH246691   6.949   0.575   2.035  0.4951 -0.3706  0.2180
 7499TIP3    H146692   6.925   0.557   2.125  2.9199 -2.0043  0.6341
 7499TIP3    H246693   6.935   0.669   2.024 -1.9489 -0.5173  1.5649
 7500TIP3   OH246694   1.517   2.770   2.849  0.0673 -0.0053  0.4294
 7500TIP3    H146695   1.511   2.833   2.921 -2.1137 -0.5384  0.7929
 7500TIP3    H246696   1.491   2.686   2.889  1.4420 -0.8606 -0.3867
 7501TIP3   OH246697   2.813   3.275   0.964 -0.1742 -0.0996  0.1986
 7501TIP3    H146698   2.892   3.263   0.910 -2.2459 -1.0348 -2.8607
 7501TIP3    H246699   2.763   3.195   0.951 -3.2635  1.8499 -0.8973
 7502TIP3   OH246700   5.485   0.814   1.440  0.3014  0.2815 -0.5001
 7502TIP3    H146701   5.394   0.785   1.450  0.2043  0.1842 -1.5729
 7502TIP3    H246702   5.479   0.890   1.382  0.9612 -0.1404 -1.1391
 7503TIP3   OH246703   1.723   1.564   1.527  0.3323 -0.2452 -0.3084
 7503TIP3    H146704   1.685   1.633   1.582  0.5036  0.4678 -1.0530
 7503TIP3    H246705   1.668   1.562   1.449  0.3687 -0.9172 -0.3212
 7504TIP3   OH246706   1.396   5.680   0.779 -0.3656  0.0235  0.4022
 7504TIP3    H146707   1.480   5.708   0.741  0.2518 -0.2026  1.5401
 7504TIP3    H246708   1.333   5.745   0.748  0.1689  0.0453 -0.6962
 7505TIP3   OH246709   0.044   3.764   0.782 -0.1854  0.4676  0.6597
 7505TIP3    H146710   0.020   3.844   0.735  0.0193  1.1053  1.5997
 7505TIP3    H246711  -0.038   3.719   0.799 -0.1289 -0.9337 -2.2181
 7506TIP3   OH246712   4.741   4.150   1.224  0.6659 -0.2146  0.5289
 7506TIP3    H146713   4.789   4.223   1.263  1.3451 -0.8758  0.9501
 7506TIP3    H246714   4.734   4.085   1.294  0.2181 -0.6310  0.1116
 7507TIP3   OH246715   2.904   5.665   1.612  0.3280 -0.2126 -0.1700
 7507TIP3    H146716   2.993   5.674   1.576  1.0905 -1.1691  1.3454
 7507TIP3    H246717   2.868   5.588   1.568  0.5610 -0.3066 -0.1975
 7508TIP3   OH246718   0.455   3.015   3.127 -0.3498 -0.4614 -0.2932
 7508TIP3    H146719   0.487   2.953   3.061  0.1902 -0.3520 -0.1391
 7508TIP3    H246720   0.531   3.033   3.181 -0.7335 -0.3670  0.2209
 7509TIP3   OH246721   2.762   7.297   0.929  0.3018  0.3760 -0.1178
 7509TIP3    H146722   2.855   7.312   0.948  0.2995  1.6088 -0.9745
 7509TIP3    H246723   2.720   7.381   0.947 -0.4003  0.2808 -1.2384
 7510TIP3   OH246724   2.062   3.132   1.174  0.1244 -0.2312  0.0826
 7510TIP3    H146725   2.151   3.097   1.175  0.6311  1.0212  0.7218
 7510TIP3    H246726   2.040   3.139   1.081  0.9681  0.0896 -0.1008
 7511TIP3   OH246727   6.928   6.419   0.865 -0.7420 -0.8016  0.9683
 7511TIP3    H146728   6.997   6.356   0.847 -0.9707 -1.4703  2.3411
 7511TIP3    H246729   6.942   6.446   0.956 -1.4223  0.1633  0.8092
 7512TIP3   OH246730   6.102   4.663   1.594  0.0780 -0.4907 -0.3222
 7512TIP3    H146731   6.188   4.643   1.631  0.3088  0.5906 -0.2613
 7512TIP3    H246732   6.113   4.654   1.500 -0.2247 -2.1328 -0.2397
 7513TIP3   OH246733   5.197   0.597   2.929  0.4865 -0.0777  0.7031
 7513TIP3    H146734   5.158   0.557   3.007 -0.0725 -2.2529 -0.5994
 7513TIP3    H246735   5.123   0.618   2.873  0.9291  0.4434  0.2984
 7514TIP3   OH246736   2.288   3.115   2.436  0.0571 -0.2145  0.2619
 7514TIP3    H146737   2.270   3.045   2.499  0.8275 -1.2704 -0.6342
 7514TIP3    H246738   2.287   3.071   2.351  0.1109  0.9670 -0.3695
 7515TIP3   OH246739   2.265   3.629   2.278 -0.2565 -0.2080 -0.2271
 7515TIP3    H146740   2.236   3.617   2.369 -0.5324 -0.0169 -0.2900
 7515TIP3    H246741   2.358   3.650   2.286 -0.2552 -0.2966  0.0050
 7516TIP3   OH246742   2.278   1.063   2.594  0.1687  0.5041  0.9613
 7516TIP3    H146743   2.218   1.000   2.555  0.4616 -0.6892  2.3369
 7516TIP3    H246744   2.357   1.013   2.612  0.9223  1.6136  0.8168
 7517TIP3   OH246745   1.042   2.497   3.240  0.0512 -0.2154 -0.3393
 7517TIP3    H146746   1.037   2.421   3.298  0.7577 -2.5445 -3.0964
 7517TIP3    H246747   1.135   2.520   3.239  0.0052 -0.0308 -0.3629
 7518TIP3   OH246748   3.671   5.469   1.991 -0.9439  0.1562  0.1763
 7518TIP3    H146749   3.638   5.457   2.080  2.2054  1.0484  1.5892
 7518TIP3    H246750   3.741   5.404   1.982 -0.4708  0.8194 -1.2650
 7519TIP3   OH246751   3.549   5.059   1.562 -0.2020 -0.1020  0.8245
 7519TIP3    H146752   3.627   5.010   1.588 -1.0345 -1.3424  1.0917
 7519TIP3    H246753   3.490   4.992   1.527 -0.2538  1.1185 -1.6144
 7520TIP3   OH246754   1.779   6.531   1.697 -0.5143 -0.2162  0.0228
 7520TIP3    H146755   1.725   6.466   1.743  0.3899  0.2585  1.8737
 7520TIP3    H246756   1.830   6.572   1.767  0.3082  1.1758 -1.3491
 7521TIP3   OH246757   7.073   1.931   2.234 -0.3689  0.1791  0.1976
 7521TIP3    H146758   7.019   1.988   2.288  1.6859  2.5306 -0.0631
 7521TIP3    H246759   7.125   1.881   2.297  0.0937  0.9446  0.4356
 7522TIP3   OH246760   1.477   7.264   1.389 -1.0362  0.2287  0.2537
 7522TIP3    H146761   1.454   7.216   1.469 -1.7260 -0.0183 -0.0881
 7522TIP3    H246762   1.407   7.243   1.327 -0.3664  0.2063 -0.5089
 7523TIP3   OH246763   2.648   6.869   2.738 -0.0294  0.3811  0.0963
 7523TIP3    H146764   2.598   6.889   2.817  0.8807  0.7574  0.5861
 7523TIP3    H246765   2.588   6.816   2.685 -0.5064 -0.2249  1.2110
 7524TIP3   OH246766   1.003   4.760   0.938  0.0362 -0.7411 -0.6212
 7524TIP3    H146767   0.992   4.670   0.907  0.0333 -0.5503 -1.1900
 7524TIP3    H246768   0.984   4.756   1.032  1.0291 -1.5175 -0.4351
 7525TIP3   OH246769   6.127   3.644   1.077  0.2908  0.6497  0.5830
 7525TIP3    H146770   6.070   3.573   1.107  0.4128  0.8719  1.3841
 7525TIP3    H246771   6.202   3.641   1.137  0.4477  1.2535  0.4304
 7526TIP3   OH246772   2.229   3.398   1.673  0.4650  0.3831 -0.2520
 7526TIP3    H146773   2.141   3.426   1.651  0.3750 -0.3475 -0.8516
 7526TIP3    H246774   2.285   3.435   1.605  0.8362  2.0013  0.8712
 7527TIP3   OH246775   3.301   6.175   3.021  0.2910  0.0774 -0.2847
 7527TIP3    H146776   3.319   6.258   3.066 -1.3468  0.4200 -0.1855
 7527TIP3    H246777   3.324   6.108   3.086 -0.7825  0.5391  0.6201
 7528TIP3   OH246778   0.137   4.193   0.510  0.3229 -0.1177 -0.1316
 7528TIP3    H146779   0.170   4.283   0.500  0.7119 -0.3871 -1.4828
 7528TIP3    H246780   0.184   4.143   0.444  3.7990 -2.4099  3.5919
 7529TIP3   OH246781   4.596   3.041   1.458 -0.3501 -0.5055  0.1290
 7529TIP3    H146782   4.596   3.003   1.545 -0.6568  0.6869  0.6826
 7529TIP3    H246783   4.600   3.136   1.474 -2.3086 -0.1624 -1.0698
 7530TIP3   OH246784   6.483   0.590   0.748  0.5262 -0.3997 -0.2320
 7530TIP3    H146785   6.546   0.575   0.819 -0.8849  1.3455  1.5068
 7530TIP3    H246786   6.511   0.673   0.708  0.1403 -0.3197 -0.3434
 7531TIP3   OH246787   4.720   0.153   2.955 -0.9421 -0.1085 -0.3787
 7531TIP3    H146788   4.719   0.104   2.873 -1.0882 -0.6488 -0.0605
 7531TIP3    H246789   4.768   0.234   2.934  0.9450 -1.1953 -0.4572
 7532TIP3   OH246790   6.626   1.371   1.039 -0.7246 -0.6054  0.4457
 7532TIP3    H146791   6.549   1.425   1.054 -0.8697 -0.6363 -0.1535
 7532TIP3    H246792   6.593   1.296   0.989 -0.2175 -0.3427 -0.3020
 7533TIP3   OH246793   6.421   5.421   1.531 -0.3775 -0.3373 -0.3641
 7533TIP3    H146794   6.490   5.355   1.524  0.3509  0.4272 -0.4700
 7533TIP3    H246795   6.467   5.505   1.528 -1.1605  0.1803  0.9638
 7534TIP3   OH246796   6.627   6.447   2.690 -0.3350  0.4098 -0.4941
 7534TIP3    H146797   6.611   6.513   2.622  0.3650  0.1393 -0.9341
 7534TIP3    H246798   6.601   6.364   2.649 -1.9338  0.4795  0.3191
 7535TIP3   OH246799   4.779   1.688   1.672  0.2614 -0.1673  0.5787
 7535TIP3    H146800   4.718   1.684   1.745  1.6411  2.2681  2.0197
 7535TIP3    H246801   4.865   1.691   1.713  1.5048 -3.4370 -1.3691
 7536TIP3   OH246802   2.668   6.509   3.394  0.1276  0.2305 -0.3569
 7536TIP3    H146803   2.630   6.460   3.322 -0.1151  0.1412 -0.1695
 7536TIP3    H246804   2.595   6.557   3.433  0.3821  0.8310 -0.6046
 7537TIP3   OH246805   2.482   6.786   2.540  0.1890  0.1059  0.2469
 7537TIP3    H146806   2.456   6.695   2.558  0.7229 -0.0185  0.4001
 7537TIP3    H246807   2.410   6.821   2.487  0.5056 -0.7688 -0.8106
 7538TIP3   OH246808   1.751   5.789   1.088  0.5735 -0.0663 -0.2224
 7538TIP3    H146809   1.743   5.695   1.070  0.0780 -0.4828  1.9162
 7538TIP3    H246810   1.831   5.797   1.140  1.5180  0.9636 -1.7427
 7539TIP3   OH246811   6.862   6.139   1.558 -0.1155  0.3232 -0.0714
 7539TIP3    H146812   6.769   6.138   1.581  0.1843  0.2835  1.1831
 7539TIP3    H246813   6.864   6.102   1.469 -1.0090 -2.7708  1.0322
 7540TIP3   OH246814   4.121   0.728   0.430  0.1296  0.5244 -0.1701
 7540TIP3    H146815   4.131   0.763   0.518  1.4344  3.1213 -1.2649
 7540TIP3    H246816   4.208   0.694   0.408  0.1497  1.0293 -0.8952
 7541TIP3   OH246817   4.141   2.501   2.946 -0.3570  0.2078  0.5713
 7541TIP3    H146818   4.086   2.577   2.923  0.8754  1.5841  1.9618
 7541TIP3    H246819   4.078   2.433   2.970 -1.5140  0.6030 -1.1058
 7542TIP3   OH246820   5.789   4.569   3.090  0.3199 -0.0571  0.1007
 7542TIP3    H146821   5.750   4.500   3.143  1.9929 -0.8553  0.3629
 7542TIP3    H246822   5.723   4.589   3.024 -1.1197 -0.2419  1.4359
 7543TIP3   OH246823   6.401   4.583   3.026 -0.3870  0.0517  0.1231
 7543TIP3    H146824   6.479   4.547   2.983  0.0506  1.5981 -0.4521
 7543TIP3    H246825   6.423   4.674   3.043 -2.2326  0.6554 -0.4565
 7544TIP3   OH246826   3.462   2.423   1.989 -0.1556  0.3833 -0.2597
 7544TIP3    H146827   3.491   2.511   1.967  0.8663 -0.1540 -1.1718
 7544TIP3    H246828   3.520   2.365   1.939 -1.3950 -0.7943 -0.4120
 7545TIP3   OH246829   1.117   3.257   2.911  0.2612 -0.2420 -0.4038
 7545TIP3    H146830   1.046   3.315   2.882 -3.1160 -3.8856 -0.3483
 7545TIP3    H246831   1.121   3.268   3.006 -0.8405 -0.5176 -0.3119
 7546TIP3   OH246832   0.910   6.555   0.555 -0.1265 -0.0974 -0.0950
 7546TIP3    H146833   0.958   6.621   0.505  1.9358  0.4781  2.3736
 7546TIP3    H246834   0.819   6.583   0.552  0.2152  0.9525 -1.8409
 7547TIP3   OH246835   6.329   6.876   0.581 -0.0288  0.3395 -0.1825
 7547TIP3    H146836   6.327   6.972   0.586 -1.0708  0.3362 -0.3203
 7547TIP3    H246837   6.282   6.856   0.500 -2.1241 -0.3702  1.1266
 7548TIP3   OH246838   0.497   2.771   1.385  0.3308 -0.0222  0.2460
 7548TIP3    H146839   0.578   2.763   1.436  0.3648 -1.2561  0.0361
 7548TIP3    H246840   0.461   2.682   1.384  0.0501  0.0850 -1.4346
 7549TIP3   OH246841   6.017   3.681   0.818 -0.3442  0.0363 -0.4335
 7549TIP3    H146842   6.042   3.692   0.910 -0.9455  0.7566 -0.3511
 7549TIP3    H246843   5.941   3.623   0.821  0.0157 -0.4530 -0.5342
 7550TIP3   OH246844   1.202   1.890   2.379  0.1125  0.4159 -0.0170
 7550TIP3    H146845   1.236   1.915   2.465  0.2398 -2.2252  0.7713
 7550TIP3    H246846   1.263   1.931   2.317  0.9523  1.0560  1.1792
 7551TIP3   OH246847   1.422   7.195   0.872 -0.6231 -0.1419  0.1616
 7551TIP3    H146848   1.455   7.283   0.890  0.0812 -0.2002 -0.7539
 7551TIP3    H246849   1.476   7.164   0.800 -1.3869 -1.0293 -0.0464
 7552TIP3   OH246850   1.320   4.454   1.504 -0.3779 -0.3514  0.1786
 7552TIP3    H146851   1.231   4.420   1.508 -0.0940 -1.0751  0.6969
 7552TIP3    H246852   1.316   4.527   1.442 -1.7155  0.9140  1.7002
 7553TIP3   OH246853   3.322   2.196   3.027  0.0627  0.0462  0.1634
 7553TIP3    H146854   3.263   2.157   3.091  0.9884 -1.2711  0.2486
 7553TIP3    H246855   3.393   2.132   3.017  1.0213  1.1777 -0.5967
 7554TIP3   OH246856   1.124   6.124   1.795  0.1603 -0.3761  0.1388
 7554TIP3    H146857   1.113   6.213   1.828  1.5960 -0.2631  0.3950
 7554TIP3    H246858   1.162   6.076   1.869  0.7368 -0.8335 -0.4337
 7555TIP3   OH246859   0.941   6.417   1.005 -0.0927 -0.4886  0.2771
 7555TIP3    H146860   0.885   6.345   0.978 -0.3483 -0.1058 -0.2344
 7555TIP3    H246861   0.943   6.412   1.101  1.5634 -2.4266  0.1965
 7556TIP3   OH246862   6.042   7.049   2.512  0.5430  0.1643 -0.6673
 7556TIP3    H146863   6.136   7.036   2.501  0.4946 -0.5668 -0.2879
 7556TIP3    H246864   6.034   7.137   2.549  1.2117 -0.4711  1.0793
 7557TIP3   OH246865   7.187   4.502   0.622  0.2935  0.1734  0.1128
 7557TIP3    H146866   7.159   4.445   0.694  0.8049  1.3273  1.2698
 7557TIP3    H246867   7.142   4.467   0.545 -0.3099 -1.0736  0.9913
 7558TIP3   OH246868   6.834   0.462   0.503 -0.1219 -0.1734 -0.5376
 7558TIP3    H146869   6.896   0.484   0.573 -0.8823 -1.9547  0.7584
 7558TIP3    H246870   6.876   0.493   0.423  1.8760 -0.2243  0.4402
 7559TIP3   OH246871   5.174   4.111   1.018  0.3356 -0.4353 -0.2863
 7559TIP3    H146872   5.263   4.110   0.982  0.7263 -0.8281  0.6557
 7559TIP3    H246873   5.130   4.181   0.970  1.5186  0.6125  0.0714
 7560TIP3   OH246874   3.284   1.618   1.171 -0.2090 -0.3046  0.0476
 7560TIP3    H146875   3.340   1.614   1.094  0.4509  0.7975  0.4399
 7560TIP3    H246876   3.315   1.548   1.228  0.9457  0.4258  0.3507
 7561TIP3   OH246877   1.884   3.983   1.873 -0.3090  0.6082  0.5226
 7561TIP3    H146878   1.979   3.998   1.866 -0.3822  0.9669  0.2558
 7561TIP3    H246879   1.874   3.929   1.952 -0.0207  2.0192  1.5655
 7562TIP3   OH246880   2.902   5.893   1.759  0.2446 -0.0764 -0.4154
 7562TIP3    H146881   2.941   5.951   1.694  0.2434 -1.6181 -1.8438
 7562TIP3    H246882   2.883   5.812   1.712 -1.0885 -0.7551  1.1669
 7563TIP3   OH246883   6.713   4.415   2.572 -0.2233 -0.3461  0.2019
 7563TIP3    H146884   6.654   4.409   2.497  0.7072 -0.8727 -0.5204
 7563TIP3    H246885   6.716   4.509   2.593 -1.7162 -0.3772  0.6051
 7564TIP3   OH246886   0.867   2.888   2.094  0.1232 -0.6816  0.4824
 7564TIP3    H146887   0.805   2.838   2.042  0.5521 -0.4789 -0.2428
 7564TIP3    H246888   0.816   2.922   2.168  0.0846 -3.2109  1.7166
 7565TIP3   OH246889   0.942   2.945   1.086  0.2462 -0.3413  0.1418
 7565TIP3    H146890   0.869   2.987   1.041  1.1998  0.9394 -0.2853
 7565TIP3    H246891   1.014   3.009   1.079  0.4930 -0.0823  3.3618
 7566TIP3   OH246892   6.754   3.118   0.755 -0.2344 -0.6604  0.4770
 7566TIP3    H146893   6.683   3.105   0.692  0.1165 -2.1634  0.3498
 7566TIP3    H246894   6.729   3.196   0.804 -1.4660 -0.5772 -0.2472
 7567TIP3   OH246895   5.084   4.060   1.858 -0.2917  0.2327  0.7881
 7567TIP3    H146896   4.994   4.032   1.878 -0.9407  2.5424  1.3715
 7567TIP3    H246897   5.107   4.120   1.929  0.1837  2.8310 -1.4113
 7568TIP3   OH246898   4.515   4.069   2.129  0.0144  0.1715  0.0858
 7568TIP3    H146899   4.507   4.136   2.061 -0.4228  1.8249  1.6971
 7568TIP3    H246900   4.609   4.050   2.133  0.1006  0.3985 -0.6180
 7569TIP3   OH246901   3.314   4.539   0.977  0.0605  0.1622 -0.0519
 7569TIP3    H146902   3.304   4.608   0.912 -4.4165  0.2416  0.4552
 7569TIP3    H246903   3.296   4.458   0.930  0.7444 -0.2086  0.3061
 7570TIP3   OH246904   5.675   7.322   2.045 -0.4016 -0.6207 -0.1243
 7570TIP3    H146905   5.769   7.322   2.058 -0.2469  2.3560 -0.5945
 7570TIP3    H246906   5.661   7.270   1.966  0.8159 -1.0162 -0.0947
 7571TIP3   OH246907   6.650   3.862   3.217 -0.1961  0.1465 -0.3161
 7571TIP3    H146908   6.572   3.913   3.238 -1.0171 -0.7802 -1.0064
 7571TIP3    H246909   6.617   3.785   3.171  1.0291 -0.8096  0.3238
 7572TIP3   OH246910   0.921   0.651   2.044 -0.1752  0.2627 -0.1731
 7572TIP3    H146911   0.836   0.689   2.067  0.1714  0.7331  0.3494
 7572TIP3    H246912   0.976   0.665   2.121 -0.0070 -1.2457  0.0101
 7573TIP3   OH246913   3.114   4.056   2.304 -0.4094  0.1352  0.4903
 7573TIP3    H146914   3.063   4.059   2.223 -0.7345 -1.9098  0.5577
 7573TIP3    H246915   3.204   4.044   2.275 -0.7534 -2.8450  0.3510
 7574TIP3   OH246916   7.068   5.259   2.733  0.0730 -0.2681 -0.1608
 7574TIP3    H146917   7.017   5.237   2.811  0.1676 -2.2936 -0.6344
 7574TIP3    H246918   7.113   5.179   2.709  1.5318  0.8147 -1.2405
 7575TIP3   OH246919   1.217   3.323   0.809 -0.2056 -0.2523  0.6293
 7575TIP3    H146920   1.265   3.385   0.863 -0.0145 -1.8064  2.3295
 7575TIP3    H246921   1.143   3.296   0.863 -1.9506  0.6291 -1.2025
 7576TIP3   OH246922   2.478   0.771   1.826 -0.9363 -0.5064 -0.1426
 7576TIP3    H146923   2.454   0.724   1.746  0.1829 -3.2197  0.9616
 7576TIP3    H246924   2.558   0.727   1.855 -0.4285  1.4706  1.6201
 7577TIP3   OH246925   7.243   3.885   0.393 -0.1946 -0.3528 -0.4172
 7577TIP3    H146926   7.292   3.882   0.311 -1.3751  0.9701 -1.2075
 7577TIP3    H246927   7.275   3.964   0.437 -1.2976  0.2783 -0.7390
 7578TIP3   OH246928   5.403   0.597   1.214 -0.5205  0.5165  0.2868
 7578TIP3    H146929   5.449   0.666   1.263  0.3630 -0.8215  1.4288
 7578TIP3    H246930   5.457   0.584   1.136  0.5793 -0.4082  1.1705
 7579TIP3   OH246931   4.790   3.009   1.067  0.5886 -0.0830  0.0823
 7579TIP3    H146932   4.826   3.097   1.056  0.8617 -0.3828 -1.7667
 7579TIP3    H246933   4.849   2.953   1.018 -0.3013 -1.1139  0.1527
 7580TIP3   OH246934   6.094   6.794   2.739 -0.1830  0.2104  0.5558
 7580TIP3    H146935   6.035   6.862   2.772 -0.7866 -0.2455  0.4277
 7580TIP3    H246936   6.182   6.825   2.764 -0.5394  0.4091  1.6323
 7581TIP3   OH246937   7.275   6.603   2.597 -0.3299 -0.0419 -0.4485
 7581TIP3    H146938   7.251   6.695   2.588 -1.2094 -0.0131  1.5436
 7581TIP3    H246939   7.259   6.564   2.511 -0.3486  1.5647 -1.1990
 7582TIP3   OH246940   4.723   4.093   2.490  0.1869 -0.2021 -0.1781
 7582TIP3    H146941   4.628   4.094   2.489  0.1582 -0.1097  1.2255
 7582TIP3    H246942   4.748   4.173   2.537  0.9689 -0.1531 -0.6512
 7583TIP3   OH246943   1.723   3.556   2.797 -0.1745  0.5827 -0.1554
 7583TIP3    H146944   1.708   3.462   2.786  0.7712  0.3950  0.1191
 7583TIP3    H246945   1.684   3.596   2.719 -2.1251  0.1382  0.5240
 7584TIP3   OH246946   5.766   1.523   0.883 -0.1549 -0.0580 -0.2745
 7584TIP3    H146947   5.759   1.614   0.852  1.0680 -0.1992 -1.0035
 7584TIP3    H246948   5.858   1.512   0.905 -0.2397 -1.2044 -0.4472
 7585TIP3   OH246949   4.123   0.104   1.845 -0.3695  0.4703  0.3767
 7585TIP3    H146950   4.067   0.059   1.782  0.4171 -0.8270  0.5877
 7585TIP3    H246951   4.184   0.154   1.791 -0.0534 -0.1951  0.1170
 7586TIP3   OH246952   0.152   6.671   1.931  0.2594  0.2468 -0.1004
 7586TIP3    H146953   0.099   6.740   1.973  1.2232  0.4492  0.8359
 7586TIP3    H246954   0.141   6.595   1.988  1.5113  0.4981  0.5115
 7587TIP3   OH246955   6.642   4.892   2.779 -0.1720  0.1214 -0.0685
 7587TIP3    H146956   6.615   4.955   2.846 -2.0001  0.4946 -1.1097
 7587TIP3    H246957   6.672   4.816   2.828 -0.4600  0.7852  1.1737
 7588TIP3   OH246958   5.674   5.856   2.863 -0.0722 -0.1376  0.1516
 7588TIP3    H146959   5.674   5.951   2.869 -0.1934 -0.1139 -0.2533
 7588TIP3    H246960   5.672   5.837   2.770 -0.2394 -0.5393  0.2341
 7589TIP3   OH246961   1.684   0.348   2.437  0.0377  0.1462  0.1182
 7589TIP3    H146962   1.650   0.348   2.526  0.3102 -2.4234  0.3096
 7589TIP3    H246963   1.779   0.355   2.447 -0.0136  1.2457 -0.0712
 7590TIP3   OH246964   6.480   0.411   3.060  0.1828  0.2426 -0.4775
 7590TIP3    H146965   6.460   0.326   3.099  0.8128  0.1899 -0.2630
 7590TIP3    H246966   6.405   0.429   3.003 -1.0294  0.5791  1.1659
 7591TIP3   OH246967   0.055   0.446   2.179 -0.1452 -0.3363  0.4553
 7591TIP3    H146968   0.092   0.485   2.099 -1.1879 -0.1801  0.0262
 7591TIP3    H246969  -0.039   0.466   2.173 -0.1603  0.1154  1.9803
 7592TIP3   OH246970   7.564   4.340   2.575  0.1394 -0.1870 -0.2847
 7592TIP3    H146971   7.498   4.387   2.627  0.2407 -0.7762  0.3939
 7592TIP3    H246972   7.607   4.408   2.524 -0.9006  0.2244 -0.6356
 7593TIP3   OH246973   7.245   0.430   2.834  0.3883 -0.0677  0.0273
 7593TIP3    H146974   7.217   0.463   2.919  0.0300 -1.3463  0.4369
 7593TIP3    H246975   7.334   0.400   2.847  0.8745  1.0974 -0.4587
 7594TIP3   OH246976   1.121   0.984   2.143 -0.8096 -0.4884 -0.3351
 7594TIP3    H146977   1.184   1.042   2.101 -1.9264  0.7062 -0.4191
 7594TIP3    H246978   1.151   0.896   2.121  0.5238  0.0600 -0.7983
 7595TIP3   OH246979   6.358   1.772   0.576 -0.2445  0.0203 -0.8236
 7595TIP3    H146980   6.454   1.764   0.580 -0.2197  0.2733 -0.8416
 7595TIP3    H246981   6.339   1.850   0.628 -0.3539  0.5201 -1.5801
 7596TIP3   OH246982   2.104   1.064   3.011 -0.0052  0.5650 -0.0602
 7596TIP3    H146983   2.057   1.031   3.087 -0.2531  0.2802 -0.3372
 7596TIP3    H246984   2.079   1.156   3.005  0.1259  0.6240  0.2840
 7597TIP3   OH246985   4.866   4.931   1.229  0.7797  0.1701 -0.2495
 7597TIP3    H146986   4.812   4.895   1.158  1.3128 -0.6718 -0.2429
 7597TIP3    H246987   4.817   4.910   1.309  0.9892 -0.3946 -0.2596
 7598TIP3   OH246988   2.697   4.401   0.998 -0.1981 -0.2489 -0.1653
 7598TIP3    H146989   2.706   4.437   1.086 -0.2800 -1.2143  0.2536
 7598TIP3    H246990   2.621   4.447   0.961 -1.3941 -1.1952  0.9933
 7599TIP3   OH246991   0.708   0.612   2.538 -0.0422 -0.0952 -0.2309
 7599TIP3    H146992   0.797   0.606   2.572  0.5557 -0.1847 -1.7192
 7599TIP3    H246993   0.663   0.535   2.574  0.3651  0.1535  0.8264
 7600TIP3   OH246994   6.054   7.119   1.870  0.1647 -0.4212 -0.2370
 7600TIP3    H146995   6.010   7.034   1.864 -1.0346  0.0545  1.2340
 7600TIP3    H246996   5.991   7.181   1.835  0.9789 -0.0905 -1.1634
 7601TIP3   OH246997   7.448   0.738   2.603  0.4078 -0.4216 -0.3983
 7601TIP3    H146998   7.509   0.810   2.585 -0.4019  0.0407 -1.3514
 7601TIP3    H246999   7.397   0.768   2.679  0.1532 -0.0402 -0.7189
 7602TIP3   OH247000   0.344   2.382   1.191 -0.5211  0.3482  0.3503
 7602TIP3    H147001   0.324   2.472   1.219 -2.1327  0.0702  0.2000
 7602TIP3    H247002   0.273   2.360   1.131  1.1659 -0.1770 -1.5641
 7603TIP3   OH247003   4.736   4.980   1.602  0.0384  0.5297  0.0011
 7603TIP3    H147004   4.793   4.939   1.667  2.4227  2.1104 -0.9348
 7603TIP3    H247005   4.702   4.906   1.550 -1.1724 -0.6717  2.3404
 7604TIP3   OH247006   7.132   2.489   0.720 -0.2602  0.2410 -0.2724
 7604TIP3    H147007   7.188   2.460   0.648 -1.1749 -0.8526 -0.5850
 7604TIP3    H247008   7.183   2.470   0.799 -0.2011 -0.8412 -0.5469
 7605TIP3   OH247009   6.628   2.498   2.216  0.6194 -1.0605 -0.7019
 7605TIP3    H147010   6.545   2.455   2.233  0.6691 -0.8614  0.0633
 7605TIP3    H247011   6.605   2.586   2.187  0.5559 -1.1588 -0.9541
 7606TIP3   OH247012   1.536   4.712   1.488 -0.3353  0.1886  0.3765
 7606TIP3    H147013   1.575   4.626   1.499  1.1750  0.9015  0.8344
 7606TIP3    H247014   1.553   4.735   1.397 -0.7010  0.0289  0.2659
 7607TIP3   OH247015   3.127   4.631   2.303 -0.3351 -0.3516  0.0100
 7607TIP3    H147016   3.155   4.651   2.392  2.4233  0.3812 -0.9414
 7607TIP3    H247017   3.116   4.535   2.303 -0.6197 -0.3435  1.1546
 7608TIP3   OH247018   2.085   2.205   1.901 -0.1947 -0.1761  0.2480
 7608TIP3    H147019   2.034   2.242   1.973 -0.8644  0.2821 -0.4379
 7608TIP3    H247020   2.054   2.115   1.892 -0.3263 -0.1400  0.3455
 7609TIP3   OH247021   6.126   6.352   1.670  0.5607 -0.1501 -0.5399
 7609TIP3    H147022   6.032   6.336   1.675  0.5372  0.2510  0.5814
 7609TIP3    H247023   6.140   6.385   1.581 -0.6395  1.4276 -0.2015
 7610TIP3   OH247024   0.599   0.509   0.830 -0.1170 -0.6008  0.5842
 7610TIP3    H147025   0.554   0.426   0.814 -2.5613  0.7784 -0.1262
 7610TIP3    H247026   0.674   0.485   0.885  0.9097 -3.6568 -1.8462
 7611TIP3   OH247027   5.314   4.491   2.538  0.2775  0.1886 -0.2168
 7611TIP3    H147028   5.290   4.532   2.454  0.8625  0.9282 -0.0322
 7611TIP3    H247029   5.259   4.535   2.603  1.2344  1.0512  0.0451
 7612TIP3   OH247030   0.394   6.526   3.222 -0.0028 -0.1653 -0.3040
 7612TIP3    H147031   0.456   6.529   3.149  0.1920  0.6663 -0.1062
 7612TIP3    H247032   0.308   6.525   3.180  0.1099  0.2171 -0.5444
 7613TIP3   OH247033   7.602   5.503   2.868  0.5263  1.2978  0.0942
 7613TIP3    H147034   7.648   5.419   2.865  1.8025  1.9529  0.2510
 7613TIP3    H247035   7.528   5.493   2.809  0.4352 -0.0561  0.4145
 7614TIP3   OH247036   7.090   1.864   2.938 -0.3366 -0.7632  0.4015
 7614TIP3    H147037   7.013   1.848   2.992 -0.9808 -1.1478 -0.6176
 7614TIP3    H247038   7.155   1.899   3.000 -0.9651 -1.4250  1.4696
 7615TIP3   OH247039   3.144   2.514   2.484  0.3143  0.0847  0.7045
 7615TIP3    H147040   3.112   2.584   2.427  0.0826 -0.6963 -0.1504
 7615TIP3    H247041   3.069   2.492   2.539  0.3869  0.4900  0.9765
 7616TIP3   OH247042   4.405   4.940   1.587 -0.2590 -1.0658  0.2596
 7616TIP3    H147043   4.459   4.900   1.518  0.4384  0.4807 -0.1211
 7616TIP3    H247044   4.341   4.993   1.540 -1.8043 -2.4378  0.7331
 7617TIP3   OH247045   1.089   0.475   1.161 -0.5212 -0.1240 -0.1471
 7617TIP3    H147046   1.148   0.550   1.159 -1.0705  0.4556  2.2060
 7617TIP3    H247047   1.080   0.448   1.069  4.2033 -0.9502 -0.5838
 7618TIP3   OH247048   7.636   2.813   1.720 -0.2372 -0.1108  1.0979
 7618TIP3    H147049   7.715   2.801   1.773  0.6388  1.4566  0.2544
 7618TIP3    H247050   7.657   2.888   1.664 -2.0588 -0.1418  0.3084
 7619TIP3   OH247051   6.792   3.523   1.328 -0.3503 -0.1152 -0.2271
 7619TIP3    H147052   6.870   3.474   1.355 -0.7125 -0.7524 -0.3112
 7619TIP3    H247053   6.780   3.589   1.397  1.3569  1.2537 -1.1729
 7620TIP3   OH247054   6.201   0.409   0.759 -0.1336  0.0869 -0.1633
 7620TIP3    H147055   6.209   0.467   0.684  2.1157 -1.7134 -1.4521
 7620TIP3    H247056   6.231   0.462   0.834  1.5487  0.7315 -1.2396
 7621TIP3   OH247057   6.432   0.685   0.378  0.0404 -0.1020  0.3207
 7621TIP3    H147058   6.467   0.743   0.311  0.0407  0.4607  0.7980
 7621TIP3    H247059   6.487   0.701   0.455 -0.1642 -0.4980  0.5544
 7622TIP3   OH247060   4.050   2.065   1.918  0.2378  0.5207  0.2032
 7622TIP3    H147061   4.007   2.142   1.881 -0.2417 -0.0598 -0.4687
 7622TIP3    H247062   4.115   2.101   1.979 -0.2196  1.4430  0.1653
 7623TIP3   OH247063   7.205   1.475   0.371 -0.2706 -0.0323 -0.1380
 7623TIP3    H147064   7.182   1.386   0.399 -0.1295 -0.5121 -1.4499
 7623TIP3    H247065   7.272   1.462   0.304  0.3629  1.1192  0.2408
 7624TIP3   OH247066   6.645   5.990   3.272  0.1328 -0.2340 -0.0971
 7624TIP3    H147067   6.734   6.022   3.259 -0.5213  1.0899 -1.7517
 7624TIP3    H247068   6.624   5.941   3.192 -0.8522  0.0907 -0.0577
 7625TIP3   OH247069   3.219   5.240   1.325  0.1194  0.1029  0.0571
 7625TIP3    H147070   3.273   5.303   1.372 -1.3643  1.3061  0.2617
 7625TIP3    H247071   3.130   5.274   1.334 -0.4510 -0.6862 -1.9819
 7626TIP3   OH247072   3.328   6.243   1.058 -0.2758 -0.2458 -0.4368
 7626TIP3    H147073   3.360   6.271   1.144 -0.1856 -0.5376 -0.3731
 7626TIP3    H247074   3.303   6.324   1.014  2.5165  0.2335 -1.3059
 7627TIP3   OH247075   0.716   2.952   2.323  0.2631  0.3798  0.0358
 7627TIP3    H147076   0.643   2.890   2.314  0.9567 -0.1606 -3.4227
 7627TIP3    H247077   0.776   2.910   2.383  0.2574 -1.9642 -1.4661
 7628TIP3   OH247078   7.580   2.692   0.888  0.4707  0.1551  0.3399
 7628TIP3    H147079   7.517   2.763   0.892 -0.4811 -0.5840 -0.9269
 7628TIP3    H247080   7.596   2.668   0.980 -0.3786  0.9585  0.7073
 7629TIP3   OH247081   4.905   2.195   1.225 -0.0290  0.2053  0.3663
 7629TIP3    H147082   4.859   2.257   1.170  0.3998 -0.2373 -0.5023
 7629TIP3    H247083   4.840   2.128   1.246  0.2441 -0.5102 -1.0027
 7630TIP3   OH247084   4.630   3.215   0.864  0.1617  0.2035 -0.1221
 7630TIP3    H147085   4.554   3.273   0.859  1.1583  1.7765  1.9279
 7630TIP3    H247086   4.702   3.265   0.826  0.1165 -1.6337 -2.9757
 7631TIP3   OH247087   7.004   5.720   1.661 -0.2169  0.1159  0.5332
 7631TIP3    H147088   7.100   5.724   1.656 -0.2496  0.8871  0.3886
 7631TIP3    H247089   6.985   5.722   1.755 -0.0761 -0.5749  0.5800
 7632TIP3   OH247090   2.835   5.980   2.681 -0.1275  0.1675  0.2052
 7632TIP3    H147091   2.847   5.970   2.775 -1.8843  0.7184  0.5256
 7632TIP3    H247092   2.923   5.974   2.644  0.4984 -0.8860  1.7922
 7633TIP3   OH247093   4.145   2.761   2.084  0.0894 -0.4531 -0.3068
 7633TIP3    H147094   4.073   2.820   2.107  0.3262 -0.3676  0.2198
 7633TIP3    H247095   4.154   2.770   1.989 -0.9239 -0.8432 -0.4495
 7634TIP3   OH247096   2.395   0.036   1.952  0.0796 -0.0578  0.6764
 7634TIP3    H147097   2.449   0.112   1.932 -1.7720  1.1652  0.1191
 7634TIP3    H247098   2.412   0.017   2.044 -0.1848  1.6895  1.1222
 7635TIP3   OH247099   3.181   5.687   1.991 -0.3111 -0.0266 -0.5463
 7635TIP3    H147100   3.236   5.694   1.912  0.3661 -2.3182 -0.3619
 7635TIP3    H247101   3.206   5.603   2.029 -2.5981 -0.2371  0.6277
 7636TIP3   OH247102   3.611   3.257   2.149  0.2515 -0.5934  0.3744
 7636TIP3    H147103   3.609   3.349   2.125  0.5011 -0.8936 -0.8849
 7636TIP3    H247104   3.530   3.243   2.198 -0.3391  0.0585 -0.3907
 7637TIP3   OH247105   4.098   1.866   1.377 -0.0524 -0.4444 -0.1097
 7637TIP3    H147106   4.006   1.858   1.350  0.1719 -0.4719 -0.8789
 7637TIP3    H247107   4.147   1.823   1.307  0.6031  0.2515 -0.0831
 7638TIP3   OH247108   1.327   0.683   0.805 -0.4357  0.0440  0.0074
 7638TIP3    H147109   1.363   0.769   0.827 -2.4196  0.7318  0.8868
 7638TIP3    H247110   1.389   0.620   0.842 -0.4669  1.1619  2.1262
 7639TIP3   OH247111   6.729   7.647   2.317 -0.4546  0.0687  0.3322
 7639TIP3    H147112   6.716   7.600   2.399 -1.7283 -0.2057 -0.0120
 7639TIP3    H247113   6.778   7.726   2.342  0.4575 -0.7152  1.1225
 7640TIP3   OH247114   6.403   4.675   1.941  0.5133 -0.3419 -0.4841
 7640TIP3    H147115   6.392   4.767   1.966  1.0615 -0.0693 -1.2220
 7640TIP3    H247116   6.360   4.668   1.856  1.3295 -0.5362 -0.8888
 7641TIP3   OH247117   1.689   4.510   1.483  0.0501 -0.5455  0.7275
 7641TIP3    H147118   1.652   4.423   1.498  1.9380 -1.4324  0.5357
 7641TIP3    H247119   1.771   4.494   1.436  0.4106  1.3496  0.6034
 7642TIP3   OH247120   4.160   5.567   1.597 -0.5216 -0.0048 -0.0944
 7642TIP3    H147121   4.214   5.617   1.658  0.4179  1.1191 -1.7571
 7642TIP3    H247122   4.071   5.575   1.631  0.1510 -0.7865  1.9792
 7643TIP3   OH247123   4.307   1.096   0.521 -0.1192 -0.4177 -0.2951
 7643TIP3    H147124   4.258   1.033   0.467 -0.0944  0.4815 -1.3827
 7643TIP3    H247125   4.392   1.105   0.478  0.7750 -1.4029  1.1772
 7644TIP3   OH247126   3.368   5.153   2.020 -0.0751  0.6141 -0.1466
 7644TIP3    H147127   3.408   5.156   2.107  1.1409 -1.4509 -0.5622
 7644TIP3    H247128   3.439   5.174   1.960 -0.3065 -0.2814 -0.7456
 7645TIP3   OH247129   0.817   6.141   0.988 -0.0608 -0.3823  0.3665
 7645TIP3    H147130   0.839   6.069   1.047  2.8258 -0.8459 -1.0721
 7645TIP3    H247131   0.785   6.099   0.908 -2.3736  0.1801  0.9144
 7646TIP3   OH247132   0.687   2.188   2.141 -0.0744  0.3003 -0.5796
 7646TIP3    H147133   0.633   2.252   2.094 -0.6514  2.4352  2.7164
 7646TIP3    H247134   0.760   2.239   2.175  0.8434 -1.3611  0.0339
 7647TIP3   OH247135   4.471   0.964   1.389 -0.0342  0.3695  0.2178
 7647TIP3    H147136   4.389   0.953   1.437 -1.0925  1.5663 -1.2235
 7647TIP3    H247137   4.495   0.875   1.363 -2.3336  0.1718 -1.5714
 7648TIP3   OH247138   4.617   6.874   0.664  0.2098 -0.0009 -0.0039
 7648TIP3    H147139   4.539   6.907   0.708  1.3681  1.0304  1.3785
 7648TIP3    H247140   4.648   6.948   0.611  1.0912  0.1173  0.6613
 7649TIP3   OH247141   2.736   6.706   1.914  0.1509  0.1750 -0.2533
 7649TIP3    H147142   2.796   6.633   1.899 -0.5931 -0.2652 -1.1743
 7649TIP3    H247143   2.774   6.753   1.989  0.8958 -0.8740  0.0495
 7650TIP3   OH247144   1.704   5.385   1.873 -0.0783  0.3173  0.2218
 7650TIP3    H147145   1.668   5.393   1.961  0.4763  0.2681  0.4605
 7650TIP3    H247146   1.736   5.473   1.852  2.1655 -0.1978  1.1424
 7651TIP3   OH247147   6.904   1.813   1.529 -0.1364 -0.0079 -0.2001
 7651TIP3    H147148   6.923   1.788   1.439 -0.4583  0.3017 -0.3610
 7651TIP3    H247149   6.856   1.896   1.521 -1.2331 -0.5865  0.1872
 7652TIP3   OH247150   7.362   1.050   1.844 -0.0548  0.4635  0.0752
 7652TIP3    H147151   7.329   1.056   1.933  0.1325  1.6382  0.0860
 7652TIP3    H247152   7.430   0.984   1.848 -1.3045 -0.8700  0.3825
 7653TIP3   OH247153   6.839   2.694   2.236 -0.1049  0.2810  0.4551
 7653TIP3    H147154   6.754   2.651   2.243  0.1767 -0.1731  1.1962
 7653TIP3    H247155   6.843   2.752   2.311  0.2556  0.2645  0.4501
 7654TIP3   OH247156   4.178   6.610   0.582  0.2691  0.7883  0.0426
 7654TIP3    H147157   4.192   6.652   0.498 -0.8654 -0.8384 -1.0359
 7654TIP3    H247158   4.089   6.634   0.607  0.1384  0.2288  0.1337
 7655TIP3   OH247159   5.944   6.238   3.576 -0.5615  0.1354 -0.4916
 7655TIP3    H147160   6.010   6.307   3.573  0.6987 -1.0504 -2.0224
 7655TIP3    H247161   5.994   6.157   3.573 -2.0687 -0.8198 -2.0221
 7656TIP3   OH247162   4.668   1.923   1.552 -0.3065 -0.6573  0.1549
 7656TIP3    H147163   4.585   1.878   1.564 -0.1562 -0.5238  1.8933
 7656TIP3    H247164   4.723   1.892   1.624  1.1889 -0.7971 -0.9984
 7657TIP3   OH247165   7.513   1.545   2.527 -0.3641  0.9221  0.6327
 7657TIP3    H147166   7.423   1.513   2.528 -0.5315  1.2849 -0.7419
 7657TIP3    H247167   7.540   1.543   2.619 -1.5156  0.1107  0.9819
 7658TIP3   OH247168   0.569   5.784   2.529 -0.2111 -0.3437  0.6067
 7658TIP3    H147169   0.585   5.875   2.503 -0.0690 -0.7503 -0.8310
 7658TIP3    H247170   0.480   5.784   2.565 -0.6858  0.1488 -0.5287
 7659TIP3   OH247171   7.226   7.511   1.508  0.2097  0.1883  0.5529
 7659TIP3    H147172   7.250   7.494   1.599 -0.0289 -0.1609  0.5520
 7659TIP3    H247173   7.162   7.443   1.486 -0.3656  0.7673  0.3868
 7660TIP3   OH247174   4.722   7.445   0.997  0.2979  0.0527  0.3653
 7660TIP3    H147175   4.648   7.501   0.973  0.1446  0.5291  1.8269
 7660TIP3    H247176   4.750   7.479   1.082  1.4119 -0.9148  0.4025
 7661TIP3   OH247177   0.551   4.003   0.695  0.1451  0.2252  0.4711
 7661TIP3    H147178   0.578   3.965   0.612  1.1384 -0.0682  0.9086
 7661TIP3    H247179   0.540   4.097   0.677  1.9048  0.4466  0.3428
 7662TIP3   OH247180   0.480   6.959   2.434  0.4886  0.0900 -0.3779
 7662TIP3    H147181   0.550   6.966   2.370  0.3159 -2.0115 -0.8794
 7662TIP3    H247182   0.512   7.006   2.510  2.9251 -1.5908 -0.2250
 7663TIP3   OH247183   0.173   5.458   2.009  0.3657  0.3594 -0.0329
 7663TIP3    H147184   0.188   5.543   2.051  1.4994  0.5291 -0.7203
 7663TIP3    H247185   0.241   5.401   2.045 -1.4508 -0.8100  1.7592
 7664TIP3   OH247186   0.257   7.221   0.663  0.6336  0.1580 -0.1815
 7664TIP3    H147187   0.200   7.173   0.724  0.3488 -0.0708 -0.6185
 7664TIP3    H247188   0.287   7.297   0.713  2.1029 -1.1040  0.9618
 7665TIP3   OH247189   0.136   7.007   1.886  0.2087  0.0762 -0.3962
 7665TIP3    H147190   0.063   7.017   1.825 -1.5809 -1.9393  1.2304
 7665TIP3    H247191   0.214   7.013   1.832 -1.2639 -1.8183 -2.9449
 7666TIP3   OH247192   6.306   0.517   0.536  0.3002 -0.0074  0.2065
 7666TIP3    H147193   6.341   0.562   0.459  0.2834 -0.1259  0.1288
 7666TIP3    H247194   6.373   0.528   0.604  0.7742 -0.7637 -0.1248
 7667TIP3   OH247195   5.075   4.775   0.747  0.3902 -0.3066  0.2114
 7667TIP3    H147196   5.088   4.816   0.662 -0.2676 -1.1825 -0.3235
 7667TIP3    H247197   5.159   4.736   0.769  0.2561 -1.0386 -0.5583
 7668TIP3   OH247198   4.044   6.439   1.815 -0.6089 -0.0951 -0.2741
 7668TIP3    H147199   4.020   6.351   1.786 -0.2606 -0.4267  0.4370
 7668TIP3    H247200   3.967   6.471   1.861  0.3347 -1.3113  2.3557
 7669TIP3   OH247201   0.745   3.958   2.340  0.3340 -0.4159  0.6672
 7669TIP3    H147202   0.689   3.975   2.265  0.1690  2.4939  1.3522
 7669TIP3    H247203   0.788   3.875   2.320  0.7298  0.5264 -2.9070
 7670TIP3   OH247204   0.903   1.643   3.563  0.4222 -0.1036 -0.0191
 7670TIP3    H147205   0.944   1.597   3.490  0.0047 -1.2501  0.4525
 7670TIP3    H247206   0.809   1.640   3.544  0.3240 -0.2482  0.4675
 7671TIP3   OH247207   2.239   2.678   2.116  0.2666 -0.1577  0.0660
 7671TIP3    H147208   2.248   2.643   2.027 -1.0749 -1.3792  0.3810
 7671TIP3    H247209   2.161   2.636   2.151  0.4607  0.7168  1.6501
 7672TIP3   OH247210   2.151   7.658   0.793 -0.5008 -0.2703 -0.0270
 7672TIP3    H147211   2.184   7.668   0.704 -1.5246  0.5257 -0.3351
 7672TIP3    H247212   2.076   7.717   0.798  0.4795  0.9323  1.8460
 7673TIP3   OH247213   0.062   2.038   3.213  0.3178  0.6033  0.1373
 7673TIP3    H147214   0.152   2.055   3.243  0.1343  0.3276  0.8717
 7673TIP3    H247215   0.066   1.951   3.173  0.2761  0.3486  0.6674
 7674TIP3   OH247216   0.219   0.495   1.925  0.6034  0.0443  0.0496
 7674TIP3    H147217   0.148   0.550   1.894  0.4333 -0.6667 -0.8951
 7674TIP3    H247218   0.298   0.548   1.912  0.3207  0.5590  0.4159
 7675TIP3   OH247219   7.598   4.614   1.106 -0.0220 -0.2341 -0.3459
 7675TIP3    H147220   7.651   4.667   1.046 -1.4039  1.5001 -0.0965
 7675TIP3    H247221   7.530   4.673   1.138  0.3720 -1.2387  2.6098
 7676TIP3   OH247222   0.359   1.926   1.158  0.0387 -0.8827 -0.2154
 7676TIP3    H147223   0.423   1.867   1.118 -0.1744 -1.0639 -0.2906
 7676TIP3    H247224   0.299   1.949   1.086  0.8592  0.4607 -0.5163
 7677TIP3   OH247225   0.718   7.009   2.318 -0.1957 -0.2774 -0.0229
 7677TIP3    H147226   0.781   6.967   2.376  1.6436  0.3838 -1.4462
 7677TIP3    H247227   0.724   7.102   2.339 -0.1819 -0.1386 -0.6128
 7678TIP3   OH247228   4.183   0.787   0.681 -0.1162  0.5229  0.5958
 7678TIP3    H147229   4.179   0.880   0.701 -0.3053  0.5476  0.4463
 7678TIP3    H247230   4.258   0.754   0.731  0.8675  1.0353 -0.4789
 7679TIP3   OH247231   4.482   6.720   0.939 -0.4722 -0.4340 -0.0610
 7679TIP3    H147232   4.414   6.777   0.974 -2.0695 -2.5171  0.4190
 7679TIP3    H247233   4.496   6.751   0.850 -1.0896  0.8438  0.2569
 7680TIP3   OH247234   4.162   4.065   1.253  0.2974  0.1486  0.2383
 7680TIP3    H147235   4.165   4.075   1.348  1.6643  0.9314  0.1427
 7680TIP3    H247236   4.185   3.973   1.238  1.9944  0.4720  0.6243
 7681TIP3   OH247237   0.112   4.823   1.188  0.5293 -0.5515  0.1617
 7681TIP3    H147238   0.132   4.837   1.281  5.8147  2.3041 -0.9899
 7681TIP3    H247239   0.085   4.910   1.156 -0.4719 -1.3057 -1.1559
 7682TIP3   OH247240   1.830   0.138   1.745 -0.2273 -0.0407  0.0246
 7682TIP3    H147241   1.915   0.118   1.784  0.0374 -0.7175 -0.8544
 7682TIP3    H247242   1.768   0.083   1.792 -0.4248  1.4523  1.6054
 7683TIP3   OH247243   2.612   1.580   1.115 -0.1835 -0.2750 -0.2323
 7683TIP3    H147244   2.616   1.647   1.182 -0.1671 -1.7664  1.3345
 7683TIP3    H247245   2.659   1.505   1.153 -1.6879 -1.7632 -1.1489
 7684TIP3   OH247246   6.317   2.749   2.397 -0.0449  0.0095  0.8121
 7684TIP3    H147247   6.254   2.695   2.444  0.6663 -0.8732  0.8023
 7684TIP3    H247248   6.350   2.811   2.462 -0.7489  0.3307  0.8696
 7685TIP3   OH247249   1.687   3.332   1.049  0.3727 -0.3762 -0.1385
 7685TIP3    H147250   1.686   3.308   0.956 -0.8545  0.6128 -0.4028
 7685TIP3    H247251   1.648   3.420   1.052  0.7106 -0.2454  1.2797
 7686TIP3   OH247252   1.288   6.636   1.718 -0.0743 -0.2253 -0.1917
 7686TIP3    H147253   1.235   6.563   1.688  1.1013 -1.2354  0.1329
 7686TIP3    H247254   1.366   6.635   1.663 -0.3770  1.2801 -0.7074
 7687TIP3   OH247255   3.555   0.080   2.537  0.0601  0.4028 -0.0869
 7687TIP3    H147256   3.527  -0.011   2.534 -1.4754  0.8208  0.4746
 7687TIP3    H247257   3.649   0.077   2.518  0.1263 -1.3246  0.3460
 7688TIP3   OH247258   4.575   6.334   0.726  0.3052 -0.3570  0.2529
 7688TIP3    H147259   4.567   6.339   0.822  0.4333 -0.2303  0.2569
 7688TIP3    H247260   4.669   6.320   0.711  0.2536 -0.6045  0.1547
 7689TIP3   OH247261   7.184   4.719   2.199  0.1504  0.3534 -0.0367
 7689TIP3    H147262   7.253   4.749   2.140  0.4773  0.3776  0.3502
 7689TIP3    H247263   7.228   4.657   2.257 -0.1185  0.4802  0.3078
 7690TIP3   OH247264   0.885   4.991   1.565  0.7575  0.1216  0.1029
 7690TIP3    H147265   0.895   4.897   1.580  0.6851  0.2873  1.2511
 7690TIP3    H247266   0.794   5.001   1.537  0.3372  0.0062  1.3729
 7691TIP3   OH247267   0.781   3.591   3.553  0.2201  0.8028  0.5579
 7691TIP3    H147268   0.862   3.576   3.602  1.3050 -1.5923 -1.7255
 7691TIP3    H247269   0.722   3.521   3.582  0.6063 -0.1721 -0.8782
 7692TIP3   OH247270   3.133   3.606   0.488 -0.5802  0.0689  0.2168
 7692TIP3    H147271   3.176   3.520   0.497  1.3814  1.1556  2.7172
 7692TIP3    H247272   3.045   3.592   0.522 -0.8523 -1.2743 -0.9420
 7693TIP3   OH247273   6.191   1.584   6.779  0.0481  0.4290 -0.2806
 7693TIP3    H147274   6.263   1.522   6.777 -0.4342 -0.3301  2.1198
 7693TIP3    H247275   6.232   1.669   6.792  0.5877  0.2620 -0.8752
 7694TIP3   OH247276   3.295   3.109   2.119  0.0045  0.5770  0.9013
 7694TIP3    H147277   3.208   3.142   2.096  0.8428  2.0074 -0.4199
 7694TIP3    H247278   3.321   3.161   2.195  0.4080  1.4355  0.1951
 7695TIP3   OH247279   4.251   4.260   1.059  1.0128 -0.2391  0.2415
 7695TIP3    H147280   4.298   4.335   1.094 -1.0166  1.5209 -0.5618
 7695TIP3    H247281   4.197   4.229   1.133 -1.3490  1.8790 -0.4354
 7696TIP3   OH247282   4.306   0.633   2.437 -0.1704 -0.0416 -0.2812
 7696TIP3    H147283   4.278   0.651   2.526 -1.8029  1.6056 -1.0674
 7696TIP3    H247284   4.377   0.696   2.421 -0.5061  0.2918 -0.4518
 7697TIP3   OH247285   3.497   3.622   1.463  0.1441  0.2383 -0.5693
 7697TIP3    H147286   3.412   3.599   1.426 -0.2130  0.8913 -0.1701
 7697TIP3    H247287   3.484   3.619   1.558  0.7481 -0.2980 -0.4884
 7698TIP3   OH247288   0.748   7.666   2.109  0.3490  0.6491 -0.0724
 7698TIP3    H147289   0.799   7.700   2.035  1.4131 -0.0419  0.3289
 7698TIP3    H247290   0.761   7.572   2.106 -0.0653  0.5596  0.6715
 7699TIP3   OH247291   0.110   2.964   1.527 -0.3087  0.4753 -0.3152
 7699TIP3    H147292   0.155   2.983   1.444  0.4893 -0.9526 -0.2435
 7699TIP3    H247293   0.175   2.982   1.595 -0.8850  1.4129  0.0061
 7700TIP3   OH247294   1.451   6.864   0.759  0.2997  0.2913 -0.7005
 7700TIP3    H147295   1.493   6.938   0.716  0.3290  0.0269 -1.1433
 7700TIP3    H247296   1.363   6.862   0.722 -0.6881  1.8341  1.4251
 7701TIP3   OH247297   7.669   7.468   1.375 -0.0270  0.0509 -0.3060
 7701TIP3    H147298   7.618   7.503   1.448 -1.4314  0.4558 -1.4436
 7701TIP3    H247299   7.605   7.421   1.322  1.1676 -1.1374 -0.7391
 7702TIP3   OH247300   2.484   5.464   0.372  1.1312  0.6628  0.3187
 7702TIP3    H147301   2.481   5.370   0.356 -1.6941  0.8027 -0.4396
 7702TIP3    H247302   2.533   5.500   0.298  0.3748 -0.0229 -0.5314
 7703TIP3   OH247303   3.788   6.832   1.177 -0.5004  0.4603 -0.4131
 7703TIP3    H147304   3.722   6.890   1.141 -1.6822 -0.7624 -0.3237
 7703TIP3    H247305   3.757   6.813   1.266  0.5384  0.7022  0.0118
 7704TIP3   OH247306   7.525   6.713   1.058  0.5597 -0.1357  0.3618
 7704TIP3    H147307   7.598   6.732   0.998  0.6538  0.0488  0.5335
 7704TIP3    H247308   7.556   6.639   1.110  0.2454 -0.6801 -0.2163
 7705TIP3   OH247309   3.102   5.940   2.603  0.5846 -0.2262 -0.4392
 7705TIP3    H147310   3.122   5.920   2.694  2.0424 -0.6299 -0.8176
 7705TIP3    H247311   3.165   5.888   2.553 -0.7256 -0.6453 -1.7191
 7706TIP3   OH247312   4.409   1.827   0.576  0.4547  0.7653 -0.0486
 7706TIP3    H147313   4.433   1.780   0.496 -0.0712 -2.2474  1.4330
 7706TIP3    H247314   4.323   1.792   0.599  0.0798  2.4422  1.2289
 7707TIP3   OH247315   7.087   2.152   1.904 -0.5315  0.5534 -0.0853
 7707TIP3    H147316   7.113   2.182   1.991 -0.0036 -2.4007  0.8960
 7707TIP3    H247317   7.170   2.139   1.857 -0.6310 -0.7243  0.0605
 7708TIP3   OH247318   3.560   6.869   1.627  0.6015  0.4566 -0.2236
 7708TIP3    H147319   3.508   6.790   1.633 -0.4693  1.1600 -0.0687
 7708TIP3    H247320   3.532   6.922   1.701 -0.1110  1.7977 -1.4087
 7709TIP3   OH247321   4.364   7.379   2.108 -0.3188  0.0795  0.0771
 7709TIP3    H147322   4.338   7.288   2.097  1.2586 -0.4420  0.3010
 7709TIP3    H247323   4.358   7.396   2.202 -0.7558  0.2669  0.0194
 7710TIP3   OH247324   4.686   0.162   1.176 -0.1183  0.5183  0.2166
 7710TIP3    H147325   4.619   0.223   1.208  0.3051  0.5833  1.0080
 7710TIP3    H247326   4.681   0.087   1.234  1.3840  1.0913  1.1525
 7711TIP3   OH247327   4.661   4.305   1.515 -0.5980  0.0573  0.0946
 7711TIP3    H147328   4.743   4.314   1.467 -0.6561 -2.4472 -0.6019
 7711TIP3    H247329   4.663   4.217   1.551 -1.9769  0.7687  2.0917
 7712TIP3   OH247330   5.012   0.169   0.506 -0.7933 -0.1748 -0.4406
 7712TIP3    H147331   5.037   0.158   0.598  1.0424 -1.1689 -0.9974
 7712TIP3    H247332   5.057   0.250   0.479  0.3229 -0.9334 -0.9432
 7713TIP3   OH247333   1.626   1.407   0.436  0.0207  0.7963  0.2139
 7713TIP3    H147334   1.679   1.341   0.392  0.9418  1.9460 -0.4762
 7713TIP3    H247335   1.687   1.451   0.496 -0.6076  0.9149  0.7743
 7714TIP3   OH247336   0.597   2.106   1.362  0.1231  0.2870 -0.1943
 7714TIP3    H147337   0.618   2.200   1.358  0.9187  0.0904 -0.8564
 7714TIP3    H247338   0.516   2.097   1.313 -0.4094  0.7487  0.5822
 7715TIP3   OH247339   1.484   3.543   0.858 -0.2708 -0.3350 -0.1865
 7715TIP3    H147340   1.461   3.630   0.826 -0.5072 -0.1819  0.3859
 7715TIP3    H247341   1.546   3.559   0.929  1.5131 -0.7303 -1.5861
 7716TIP3   OH247342   2.949   1.176   1.563 -0.4040  0.3325 -0.0147
 7716TIP3    H147343   2.896   1.227   1.502 -1.7284 -2.4643 -1.4360
 7716TIP3    H247344   2.895   1.168   1.642 -0.1918  1.0867  0.2104
 7717TIP3   OH247345   6.581   3.909   2.546 -0.0862  0.2037 -0.4670
 7717TIP3    H147346   6.556   3.826   2.586 -0.4022 -0.1845 -1.4355
 7717TIP3    H247347   6.677   3.903   2.538  0.2319  1.1168  1.9834
 7718TIP3   OH247348   3.162   0.311   2.368  0.7786  0.1705 -0.1955
 7718TIP3    H147349   3.086   0.369   2.374  1.2759  0.8254 -0.1096
 7718TIP3    H247350   3.232   0.359   2.412  1.4518 -0.0650 -0.9891
 7719TIP3   OH247351   5.535   4.145   2.471 -0.5641  0.0519  0.5462
 7719TIP3    H147352   5.557   4.073   2.529  0.8658  0.0325 -0.0004
 7719TIP3    H247353   5.498   4.103   2.393 -1.8422  0.0478  1.1211
 7720TIP3   OH247354   3.923   2.613   2.284 -0.5975 -0.8028  0.1521
 7720TIP3    H147355   3.962   2.525   2.280  1.2137 -0.0549  0.5585
 7720TIP3    H247356   3.997   2.671   2.300 -1.7568  0.8267 -0.2163
 7721TIP3   OH247357   2.571   3.912   1.702 -0.0447 -0.0971  0.2130
 7721TIP3    H147358   2.562   3.834   1.757  0.3055 -0.1073  0.2537
 7721TIP3    H247359   2.650   3.955   1.734  0.5798 -0.4887 -0.7529
 7722TIP3   OH247360   6.818   2.067   2.309  0.2304 -0.1171 -0.4190
 7722TIP3    H147361   6.731   2.030   2.296  0.5194 -0.6030 -1.0142
 7722TIP3    H247362   6.801   2.158   2.335 -0.5393 -1.1941  3.3996
 7723TIP3   OH247363   7.335   5.486   2.398 -0.1807 -0.0944  0.0766
 7723TIP3    H147364   7.392   5.550   2.440 -0.1284 -0.3080  0.3399
 7723TIP3    H247365   7.250   5.529   2.393  0.0663  0.3244 -0.5628
 7724TIP3   OH247366   5.830   6.054   1.931 -0.3257  0.2642  0.7897
 7724TIP3    H147367   5.736   6.045   1.914 -0.1650 -0.0604 -0.0048
 7724TIP3    H247368   5.864   5.965   1.918 -0.2334 -0.1456  3.3538
 7725TIP3   OH247369   2.049   3.172   0.874 -0.2268  0.9320 -0.2658
 7725TIP3    H147370   2.007   3.194   0.792 -1.5847  0.3134  0.2319
 7725TIP3    H247371   2.138   3.208   0.866 -0.0917  0.2830 -2.2605
 7726TIP3   OH247372   1.493   0.864   2.139  0.1882  0.2061 -0.1743
 7726TIP3    H147373   1.451   0.783   2.169  1.3745 -0.3232  0.1261
 7726TIP3    H247374   1.481   0.926   2.210  1.8932 -0.6564  0.9250
 7727TIP3   OH247375   0.943   1.146   2.347 -0.0486  0.2948  0.3974
 7727TIP3    H147376   0.870   1.089   2.321 -1.5820  0.6877  3.3743
 7727TIP3    H247377   1.015   1.085   2.366  0.0299 -0.1996 -1.3210
 7728TIP3   OH247378   6.320   0.501   1.689  0.1616 -0.3784 -0.6655
 7728TIP3    H147379   6.229   0.518   1.667  0.4915 -0.1320 -1.9129
 7728TIP3    H247380   6.343   0.568   1.754 -0.7594 -0.9548  0.2948
 7729TIP3   OH247381   4.805   4.970   0.720 -0.1805  0.7087  0.0588
 7729TIP3    H147382   4.762   4.885   0.712  0.5933  0.4180 -1.2807
 7729TIP3    H247383   4.885   4.952   0.769 -0.4332  0.8316  0.5235
 7730TIP3   OH247384   0.969   4.743   1.594 -0.3176  0.5668  0.6030
 7730TIP3    H147385   1.039   4.753   1.659 -0.5437 -0.5395  1.0438
 7730TIP3    H247386   0.934   4.655   1.610 -1.4309  0.8821  0.0102
 7731TIP3   OH247387   7.232   1.981   0.635  0.1808  0.0185  0.3340
 7731TIP3    H147388   7.279   2.064   0.635  0.1410  0.0969  2.2781
 7731TIP3    H247389   7.296   1.917   0.606  0.3259  0.6470 -0.7999
 7732TIP3   OH247390   2.743   4.818   0.648 -0.7041 -0.0406  0.3636
 7732TIP3    H147391   2.786   4.737   0.675 -0.3649 -0.0366 -0.1432
 7732TIP3    H247392   2.681   4.790   0.581  1.0094  0.3685 -1.4819
 7733TIP3   OH247393   5.416   3.152   2.577  0.4067  0.4043  0.1264
 7733TIP3    H147394   5.508   3.175   2.563  0.2577  0.6249 -0.4965
 7733TIP3    H247395   5.406   3.153   2.672  1.2486 -0.4059  0.2433
 7734TIP3   OH247396   6.566   5.995   3.765 -0.3146 -0.3383 -0.4673
 7734TIP3    H147397   6.541   6.086   3.755  1.0086  0.2712  1.1551
 7734TIP3    H247398   6.662   5.997   3.772 -0.3689 -1.5648  1.6073
 7735TIP3   OH247399   3.072   6.135   1.261  0.0952 -0.5477 -0.0810
 7735TIP3    H147400   3.059   6.047   1.226  3.7787 -0.6888 -1.4983
 7735TIP3    H247401   3.081   6.122   1.356 -0.7424 -1.4678 -0.1089
 7736TIP3   OH247402   1.084   1.691   2.262 -0.3882 -0.3873 -0.1264
 7736TIP3    H147403   1.009   1.662   2.312 -0.5032 -1.2644 -0.7875
 7736TIP3    H247404   1.121   1.763   2.313 -1.3894 -0.2627  0.4372
 7737TIP3   OH247405   3.296   6.483   0.550 -0.0908 -0.4011  0.1890
 7737TIP3    H147406   3.370   6.493   0.609  0.6244 -0.2760 -0.7146
 7737TIP3    H247407   3.226   6.449   0.606  0.9752 -1.6290  0.8280
 7738TIP3   OH247408   3.564   0.984   2.578 -0.2958  0.1940  0.0842
 7738TIP3    H147409   3.611   1.067   2.573 -0.3963  0.3678  1.5346
 7738TIP3    H247410   3.488   1.003   2.633 -2.4159  0.0578 -2.5821
 7739TIP3   OH247411   6.404   6.441   1.728 -0.2200 -0.2234  0.0848
 7739TIP3    H147412   6.317   6.441   1.689 -0.8518  0.0342  1.4374
 7739TIP3    H247413   6.402   6.515   1.790  0.5806 -0.8904  0.9297
 7740TIP3   OH247414   3.949   7.658   1.667  0.1596 -0.0471  0.0366
 7740TIP3    H147415   3.909   7.577   1.636  0.3853  0.1742 -0.8637
 7740TIP3    H247416   3.983   7.700   1.588  0.2579  0.8118  0.5206
 7741TIP3   OH247417   4.819   1.029   2.158 -0.3409 -0.4562  0.1588
 7741TIP3    H147418   4.782   0.954   2.205 -0.8504 -0.2767  0.0491
 7741TIP3    H247419   4.854   0.992   2.077 -0.0566 -0.6667  0.3774
 7742TIP3   OH247420   6.779   5.680   2.656 -0.4621 -0.5627 -0.2255
 7742TIP3    H147421   6.713   5.747   2.669 -1.1933 -1.3915  0.4646
 7742TIP3    H247422   6.796   5.681   2.562 -0.4363  0.5892 -0.2268
 7743TIP3   OH247423   3.560   6.791   3.329 -0.2891  0.9418  0.1130
 7743TIP3    H147424   3.550   6.782   3.235  0.5222  1.1367  0.0016
 7743TIP3    H247425   3.572   6.885   3.343  2.4354  0.6923  0.0813
 7744TIP3   OH247426   0.178   4.674   2.084 -0.3602 -0.9602  0.0182
 7744TIP3    H147427   0.241   4.701   2.018 -0.7268 -0.9850 -0.3432
 7744TIP3    H247428   0.194   4.733   2.158 -0.0667 -0.8206 -0.1548
 7745TIP3   OH247429   4.858   2.501   2.814  0.0930 -0.7453 -0.6247
 7745TIP3    H147430   4.814   2.578   2.853  0.7522  0.1938 -1.6816
 7745TIP3    H247431   4.794   2.431   2.822 -0.4137 -0.1815  0.6640
 7746TIP3   OH247432   3.185   4.599   2.597  0.1173 -0.2966 -0.5180
 7746TIP3    H147433   3.246   4.526   2.608 -0.7550 -1.0243 -0.3231
 7746TIP3    H247434   3.105   4.569   2.640  0.2172  1.4188  0.9717
 7747TIP3   OH247435   5.461   2.748   1.579 -0.2060  0.5233  0.1030
 7747TIP3    H147436   5.489   2.695   1.504  1.7295 -1.0555  1.8050
 7747TIP3    H247437   5.378   2.709   1.606  0.9752 -1.5403  1.0642
 7748TIP3   OH247438   4.933   2.964   2.348 -0.2597  0.0953  0.0639
 7748TIP3    H147439   4.867   2.940   2.412 -0.3214 -1.2811 -0.4724
 7748TIP3    H247440   4.979   2.882   2.328  0.7889  0.7823 -0.4889
 7749TIP3   OH247441   4.415   5.776   2.581  0.2124 -1.1357 -0.5019
 7749TIP3    H147442   4.445   5.726   2.657  0.5355 -1.7788 -1.0487
 7749TIP3    H247443   4.368   5.712   2.527  1.3788 -1.0621 -1.6419
 7750TIP3   OH247444   3.544   6.597   0.971  0.2845  0.6911 -0.2652
 7750TIP3    H147445   3.528   6.633   1.059  1.4733 -0.2871  0.3865
 7750TIP3    H247446   3.540   6.673   0.913 -2.0113  1.1614  0.3949
 7751TIP3   OH247447   1.997   1.346   3.031  0.7059  0.5501  0.0889
 7751TIP3    H147448   2.079   1.395   3.022  0.4872  0.8687 -0.1985
 7751TIP3    H247449   1.986   1.337   3.126  1.2572  0.1845  0.1258
 7752TIP3   OH247450   1.545   7.483   0.771 -0.1713 -0.0034 -0.1426
 7752TIP3    H147451   1.553   7.533   0.852 -0.0551  1.7579 -1.1773
 7752TIP3    H247452   1.634   7.482   0.735  0.1175 -2.1789  0.4919
 7753TIP3   OH247453   0.906   4.507   2.197 -0.0867  0.0954  0.3016
 7753TIP3    H147454   0.886   4.598   2.179 -2.0031 -0.1219  0.9942
 7753TIP3    H247455   0.828   4.459   2.167  0.6283 -1.2406  0.4896
 7754TIP3   OH247456   2.718   6.994   3.749 -0.1573  0.2871  0.3112
 7754TIP3    H147457   2.721   7.087   3.727 -0.1942  0.6496  1.7451
 7754TIP3    H247458   2.717   6.949   3.664 -3.0877  1.6550 -0.5192
 7755TIP3   OH247459   0.529   4.337   1.343 -0.2021 -0.2854 -0.4136
 7755TIP3    H147460   0.524   4.424   1.383  0.4954 -0.1936 -0.5052
 7755TIP3    H247461   0.450   4.292   1.373 -0.6848  0.4550 -0.5463
 7756TIP3   OH247462   6.504   5.673   2.215  0.3669 -0.0356 -0.1012
 7756TIP3    H147463   6.561   5.674   2.138 -1.3161  0.4382 -1.4045
 7756TIP3    H247464   6.464   5.586   2.214 -0.3658  0.2959 -0.3279
 7757TIP3   OH247465   4.537   3.312   1.420 -0.3942  0.4043  0.0549
 7757TIP3    H147466   4.509   3.378   1.484 -2.0462  0.5122 -0.7487
 7757TIP3    H247467   4.463   3.303   1.360  0.3020 -1.2563 -0.6081
 7758TIP3   OH247468   0.266   6.338   1.813  0.0781  0.6021  0.6516
 7758TIP3    H147469   0.314   6.381   1.883 -0.7425  2.6520  0.0246
 7758TIP3    H247470   0.243   6.408   1.752 -1.4167 -0.7028 -0.3901
 7759TIP3   OH247471   4.664   1.465   1.565 -0.1081  0.4419  0.6823
 7759TIP3    H147472   4.707   1.549   1.584 -0.0974  0.0573  2.6202
 7759TIP3    H247473   4.597   1.457   1.633  0.0294 -1.2081  0.6658
 7760TIP3   OH247474   4.546   6.277   2.468  0.2727 -0.1244 -0.0422
 7760TIP3    H147475   4.550   6.182   2.465 -1.1845 -0.3469  2.3620
 7760TIP3    H247476   4.606   6.302   2.539  0.3694  0.7340 -0.4094
 7761TIP3   OH247477   5.456   6.578   1.742  0.3741 -0.3073  0.5281
 7761TIP3    H147478   5.545   6.612   1.737  0.0056  0.4872 -1.5788
 7761TIP3    H247479   5.418   6.621   1.819  1.5432 -0.0604  0.9858
 7762TIP3   OH247480   4.023   1.351   1.752 -0.1738  0.6494  0.1576
 7762TIP3    H147481   3.948   1.406   1.728 -0.1878 -0.2214 -2.1242
 7762TIP3    H247482   4.092   1.413   1.777 -0.1219  1.8206 -2.5303
 7763TIP3   OH247483   2.186   0.824   2.165  0.1683  0.4136  0.5618
 7763TIP3    H147484   2.096   0.797   2.146  0.1265  1.0416 -0.1947
 7763TIP3    H247485   2.239   0.756   2.125  0.0498  1.0703 -0.7679
 7764TIP3   OH247486   0.685   0.203   1.460  0.3561  0.0060  0.6051
 7764TIP3    H147487   0.641   0.154   1.530  0.6211  0.9560  1.4499
 7764TIP3    H247488   0.748   0.140   1.423 -1.6716 -1.4078 -0.6742
 7765TIP3   OH247489   2.533   4.661   2.181 -0.4063 -0.0980  0.3175
 7765TIP3    H147490   2.500   4.716   2.252 -1.6410 -1.4538  0.8313
 7765TIP3    H247491   2.491   4.696   2.102 -0.8326 -0.0215  0.5759
 7766TIP3   OH247492   2.017   6.581   1.556  0.3530 -0.3664 -0.1368
 7766TIP3    H147493   2.029   6.661   1.506  1.7333  0.3997  1.3367
 7766TIP3    H247494   1.929   6.588   1.593  0.6944  0.7920  0.4888
 7767TIP3   OH247495   2.758   0.425   1.127 -0.2937  0.0499  0.1192
 7767TIP3    H147496   2.782   0.491   1.062 -1.3592  0.8521  0.5140
 7767TIP3    H247497   2.833   0.365   1.129  0.3678  0.8167 -0.7950
 7768TIP3   OH247498   0.305   2.677   1.176  0.2716 -0.2098  0.1656
 7768TIP3    H147499   0.301   2.757   1.230 -0.7301  0.5759 -1.0193
 7768TIP3    H247500   0.344   2.706   1.093  1.0213 -1.2276  0.1428
 7769TIP3   OH247501   0.711   6.608   2.670 -0.1009 -0.0427 -0.4714
 7769TIP3    H147502   0.798   6.568   2.669  0.8160  1.8325 -0.4904
 7769TIP3    H247503   0.723   6.690   2.717 -2.0368 -0.0468  0.1131
 7770TIP3   OH247504   4.870   1.696   0.784  0.4295  0.0283 -0.0929
 7770TIP3    H147505   4.927   1.671   0.857 -0.2136 -0.5075  0.2282
 7770TIP3    H247506   4.841   1.785   0.806 -0.4869 -0.4702  0.7700
 7771TIP3   OH247507   2.554   4.122   0.989  0.2517  0.1173 -0.0726
 7771TIP3    H147508   2.610   4.196   1.015  0.5767 -0.2660  0.3252
 7771TIP3    H247509   2.476   4.132   1.043 -1.0934  1.9311 -2.1605
 7772TIP3   OH247510   7.313   2.475   0.507  0.0403 -0.6040  0.4313
 7772TIP3    H147511   7.365   2.537   0.558  0.2359 -0.1418 -0.3041
 7772TIP3    H247512   7.247   2.529   0.464 -1.1509 -1.2008  1.4583
 7773TIP3   OH247513   1.252   1.927   2.947  0.1118  0.0934  0.0247
 7773TIP3    H147514   1.179   1.877   2.982  1.4103 -0.4311  2.1636
 7773TIP3    H247515   1.266   1.997   3.011  0.5609  1.0831 -1.1166
 7774TIP3   OH247516   4.957   6.367   2.023  0.0513 -0.2259  0.3178
 7774TIP3    H147517   4.977   6.398   1.934  0.3642  0.3938  0.5978
 7774TIP3    H247518   4.870   6.329   2.016  0.5192 -1.1830 -0.4952
 7775TIP3   OH247519   2.434   5.132   0.943 -0.4290 -1.0317 -0.5463
 7775TIP3    H147520   2.467   5.052   0.984 -0.2529 -1.1988 -1.0038
 7775TIP3    H247521   2.340   5.116   0.933 -0.3552 -1.2949 -0.8703
 7776TIP3   OH247522   5.726   5.301   0.582 -0.3553 -0.2568 -0.2353
 7776TIP3    H147523   5.724   5.279   0.489  0.6415  0.4613 -0.4489
 7776TIP3    H247524   5.645   5.349   0.598 -0.3652 -0.0710 -0.8216
 7777TIP3   OH247525   1.742   4.607   3.008  0.4354 -0.3670 -0.1798
 7777TIP3    H147526   1.824   4.627   3.053 -0.2455 -0.0596  0.9671
 7777TIP3    H247527   1.690   4.686   3.017 -1.4335 -1.7198  2.4910
 7778TIP3   OH247528   4.941   0.384   1.784 -0.0612 -0.3891 -0.1184
 7778TIP3    H147529   5.016   0.366   1.841 -0.1928 -0.3319  0.0750
 7778TIP3    H247530   4.865   0.378   1.842 -0.1308  0.4928 -0.1152
 7779TIP3   OH247531   2.139   2.833   3.018  0.0635 -0.1283  0.7251
 7779TIP3    H147532   2.057   2.797   3.052  0.4530 -1.4153  0.3309
 7779TIP3    H247533   2.113   2.888   2.944 -0.5231  0.3131  1.2485
 7780TIP3   OH247534   2.268   2.554   3.690  0.0169 -0.0970 -0.0484
 7780TIP3    H147535   2.297   2.549   3.781  0.0786  1.6450  0.0595
 7780TIP3    H247536   2.349   2.552   3.639  0.1696  1.3665  0.0875
 7781TIP3   OH247537   4.890   4.981   2.380 -0.3554 -0.1716 -0.4906
 7781TIP3    H147538   4.918   5.063   2.420  1.8415 -1.7301  1.3820
 7781TIP3    H247539   4.804   4.963   2.418  0.1055  0.2081  0.7754
 7782TIP3   OH247540   1.654   0.671   2.418 -0.3406 -0.3280 -0.2305
 7782TIP3    H147541   1.604   0.665   2.500 -0.0193 -0.9010 -0.0689
 7782TIP3    H247542   1.590   0.654   2.349 -0.3749 -1.1250 -0.0202
 7783TIP3   OH247543   1.918   3.583   1.176  0.4491 -0.1028  0.4551
 7783TIP3    H147544   1.984   3.603   1.111 -0.5309 -0.0426 -0.5578
 7783TIP3    H247545   1.920   3.657   1.237  0.7224  0.3195 -0.0618
 7784TIP3   OH247546   0.278   0.939   1.645  0.3132 -0.6375  0.0487
 7784TIP3    H147547   0.334   0.965   1.719  1.3531 -2.6713  0.0654
 7784TIP3    H247548   0.198   0.906   1.687  0.7311 -1.3946  0.2801
 7785TIP3   OH247549   4.749   7.306   2.552  0.3175 -0.0578 -0.0150
 7785TIP3    H147550   4.729   7.373   2.617 -0.1451 -0.1148 -0.0993
 7785TIP3    H247551   4.770   7.228   2.603  3.6972  0.8356  0.2262
 7786TIP3   OH247552   1.068   7.385   2.746  0.3146  0.0290 -1.2486
 7786TIP3    H147553   1.089   7.470   2.784  0.2336 -1.2144  1.9350
 7786TIP3    H247554   0.973   7.380   2.750  0.3636 -0.5687 -0.3855
 7787TIP3   OH247555   6.696   1.156   1.438  0.9573 -0.3846  0.3532
 7787TIP3    H147556   6.747   1.233   1.462  1.2949 -0.7932  0.9820
 7787TIP3    H247557   6.624   1.154   1.500 -1.1454  1.4094 -1.8464
 7788TIP3   OH247558   6.107   0.584   1.541 -0.1292 -0.3249 -0.0830
 7788TIP3    H147559   6.048   0.659   1.543  0.1593 -0.0876 -0.2948
 7788TIP3    H247560   6.123   0.569   1.448  1.2251  0.4863 -0.0163
 7789TIP3   OH247561   7.373   5.367   1.740 -0.0570 -1.0535  0.2060
 7789TIP3    H147562   7.467   5.381   1.748 -0.0548  0.5504 -1.6668
 7789TIP3    H247563   7.344   5.339   1.827  1.9192 -0.1746  1.1985
 7790TIP3   OH247564   5.670   7.359   1.366 -0.6063  0.0641 -0.5950
 7790TIP3    H147565   5.641   7.420   1.435  0.5752  0.6464 -0.5900
 7790TIP3    H247566   5.683   7.276   1.412  0.0124  0.4066 -0.1367
 7791TIP3   OH247567   5.357   0.565   2.387 -0.2877  0.2345  0.2829
 7791TIP3    H147568   5.356   0.473   2.413 -0.1854  0.2850  0.4684
 7791TIP3    H247569   5.276   0.602   2.423  0.3842  0.5679  1.5085
 7792TIP3   OH247570   0.219   5.135   1.601 -0.2841 -0.0806  0.2560
 7792TIP3    H147571   0.185   5.065   1.657 -0.9312 -0.3006 -0.4024
 7792TIP3    H247572   0.199   5.107   1.512  3.2983 -1.1772 -0.3657
 7793TIP3   OH247573   3.440   7.289   0.644  0.3066  0.4398 -0.1125
 7793TIP3    H147574   3.455   7.376   0.605 -0.8794  0.5514 -0.3553
 7793TIP3    H247575   3.379   7.305   0.716  0.5730 -0.1091  0.2376
 7794TIP3   OH247576   2.491   6.179   1.411 -0.2201 -0.0238 -0.0525
 7794TIP3    H147577   2.431   6.199   1.483 -1.0265  0.1650 -0.7681
 7794TIP3    H247578   2.478   6.250   1.348 -0.2625 -0.7063 -0.8380
 7795TIP3   OH247579   5.912   4.530   1.951 -0.2245 -0.3014 -0.1675
 7795TIP3    H147580   5.924   4.574   1.867 -0.5608  0.2354  0.0627
 7795TIP3    H247581   5.854   4.587   2.000  0.4154 -0.3338  0.6415
 7796TIP3   OH247582   1.137   5.545   2.910  0.1843  0.1820  0.5829
 7796TIP3    H147583   1.071   5.476   2.905  0.7411 -0.3216 -0.0172
 7796TIP3    H247584   1.114   5.595   2.988 -2.2802  1.4204 -0.7940
 7797TIP3   OH247585   3.565   5.697   1.457 -0.4324  0.2464 -0.0135
 7797TIP3    H147586   3.496   5.723   1.397 -1.6795 -1.4983  0.5783
 7797TIP3    H247587   3.647   5.720   1.412 -1.3545  0.7214 -1.5074
 7798TIP3   OH247588   6.854   1.232   2.582 -0.4499 -0.0901 -0.0919
 7798TIP3    H147589   6.946   1.215   2.606  0.2094  2.0761 -0.8212
 7798TIP3    H247590   6.813   1.257   2.665  0.0453  0.4601  0.0035
 7799TIP3   OH247591   6.678   4.696   1.265 -0.1380  0.7760 -0.1337
 7799TIP3    H147592   6.679   4.658   1.177  0.3512 -0.3804  0.3480
 7799TIP3    H247593   6.591   4.676   1.299 -0.2846  1.1148 -0.3100
 7800TIP3   OH247594   2.138   3.969   0.770 -0.0555 -0.2002  0.1398
 7800TIP3    H147595   2.048   3.942   0.786 -0.4230  0.6781 -0.4182
 7800TIP3    H247596   2.143   4.059   0.802  0.8988 -0.5630  1.0933
 7801TIP3   OH247597   4.797   6.481   2.222 -0.3443  0.7352 -0.1746
 7801TIP3    H147598   4.779   6.575   2.226  1.2698  1.0622 -0.1054
 7801TIP3    H247599   4.872   6.473   2.164  0.2404 -0.3892  0.6992
 7802TIP3   OH247600   2.476   2.901   1.133  0.1227 -0.6501 -0.2832
 7802TIP3    H147601   2.525   2.967   1.181 -0.6214 -0.7190  0.5990
 7802TIP3    H247602   2.508   2.817   1.167 -0.5686 -0.6958  0.2982
 7803TIP3   OH247603   5.592   0.485   2.284  0.3929  0.3237 -0.2621
 7803TIP3    H147604   5.500   0.509   2.285  0.2711 -0.1428  0.2985
 7803TIP3    H247605   5.636   0.557   2.331 -0.2476 -1.4694  3.4679
 7804TIP3   OH247606   6.507   7.030   2.919 -0.1185  0.0623 -0.3564
 7804TIP3    H147607   6.534   7.121   2.923 -2.8127  0.9298 -0.3699
 7804TIP3    H247608   6.589   6.982   2.906  1.5397  2.3068  1.0754
 7805TIP3   OH247609   3.489   3.808   2.838  0.6515  0.0352 -1.1460
 7805TIP3    H147610   3.482   3.847   2.751 -1.3970  0.5301 -0.8094
 7805TIP3    H247611   3.538   3.727   2.824  0.8620  0.3933 -2.6512
 7806TIP3   OH247612   7.225   2.720   2.307  0.4319  0.0006 -0.1185
 7806TIP3    H147613   7.302   2.731   2.362 -0.0750 -3.3106  1.5080
 7806TIP3    H247614   7.152   2.719   2.368 -0.4290 -1.0762 -1.1229
 7807TIP3   OH247615   1.786   4.814   1.731  0.2079  0.0363  0.1146
 7807TIP3    H147616   1.694   4.794   1.717  0.2119 -0.1373  0.3503
 7807TIP3    H247617   1.787   4.907   1.757  0.1298  0.1322 -0.2212
 7808TIP3   OH247618   1.921   7.256   1.915 -0.1326  0.0429  0.2948
 7808TIP3    H147619   1.972   7.242   1.995 -0.1323  1.5285  0.5690
 7808TIP3    H247620   1.924   7.171   1.870  0.7975 -0.4920  1.3245
 7809TIP3   OH247621   2.839   2.548   1.973 -0.3379 -0.4183  0.0145
 7809TIP3    H147622   2.834   2.629   1.921 -0.1298 -0.0960  0.4862
 7809TIP3    H247623   2.748   2.521   1.983 -0.6077  0.9598  1.6935
 7810TIP3   OH247624   5.662   2.384   2.911  0.6893 -0.2239 -0.3631
 7810TIP3    H147625   5.741   2.375   2.964  0.3754 -3.1130 -0.2187
 7810TIP3    H247626   5.646   2.296   2.877  0.8368  1.4078 -5.3266
 7811TIP3   OH247627   5.809   7.250   2.451 -0.0774  0.0450  0.3911
 7811TIP3    H147628   5.836   7.272   2.540  1.6463  2.9737 -0.7457
 7811TIP3    H247629   5.761   7.327   2.420  1.4199  0.1174 -1.9744
 7812TIP3   OH247630   6.584   6.629   1.117 -0.3847 -0.7240  0.1151
 7812TIP3    H147631   6.645   6.675   1.060 -0.4326 -0.1810  0.4894
 7812TIP3    H247632   6.613   6.538   1.116 -1.3151 -1.0619 -2.0196
 7813TIP3   OH247633   6.829   3.194   2.399 -0.6414  0.1473 -0.2677
 7813TIP3    H147634   6.892   3.266   2.388  0.1530 -0.2617  1.2358
 7813TIP3    H247635   6.881   3.115   2.386 -0.9884 -0.1795  0.2871
 7814TIP3   OH247636   3.089   1.375   2.628 -0.6247  0.2012 -0.7325
 7814TIP3    H147637   3.154   1.306   2.642  0.2963  0.9665 -1.1464
 7814TIP3    H247638   3.039   1.378   2.710 -0.9726 -1.2457 -0.8725
 7815TIP3   OH247639   6.908   1.843   3.147  0.4519 -0.4893  0.4060
 7815TIP3    H147640   6.859   1.901   3.205  0.1891 -1.2782  0.9987
 7815TIP3    H247641   6.851   1.767   3.135  0.1193  0.0202 -1.6167
 7816TIP3   OH247642   5.278   2.624   1.958 -0.3987  0.2704 -0.1945
 7816TIP3    H147643   5.351   2.606   1.899 -0.4527 -0.5985 -0.0196
 7816TIP3    H247644   5.201   2.623   1.901 -0.3925 -0.0121 -0.2012
 7817TIP3   OH247645   5.223   6.759   3.155 -0.3583 -0.0656  0.4572
 7817TIP3    H147646   5.309   6.793   3.180 -0.4508 -0.7199  1.7691
 7817TIP3    H247647   5.174   6.836   3.125  0.2800  0.5156  0.8772
 7818TIP3   OH247648   6.380   4.937   2.651  0.2241  0.0622  0.0940
 7818TIP3    H147649   6.385   4.899   2.563  0.1350  4.2137 -1.9518
 7818TIP3    H247650   6.471   4.946   2.679  0.4325  1.3172 -0.9116
 7819TIP3   OH247651   6.313   3.931   2.112 -0.2186 -0.2304 -0.1575
 7819TIP3    H147652   6.376   3.992   2.151 -1.6170  1.1170  0.0812
 7819TIP3    H247653   6.327   3.939   2.018 -0.2649  0.3210 -0.1200
 7820TIP3   OH247654   1.896   6.749   1.046  0.3709 -0.3697 -0.6224
 7820TIP3    H147655   1.933   6.755   0.958  0.9301 -0.9147 -0.4269
 7820TIP3    H247656   1.833   6.677   1.041 -0.2709  0.1943 -0.8091
 7821TIP3   OH247657   3.153   4.958   1.315 -0.6004 -0.2071  0.2046
 7821TIP3    H147658   3.189   5.042   1.340  1.8616 -1.1335  0.0325
 7821TIP3    H247659   3.075   4.980   1.263  0.5206  1.9819 -0.6694
 7822TIP3   OH247660   7.051   1.497   2.366 -0.0338  0.3548 -0.3045
 7822TIP3    H147661   7.043   1.524   2.275 -0.7579  1.0724 -0.0471
 7822TIP3    H247662   6.984   1.429   2.378 -1.6372  1.9402  0.2634
 7823TIP3   OH247663   4.156   3.737   2.673  0.0915  0.6984 -0.2984
 7823TIP3    H147664   4.220   3.669   2.695 -0.8345 -1.0737 -2.5988
 7823TIP3    H247665   4.208   3.816   2.660  1.8814 -0.6530 -2.0097
 7824TIP3   OH247666   7.053   2.683   1.422  0.1805  0.2222 -0.0436
 7824TIP3    H147667   7.064   2.591   1.446  0.4205 -0.0215 -1.0741
 7824TIP3    H247668   6.958   2.692   1.408  0.0570  0.3263  0.7663
 7825TIP3   OH247669   0.656   1.176   2.811  0.1309  0.2345 -0.8722
 7825TIP3    H147670   0.687   1.196   2.899 -1.1945 -0.1374 -0.2940
 7825TIP3    H247671   0.603   1.097   2.822  1.1597 -0.7095 -2.2678
 7826TIP3   OH247672   6.986   6.678   0.785  0.1508 -0.2373  0.2428
 7826TIP3    H147673   6.983   6.582   0.787 -1.0458 -0.3335 -2.5076
 7826TIP3    H247674   7.064   6.698   0.733  1.0374  0.3731  1.7343
 7827TIP3   OH247675   2.265   7.065   0.721 -0.2065 -0.2418  0.5782
 7827TIP3    H147676   2.354   7.076   0.753  0.4330  0.0909 -1.2049
 7827TIP3    H247677   2.273   7.003   0.648 -1.6138 -1.1001  1.0978
 7828TIP3   OH247678   0.062   1.514   3.034 -0.6498 -0.5751  0.2796
 7828TIP3    H147679   0.098   1.600   3.058 -0.8875 -0.2499 -0.4974
 7828TIP3    H247680  -0.023   1.534   2.994 -0.4584 -1.1354 -0.4142
 7829TIP3   OH247681   6.460   6.282   3.729  0.0335 -0.0682  0.2044
 7829TIP3    H147682   6.441   6.312   3.640 -1.6934 -0.3545  0.4285
 7829TIP3    H247683   6.473   6.362   3.780  1.0069  0.0959 -0.2957
 7830TIP3   OH247684   7.442   6.366   2.498  0.9501  0.0096  0.5452
 7830TIP3    H147685   7.441   6.288   2.554  1.2861  0.2295  0.8617
 7830TIP3    H247686   7.380   6.426   2.540  0.2195 -0.3158 -0.0405
 7831TIP3   OH247687   6.736   4.191   3.331 -0.2208  0.1470  0.0992
 7831TIP3    H147688   6.776   4.120   3.281  1.2348  1.9614 -1.4552
 7831TIP3    H247689   6.645   4.163   3.344  0.6996 -2.7691  1.1319
 7832TIP3   OH247690   4.465   3.767   2.361 -0.2939  0.2538  0.2886
 7832TIP3    H147691   4.420   3.773   2.446 -0.5172  0.5987  0.1468
 7832TIP3    H247692   4.483   3.674   2.351  0.6353  0.3158  1.1792
 7833TIP3   OH247693   7.515   5.420   2.123 -0.0371 -0.0212  0.3284
 7833TIP3    H147694   7.605   5.404   2.150  0.3149  1.0807 -0.1326
 7833TIP3    H247695   7.474   5.465   2.197  0.8445  2.7331 -0.7309
 7834TIP3   OH247696   0.557   0.165   3.064  0.2144  0.7566  0.4059
 7834TIP3    H147697   0.614   0.234   3.098  1.0712 -0.1628  0.9103
 7834TIP3    H247698   0.617   0.107   3.017 -0.4705  0.2908  0.1030
 7835TIP3   OH247699   2.617   2.149   2.724  0.3586 -0.2130  0.7487
 7835TIP3    H147700   2.545   2.154   2.787 -0.0033 -0.7943  0.3930
 7835TIP3    H247701   2.617   2.234   2.680  0.5093  0.1360  1.4144
 7836TIP3   OH247702   3.897   0.948   1.295  0.1571  0.0288  0.5552
 7836TIP3    H147703   3.851   0.975   1.215  0.6582  1.9600  0.8613
 7836TIP3    H247704   3.828   0.918   1.354 -0.5828  1.5040  0.4855
 7837TIP3   OH247705   3.551   5.241   1.816 -0.1032  0.3136  0.1388
 7837TIP3    H147706   3.578   5.189   1.740  1.9341 -0.7313  1.5121
 7837TIP3    H247707   3.600   5.323   1.807  0.2687  0.1222  0.4031
 7838TIP3   OH247708   1.357   2.361   0.592  0.3055 -0.5430  0.1108
 7838TIP3    H147709   1.274   2.378   0.548  1.0288 -1.0394 -1.5295
 7838TIP3    H247710   1.357   2.420   0.667 -0.4754  1.2563 -1.2307
 7839TIP3   OH247711   0.932   0.561   2.321  0.0164 -0.3986 -0.5937
 7839TIP3    H147712   0.869   0.492   2.303 -0.3880 -0.1529 -0.1362
 7839TIP3    H247713   0.880   0.633   2.357  0.7951 -0.9560  1.7813
 7840TIP3   OH247714   4.493   5.374   2.043 -0.2156  0.4542 -0.1366
 7840TIP3    H147715   4.564   5.310   2.050  0.4674  1.1434 -0.6230
 7840TIP3    H247716   4.440   5.359   2.121  0.2234 -0.3503  0.0231
 7841TIP3   OH247717   2.860   4.293   0.401 -0.4016  0.4613 -0.1190
 7841TIP3    H147718   2.850   4.364   0.338  0.3985  0.4578 -0.2552
 7841TIP3    H247719   2.771   4.278   0.433 -0.6769  1.0945 -0.5497
 7842TIP3   OH247720   5.365   3.147   0.867  0.0923  0.1597  0.0935
 7842TIP3    H147721   5.453   3.179   0.845  0.0001 -0.3800 -1.1319
 7842TIP3    H247722   5.328   3.119   0.783 -0.0716 -2.5408  0.9829
 7843TIP3   OH247723   3.467   5.820   1.705  0.5624 -0.2634  0.7408
 7843TIP3    H147724   3.525   5.894   1.720  0.7266 -0.3624  0.5965
 7843TIP3    H247725   3.509   5.769   1.636  0.5358 -0.5769  0.9480
 7844TIP3   OH247726   3.973   1.104   1.613  0.6317  0.0045 -0.0046
 7844TIP3    H147727   3.882   1.114   1.585  0.4883  1.0542  0.7762
 7844TIP3    H247728   3.988   1.178   1.672  1.4643 -1.1234  1.2353
 7845TIP3   OH247729   5.740   5.280   2.657  0.7772 -0.3293  0.4115
 7845TIP3    H147730   5.798   5.261   2.583  0.4318  0.5793 -0.1142
 7845TIP3    H247731   5.692   5.199   2.672  1.0986 -0.6292 -0.1317
 7846TIP3   OH247732   2.687   5.032   1.647  0.2280 -0.4008  0.2221
 7846TIP3    H147733   2.670   5.015   1.555  1.4601  2.0348 -0.5396
 7846TIP3    H247734   2.775   4.996   1.663  1.2704  1.7135 -0.4102
 7847TIP3   OH247735   3.544   1.574   0.583 -0.1780 -0.0283 -1.0713
 7847TIP3    H147736   3.603   1.607   0.515  2.0961  0.5331  1.0257
 7847TIP3    H247737   3.497   1.651   0.613  1.2046  0.3754  0.1540
 7848TIP3   OH247738   3.933   2.591   0.756 -0.3160 -0.1562  0.1578
 7848TIP3    H147739   3.953   2.525   0.689 -0.1720  1.0716 -1.0528
 7848TIP3    H247740   3.838   2.587   0.766 -0.1503 -1.7753  1.4390
 7849TIP3   OH247741   4.742   5.399   1.720 -0.1518  0.1034 -0.6118
 7849TIP3    H147742   4.676   5.355   1.665 -1.2242  0.2748  0.5007
 7849TIP3    H247743   4.766   5.333   1.785  1.9117 -0.4692 -1.8703
 7850TIP3   OH247744   2.514   5.723   0.618 -0.3109  0.2055  0.0612
 7850TIP3    H147745   2.562   5.674   0.685 -1.7415  0.1752  1.1145
 7850TIP3    H247746   2.565   5.711   0.538  0.1534 -1.7866  0.6076
 7851TIP3   OH247747   3.924   7.151   0.402 -0.0604 -0.0332 -0.6899
 7851TIP3    H147748   3.976   7.230   0.413 -0.4482  0.5112 -2.4153
 7851TIP3    H247749   3.986   7.079   0.416  0.0071  0.4963  2.1992
 7852TIP3   OH247750   5.683   1.806   1.886 -0.0625 -0.6757  0.0051
 7852TIP3    H147751   5.627   1.830   1.813  0.0214 -1.8167 -0.4506
 7852TIP3    H247752   5.772   1.824   1.856 -0.0531 -0.7868 -0.0338
 7853TIP3   OH247753   0.794   0.885   1.400 -0.2086 -0.3366  0.4997
 7853TIP3    H147754   0.742   0.846   1.329  0.4409 -0.9335  0.3435
 7853TIP3    H247755   0.874   0.915   1.357  0.0225 -0.3507  0.9172
 7854TIP3   OH247756   0.611   0.467   1.444  0.2357 -0.0587  0.1481
 7854TIP3    H147757   0.693   0.510   1.467  0.2324  0.0934 -0.1163
 7854TIP3    H247758   0.624   0.375   1.467  0.7899 -0.1985 -0.6599
 7855TIP3   OH247759   5.069   5.240   1.625 -0.1893  0.3684  0.3143
 7855TIP3    H147760   5.003   5.301   1.594 -1.4659 -1.0371  0.1184
 7855TIP3    H247761   5.038   5.212   1.711  1.9495  2.2235  1.7973
 7856TIP3   OH247762   1.743   2.359   1.775  0.1726  0.3543 -0.1459
 7856TIP3    H147763   1.706   2.277   1.806  0.9865  0.3254  0.7766
 7856TIP3    H247764   1.669   2.420   1.776 -0.6011 -0.5063 -1.4998
 7857TIP3   OH247765   0.723   7.361   0.368 -0.5395 -0.4106 -0.1893
 7857TIP3    H147766   0.698   7.269   0.358  0.5816 -0.7366 -0.0882
 7857TIP3    H247767   0.640   7.406   0.387 -1.2754 -1.2106 -1.3720
 7858TIP3   OH247768   6.992   0.145   1.264 -0.4396 -0.0476  0.6979
 7858TIP3    H147769   7.032   0.096   1.193  0.2426 -1.7143  2.1455
 7858TIP3    H247770   6.903   0.112   1.269  0.2500 -1.9056  2.1986
 7859TIP3   OH247771   3.920   3.293   0.937  0.0921 -0.1417 -0.0527
 7859TIP3    H147772   3.920   3.264   1.028  1.2108 -2.9914 -0.8445
 7859TIP3    H247773   4.013   3.294   0.912 -0.2455 -0.3103 -1.3934
 7860TIP3   OH247774   3.416   5.176   1.138  0.3877  0.4791  0.4532
 7860TIP3    H147775   3.339   5.197   1.190  0.6900  3.0101  0.0310
 7860TIP3    H247776   3.425   5.250   1.078  1.4260 -1.1989 -1.5918
 7861TIP3   OH247777   7.309   1.062   2.560 -0.0253 -0.3175  0.1464
 7861TIP3    H147778   7.291   1.008   2.637  1.0892 -0.7698  0.0981
 7861TIP3    H247779   7.404   1.067   2.555 -0.0930  0.3608 -0.7571
 7862TIP3   OH247780   5.962   6.887   2.062  0.6695 -0.0005  0.1731
 7862TIP3    H147781   5.985   6.799   2.032  0.0231  0.1021 -0.6822
 7862TIP3    H247782   5.935   6.876   2.153 -0.4042 -0.8735 -0.2299
 7863TIP3   OH247783   5.670   6.260   2.403  0.1741  0.3074 -0.0559
 7863TIP3    H147784   5.732   6.190   2.380 -0.7185 -0.1579 -1.1747
 7863TIP3    H247785   5.634   6.234   2.487  1.6481  0.7142  0.7431
 7864TIP3   OH247786   3.562   4.880   2.471 -0.3967 -0.3016  0.0332
 7864TIP3    H147787   3.650   4.868   2.506 -0.5927  0.6134  0.8997
 7864TIP3    H247788   3.561   4.831   2.389  1.0844  0.1210 -0.2601
 7865TIP3   OH247789   1.512   6.922   2.191 -0.1666  0.1377 -0.3685
 7865TIP3    H147790   1.552   6.886   2.270 -3.6102 -0.3423  1.3326
 7865TIP3    H247791   1.581   6.975   2.151  1.3836  1.4723  3.6435
 7866TIP3   OH247792   1.099   3.649   2.842  0.2334 -0.4925 -0.1139
 7866TIP3    H147793   1.077   3.724   2.897  1.5282 -0.3995  0.2937
 7866TIP3    H247794   1.159   3.684   2.776  0.4289 -1.0677 -0.2478
 7867TIP3   OH247795   1.739   5.810   2.550 -0.2632 -0.4339  0.2452
 7867TIP3    H147796   1.684   5.806   2.471  1.6088 -3.0305 -1.0653
 7867TIP3    H247797   1.715   5.732   2.600 -0.0005  0.1161  1.2439
 7868TIP3   OH247798   1.787   3.894   0.941  0.2815  0.4968 -0.6923
 7868TIP3    H147799   1.706   3.920   0.985 -0.2139  0.2297 -1.4293
 7868TIP3    H247800   1.855   3.901   1.009 -0.3537  0.7340 -0.0742
 7869TIP3   OH247801   1.281   1.705   2.029 -0.6997  0.1753  0.1277
 7869TIP3    H147802   1.228   1.674   2.102 -2.9723  0.5788 -1.2346
 7869TIP3    H247803   1.350   1.640   2.019  0.0267  0.3945  2.9232
 7870TIP3   OH247804   6.477   2.902   0.972  0.0369 -0.1592 -0.0971
 7870TIP3    H147805   6.433   2.891   1.056 -0.4074  0.5350 -0.2333
 7870TIP3    H247806   6.445   2.985   0.938  0.5818 -0.1957 -0.7339
 7871TIP3   OH247807   1.764   3.437   3.556  0.4422 -0.5121 -0.2204
 7871TIP3    H147808   1.785   3.530   3.547  0.2009 -0.1918  1.8613
 7871TIP3    H247809   1.675   3.428   3.523  0.6999 -0.1379 -1.0230
 7872TIP3   OH247810   2.832   6.221   1.978  0.1102  0.4153  0.2871
 7872TIP3    H147811   2.883   6.192   2.054  3.0473  0.5699 -1.4555
 7872TIP3    H247812   2.884   6.193   1.902 -2.7539  0.1279 -1.7236
 7873TIP3   OH247813   5.876   1.392   2.631 -0.2675  0.1053 -0.0819
 7873TIP3    H147814   5.890   1.303   2.663  0.3985  0.5191  0.8174
 7873TIP3    H247815   5.781   1.402   2.630 -0.3101  0.1417  1.9867
 7874TIP3   OH247816   4.377   6.466   1.243  0.2095  0.0235 -0.2862
 7874TIP3    H147817   4.457   6.434   1.203  0.8220  1.0201  0.1053
 7874TIP3    H247818   4.381   6.434   1.334  0.8503  1.2120  0.1211
 7875TIP3   OH247819   7.020   0.197   1.589 -0.2601  0.1042  0.5129
 7875TIP3    H147820   6.974   0.113   1.598  0.3493 -0.4223 -0.9123
 7875TIP3    H247821   6.971   0.245   1.523  0.8144 -0.1838 -0.5168
 7876TIP3   OH247822   0.191   5.416   1.288 -0.7600  0.4408  0.3559
 7876TIP3    H147823   0.154   5.429   1.201 -1.5878  0.5690  0.7162
 7876TIP3    H247824   0.182   5.500   1.332 -1.1007  0.1555  0.8424
 7877TIP3   OH247825   2.841   5.004   3.222  0.1846  0.0023 -0.1213
 7877TIP3    H147826   2.810   5.088   3.258  1.2454 -0.6252  2.5212
 7877TIP3    H247827   2.762   4.951   3.215 -0.0793  0.0993  1.6279
 7878TIP3   OH247828   3.197   6.332   1.782 -0.2556  0.6688 -0.1979
 7878TIP3    H147829   3.181   6.239   1.796  0.3081  0.0923 -2.8458
 7878TIP3    H247830   3.231   6.364   1.865  0.0733 -1.6214  0.5958
 7879TIP3   OH247831   7.288   7.379   2.982 -0.2904 -0.5769  0.0190
 7879TIP3    H147832   7.271   7.472   2.998 -0.4276 -0.9171  2.1189
 7879TIP3    H247833   7.202   7.338   2.987 -0.0562 -1.0051  0.7551
 7880TIP3   OH247834   2.611   5.208   0.401  0.1821  0.0469 -0.6122
 7880TIP3    H147835   2.581   5.193   0.311  2.6166 -0.2641 -1.4538
 7880TIP3    H247836   2.688   5.152   0.410  0.4475  0.6654  1.4230
 7881TIP3   OH247837   6.211   0.827   1.815 -0.0247 -0.3202  0.1652
 7881TIP3    H147838   6.271   0.824   1.889 -0.5621 -2.1406  0.5820
 7881TIP3    H247839   6.150   0.897   1.836  1.4917  1.0949  0.0593
 7882TIP3   OH247840   1.602   0.017   1.286  0.0387  0.2070  0.0102
 7882TIP3    H147841   1.532   0.077   1.312 -0.6228 -0.3357 -0.4517
 7882TIP3    H247842   1.623  -0.031   1.366 -0.3983  0.1126  0.0741
 7883TIP3   OH247843   3.370   0.484   2.962  0.0682 -0.3417  0.0522
 7883TIP3    H147844   3.364   0.579   2.948  0.7599 -0.1695  0.8547
 7883TIP3    H247845   3.426   0.453   2.891 -0.9083 -0.3013 -0.7620
 7884TIP3   OH247846   4.041   6.864   1.226  0.0767 -0.0414  0.3815
 7884TIP3    H147847   3.946   6.854   1.232 -0.0612 -1.3523 -2.2973
 7884TIP3    H247848   4.072   6.778   1.197  1.8087  0.9309 -0.8044
 7885TIP3   OH247849   1.959   5.783   0.636 -0.2349 -0.0541  0.1583
 7885TIP3    H147850   2.037   5.727   0.644 -0.3544 -0.3299 -0.5789
 7885TIP3    H247851   1.980   5.844   0.565 -1.2463 -1.0885 -1.0829
 7886TIP3   OH247852   1.576   1.232   1.894 -0.2088  0.3395 -0.5785
 7886TIP3    H147853   1.629   1.311   1.909  0.9896 -0.5416 -0.0333
 7886TIP3    H247854   1.618   1.164   1.947 -2.3221 -0.2484  0.4839
 7887TIP3   OH247855   0.087   5.401   1.595 -0.2049  0.3941  0.0123
 7887TIP3    H147856   0.081   5.307   1.578  3.6704 -0.4923  2.3538
 7887TIP3    H247857   0.053   5.412   1.684 -1.3270  1.3978 -0.5061
 7888TIP3   OH247858   2.788   6.828   3.475  0.1058  0.5984 -0.0989
 7888TIP3    H147859   2.751   6.796   3.393  0.8219 -1.2290  0.2566
 7888TIP3    H247860   2.841   6.904   3.450 -0.5101  0.6958 -1.1558
 7889TIP3   OH247861   2.701   3.039   1.236 -0.0350 -0.3640  0.5717
 7889TIP3    H147862   2.748   2.982   1.297 -0.1935  0.4890  1.5052
 7889TIP3    H247863   2.696   3.123   1.280 -0.0684  0.3062 -0.6715
 7890TIP3   OH247864   1.344   2.883   0.685  0.0530 -0.5101  0.0270
 7890TIP3    H147865   1.267   2.828   0.703  0.1225 -1.5209 -2.3784
 7890TIP3    H247866   1.309   2.958   0.636  0.7029 -1.8705 -2.7003
 7891TIP3   OH247867   1.238   0.028   0.629  0.0639  0.3772  0.0963
 7891TIP3    H147868   1.264   0.003   0.717  0.7204  0.7816  0.0258
 7891TIP3    H247869   1.223  -0.055   0.584  1.4217  0.1034  0.1007
 7892TIP3   OH247870   6.396   1.164   1.251  0.1700 -0.8896 -0.4041
 7892TIP3    H147871   6.304   1.160   1.225  0.5138 -2.3668 -1.5222
 7892TIP3    H247872   6.415   1.076   1.285  0.9525 -0.3458  0.6306
 7893TIP3   OH247873   2.930   0.262   1.786  0.0845 -0.7312  0.0230
 7893TIP3    H147874   2.866   0.223   1.846 -1.4928 -0.6475 -1.5207
 7893TIP3    H247875   2.965   0.337   1.833 -1.4911 -0.3667  0.6820
 7894TIP3   OH247876   2.501   1.825   1.503  0.6050 -0.1468 -0.9248
 7894TIP3    H147877   2.411   1.796   1.514  0.2975  0.5133 -1.6036
 7894TIP3    H247878   2.532   1.841   1.592 -1.0280  2.7959 -0.7603
 7895TIP3   OH247879   5.891   0.655   1.221 -0.1694 -0.3912 -0.1286
 7895TIP3    H147880   5.843   0.666   1.139 -1.6360 -0.4481  0.7036
 7895TIP3    H247881   5.848   0.582   1.265 -1.2562  1.3871  1.9459
 7896TIP3   OH247882   2.965   7.121   1.195 -0.0674  0.2738  0.2644
 7896TIP3    H147883   2.972   7.042   1.248 -1.9631 -1.2391 -1.5608
 7896TIP3    H247884   2.888   7.106   1.140 -0.2317  3.2284 -0.4707
 7897TIP3   OH247885   2.039   3.569   2.775  0.2438 -0.6854  0.3622
 7897TIP3    H147886   1.947   3.553   2.797 -0.0669  2.0355  1.4675
 7897TIP3    H247887   2.088   3.527   2.846 -0.0624 -2.4911 -0.4443
 7898TIP3   OH247888   5.562   3.818   3.059  0.6643  0.4405  0.1636
 7898TIP3    H147889   5.538   3.783   2.974  4.6007  1.3109 -1.4989
 7898TIP3    H247890   5.587   3.742   3.111  0.3507  0.0892 -0.1989
 7899TIP3   OH247891   5.259   6.129   2.630 -0.8529  0.2081 -0.1311
 7899TIP3    H147892   5.251   6.059   2.565 -0.2241 -0.8113  0.8566
 7899TIP3    H247893   5.339   6.107   2.679 -2.3702 -0.2221  2.3141
 7900TIP3   OH247894   2.734   2.396   1.611 -0.6983  0.2631 -0.1962
 7900TIP3    H147895   2.758   2.487   1.625 -1.5290  0.5810 -0.7181
 7900TIP3    H247896   2.772   2.349   1.684  0.6391  0.8699 -0.4776
 7901TIP3   OH247897   3.062   7.490   3.586  0.8513  0.0285 -0.4415
 7901TIP3    H147898   3.088   7.573   3.546  0.4963  0.2300 -0.2595
 7901TIP3    H247899   2.980   7.467   3.543 -0.8844  1.5068  1.8301
 7902TIP3   OH247900   5.306   4.977   1.037  0.1389 -0.0932 -0.0389
 7902TIP3    H147901   5.247   4.954   1.109  2.4851 -0.6127  1.8969
 7902TIP3    H247902   5.376   5.028   1.079  1.3150  0.0867 -2.0767
 7903TIP3   OH247903   1.945   0.508   2.510 -0.1487 -0.4535 -0.1811
 7903TIP3    H147904   1.929   0.445   2.580 -0.5578 -1.4893 -1.1818
 7903TIP3    H247905   2.023   0.555   2.538 -0.3001 -0.8550  0.9648
 7904TIP3   OH247906   0.060   2.058   2.907  0.3610  0.0919 -0.0114
 7904TIP3    H147907   0.133   2.111   2.938 -0.2090  0.2040  1.2018
 7904TIP3    H247908  -0.016   2.115   2.913 -0.0432 -0.4411  0.0340
 7905TIP3   OH247909   1.118   7.388   1.025  0.4521  0.1599  0.7718
 7905TIP3    H147910   1.133   7.375   0.931  0.1774  1.6436  0.4981
 7905TIP3    H247911   1.033   7.348   1.041  0.0420  0.7533  0.1598
 7906TIP3   OH247912   6.833   1.203   2.313  0.8026 -0.3463  0.2061
 7906TIP3    H147913   6.850   1.224   2.405 -1.1135 -1.8709  0.9757
 7906TIP3    H247914   6.902   1.140   2.291  1.8101  0.6878  0.2812
 7907TIP3   OH247915   6.777   0.182   7.388  0.3533  0.2145 -0.1743
 7907TIP3    H147916   6.760   0.187   7.482  1.7307  2.2495  0.0325
 7907TIP3    H247917   6.732   0.103   7.359 -1.1348  0.2154  1.9603
 7908TIP3   OH247918   2.329   7.485   2.717 -0.1386  0.6453 -0.0888
 7908TIP3    H147919   2.267   7.542   2.764 -0.4592  0.7243 -0.5991
 7908TIP3    H247920   2.409   7.489   2.769 -0.8058 -0.0923  1.0257
 7909TIP3   OH247921   1.616   2.020   0.728  0.4153  0.0241 -0.3836
 7909TIP3    H147922   1.644   2.080   0.659 -0.0833  0.1732 -0.4583
 7909TIP3    H247923   1.618   2.072   0.808 -1.1218  0.4942 -0.6094
 7910TIP3   OH247924   2.109   7.594   2.196  0.1425 -0.3616 -0.3091
 7910TIP3    H147925   2.181   7.553   2.244  0.7798 -0.7527 -1.5402
 7910TIP3    H247926   2.065   7.520   2.153 -0.7425 -0.0799  0.1021
 7911TIP3   OH247927   0.161   2.546   2.045  0.1874 -0.0217  0.0995
 7911TIP3    H147928   0.228   2.614   2.046  1.3576 -1.1177  1.7946
 7911TIP3    H247929   0.159   2.513   2.134 -2.0752 -0.5978 -0.1022
 7912TIP3   OH247930   1.885   3.120   1.564 -0.2388  0.0967 -0.3017
 7912TIP3    H147931   1.791   3.137   1.563 -0.2180  0.2038 -0.4048
 7912TIP3    H247932   1.901   3.068   1.485 -0.2863 -0.3189 -0.0441
 7913TIP3   OH247933   4.418   5.326   1.295 -0.3342  0.3499  0.1841
 7913TIP3    H147934   4.364   5.327   1.374  0.9360  0.0601  1.0895
 7913TIP3    H247935   4.447   5.235   1.288  0.1257  0.5284 -0.2302
 7914TIP3   OH247936   7.630   5.133   0.527  0.5022  0.4309  0.7019
 7914TIP3    H147937   7.568   5.202   0.502  0.0223  0.2028  1.2279
 7914TIP3    H247938   7.597   5.101   0.611 -0.8350 -2.2639 -0.7214
 7915TIP3   OH247939   3.201   5.245   2.469 -0.4215 -0.1725 -0.3351
 7915TIP3    H147940   3.210   5.339   2.450  1.3306 -0.1472  0.4718
 7915TIP3    H247941   3.273   5.203   2.422 -1.7097 -1.2615 -1.4125
 7916TIP3   OH247942   6.180   5.329   2.972  0.0175 -0.6315 -0.2529
 7916TIP3    H147943   6.256   5.335   2.914 -0.5035  1.8727 -0.7744
 7916TIP3    H247944   6.214   5.353   3.058 -0.1579  0.4824 -0.4847
 7917TIP3   OH247945   7.274   6.045   1.988  0.2181 -0.7573 -0.0044
 7917TIP3    H147946   7.262   6.139   2.002  3.0674 -0.0417 -1.5866
 7917TIP3    H247947   7.213   6.024   1.918  0.5970  0.3075 -0.6937
 7918TIP3   OH247948   2.880   5.768   2.237 -0.5388 -0.6141 -0.3251
 7918TIP3    H147949   2.854   5.814   2.157  0.6317 -0.5200 -0.6702
 7918TIP3    H247950   2.833   5.814   2.307  2.2390  2.6650 -0.3597
 7919TIP3   OH247951   3.210   6.052   0.506  0.3027  0.5235  0.7929
 7919TIP3    H147952   3.288   6.092   0.545 -0.1979  1.3337  0.9751
 7919TIP3    H247953   3.219   5.959   0.525 -0.8445  1.0117  4.5736
 7920TIP3   OH247954   5.592   0.248   0.444 -0.6409 -0.2109  0.0866
 7920TIP3    H147955   5.669   0.200   0.412 -0.5777  0.3083 -0.5688
 7920TIP3    H247956   5.630   0.323   0.491 -0.7502 -0.1524  0.0795
 7921TIP3   OH247957   6.544   5.284   1.857  0.2356  0.2519 -0.5214
 7921TIP3    H147958   6.613   5.315   1.799 -0.1871 -0.5609 -1.4857
 7921TIP3    H247959   6.525   5.195   1.827 -1.0702  0.3794 -0.1390
 7922TIP3   OH247960   7.195   1.185   1.123 -0.5686  0.1758 -0.0278
 7922TIP3    H147961   7.189   1.168   1.029 -0.6690  0.0994 -0.0073
 7922TIP3    H247962   7.119   1.240   1.142 -0.6233  0.0783  0.0343
 7923TIP3   OH247963   7.208   6.764   3.036  0.1499 -0.6395  0.9862
 7923TIP3    H147964   7.218   6.682   2.987  2.8547 -0.2528  0.7465
 7923TIP3    H247965   7.272   6.757   3.106  1.1802  1.6512  0.3598
 7924TIP3   OH247966   2.114   0.486   1.893  0.0156  0.3407  0.2862
 7924TIP3    H147967   2.040   0.547   1.889  0.5636  0.9817 -0.7474
 7924TIP3    H247968   2.137   0.473   1.801 -0.1653 -1.5395  0.4844
 7925TIP3   OH247969   6.589   2.490   3.157  0.1101  0.2192 -0.3005
 7925TIP3    H147970   6.644   2.481   3.079  0.2452 -0.8128 -0.0975
 7925TIP3    H247971   6.522   2.422   3.146  0.0996  0.1045  0.4493
 7926TIP3   OH247972   3.464   3.640   2.170  0.0782 -0.0354  0.0420
 7926TIP3    H147973   3.507   3.623   2.254 -0.3798 -0.0684  0.2726
 7926TIP3    H247974   3.408   3.564   2.156 -1.1477  0.7556  0.5483
 7927TIP3   OH247975   3.175   0.251   1.366  0.6744  0.0764 -0.9021
 7927TIP3    H147976   3.158   0.197   1.444  0.6216  0.0595 -0.9252
 7927TIP3    H247977   3.171   0.341   1.398  1.1269  0.0598 -0.7900
 7928TIP3   OH247978   5.295   6.489   1.520  0.2077  0.0680 -0.1776
 7928TIP3    H147979   5.326   6.554   1.584  1.1884  1.0880 -1.6167
 7928TIP3    H247980   5.375   6.448   1.488 -0.3587 -1.2925  0.1070
 7929TIP3   OH247981   4.241   6.291   2.444 -0.2772  0.3586 -0.0067
 7929TIP3    H147982   4.208   6.248   2.365 -1.1910 -1.2476  1.1732
 7929TIP3    H247983   4.327   6.252   2.459 -0.4679  0.0072  0.2241
 7930TIP3   OH247984   1.640   6.211   1.046  0.1069 -0.0554  0.1380
 7930TIP3    H147985   1.591   6.260   1.112 -2.4621  0.4862 -2.0041
 7930TIP3    H247986   1.591   6.129   1.037  0.1113  0.0911 -1.3907
 7931TIP3   OH247987   3.307   2.221   1.266 -0.1646  0.5587  0.6897
 7931TIP3    H147988   3.239   2.263   1.320 -0.2577 -0.3020  1.2528
 7931TIP3    H247989   3.380   2.208   1.326 -1.0738 -2.5007  1.2857
 7932TIP3   OH247990   2.760   0.538   2.683 -0.3850 -0.1208  0.1539
 7932TIP3    H147991   2.708   0.608   2.724 -2.2724 -0.8427 -0.8843
 7932TIP3    H247992   2.850   0.558   2.709 -1.0859  1.4773  1.6439
 7933TIP3   OH247993   7.038   3.332   1.326  0.1379  0.0263  0.4287
 7933TIP3    H147994   6.962   3.274   1.327  0.6075 -0.6112  1.6746
 7933TIP3    H247995   7.108   3.280   1.366  1.7008  0.0111 -2.1015
 7934TIP3   OH247996   2.210   3.987   1.297  0.0526 -0.0106  0.2236
 7934TIP3    H147997   2.177   4.041   1.369  1.7289 -0.5743  1.4742
 7934TIP3    H247998   2.295   4.025   1.276  0.2672 -0.8079 -0.3914
 7935TIP3   OH247999   1.537   3.076   2.655  0.0353  0.0735 -0.1389
 7935TIP3    H148000   1.485   3.029   2.589 -0.5555  0.5855 -0.0376
 7935TIP3    H248001   1.479   3.144   2.687  0.1075 -0.5311  1.3456
 7936TIP3   OH248002   4.396   3.654   1.386 -0.1393 -0.2098 -0.2163
 7936TIP3    H148003   4.390   3.589   1.456  0.2444  2.7608  2.8853
 7936TIP3    H248004   4.482   3.641   1.348  0.7925 -0.2528  1.7803
 7937TIP3   OH248005   2.108   1.180   1.664 -0.0797  0.0328 -0.5633
 7937TIP3    H148006   2.130   1.231   1.586  1.4517  0.0201 -0.1601
 7937TIP3    H248007   2.037   1.230   1.705 -1.4556 -0.3725 -2.3454
 7938TIP3   OH248008   1.103   0.267   1.350 -0.3757 -0.5427  0.6719
 7938TIP3    H148009   1.108   0.344   1.295 -0.4275 -0.5899  0.6008
 7938TIP3    H248010   1.176   0.276   1.411 -1.7722  0.7990  2.2519
 7939TIP3   OH248011   7.348   4.530   1.323  0.5309  0.6224  0.3208
 7939TIP3    H148012   7.302   4.467   1.267  2.0042 -0.7592  0.5876
 7939TIP3    H248013   7.396   4.476   1.386  1.7045  2.0126  0.6902
 7940TIP3   OH248014   7.482   2.189   2.258 -0.1079 -0.3656 -0.1826
 7940TIP3    H148015   7.463   2.118   2.198 -0.0244  0.2020 -0.8942
 7940TIP3    H248016   7.400   2.239   2.263  0.4167  0.6542 -1.2961
 7941TIP3   OH248017   0.393   5.622   0.435  0.0927 -0.1215 -0.4117
 7941TIP3    H148018   0.387   5.611   0.530  0.2479  0.0187 -0.3853
 7941TIP3    H248019   0.462   5.561   0.409  2.1731  1.9383 -0.0472
 7942TIP3   OH248020   4.078   1.611   1.100  0.1280 -0.4224 -0.1102
 7942TIP3    H148021   4.061   1.525   1.062  2.8873 -0.6796 -0.9566
 7942TIP3    H248022   4.088   1.594   1.194  1.8385 -1.3104 -0.4012
 7943TIP3   OH248023   3.952   6.853   2.384 -0.0579 -0.1736  0.3457
 7943TIP3    H148024   3.943   6.825   2.293 -0.4563  2.3077 -0.4463
 7943TIP3    H248025   3.864   6.883   2.409  0.1446 -0.4245  1.4024
 7944TIP3   OH248026   0.647   0.824   0.760  0.3230  0.2569 -0.3094
 7944TIP3    H148027   0.574   0.784   0.808  1.0233 -1.0883 -0.3116
 7944TIP3    H248028   0.607   0.863   0.683 -0.2131 -2.0712 -1.2910
 7945TIP3   OH248029   1.187   2.067   3.200  0.1330  0.0132  0.2468
 7945TIP3    H148030   1.216   1.982   3.232 -1.4997 -1.0007 -0.8019
 7945TIP3    H248031   1.116   2.092   3.258 -0.8540 -0.4198 -0.7343
 7946TIP3   OH248032   3.427   0.862   0.621 -0.4963  0.1651 -0.2662
 7946TIP3    H148033   3.355   0.925   0.632  0.4486  0.9166  2.4154
 7946TIP3    H248034   3.386   0.777   0.637 -0.7477  0.6428  1.9617
 7947TIP3   OH248035   6.621   1.490   1.598  0.6481 -0.2491  0.4284
 7947TIP3    H148036   6.549   1.442   1.638 -2.5013  2.8603 -0.9293
 7947TIP3    H248037   6.592   1.581   1.598  3.6240  0.9096 -2.2277
 7948TIP3   OH248038   7.321   6.482   0.681  0.2896 -0.5155  0.1196
 7948TIP3    H148039   7.409   6.467   0.647  0.5896  0.9921  0.1503
 7948TIP3    H248040   7.328   6.564   0.730 -1.0535 -0.5723  0.4414
 7949TIP3   OH248041   5.264   2.024   1.761  0.3478  0.2760  0.5319
 7949TIP3    H148042   5.206   2.001   1.834  1.2373 -0.7754  0.9324
 7949TIP3    H248043   5.206   2.062   1.695 -0.6131  0.3648  1.4019
 7950TIP3   OH248044   4.943   1.611   2.867  0.2652 -0.3709 -0.3523
 7950TIP3    H148045   4.925   1.686   2.924 -0.9880 -0.2033 -0.9246
 7950TIP3    H248046   4.892   1.539   2.905  2.4079 -1.3272  0.9081
 7951TIP3   OH248047   0.121   3.917   2.127 -0.0980 -0.4127 -0.4673
 7951TIP3    H148048   0.027   3.933   2.116 -0.5124  1.3177  3.8323
 7951TIP3    H248049   0.126   3.834   2.173  0.5708 -0.7218 -1.0725
 7952TIP3   OH248050   2.705   1.662   0.877  0.1275 -0.1101  0.3748
 7952TIP3    H148051   2.748   1.579   0.859  0.8536  0.4812 -0.7520
 7952TIP3    H248052   2.648   1.644   0.952  0.7386 -1.4486  0.5466
 7953TIP3   OH248053   7.460   7.598   2.217  0.0852  0.0208 -0.0711
 7953TIP3    H148054   7.448   7.506   2.240 -0.0506  0.5175  2.1563
 7953TIP3    H248055   7.371   7.631   2.203 -0.1158  0.3601  1.7467
 7954TIP3   OH248056   3.230   6.628   2.436 -0.1645  0.3448 -0.4084
 7954TIP3    H148057   3.286   6.612   2.512 -1.1717 -0.7389  0.1247
 7954TIP3    H248058   3.288   6.672   2.373  1.1796 -0.3884  0.2709
 7955TIP3   OH248059   4.863   4.591   2.545 -0.1203 -0.3143 -0.3605
 7955TIP3    H148060   4.778   4.627   2.571  0.1923 -0.0602  0.3535
 7955TIP3    H248061   4.872   4.614   2.453 -0.6788 -0.0482 -0.3544
 7956TIP3   OH248062   2.769   7.459   2.512  0.3053 -0.3661  0.9127
 7956TIP3    H148063   2.839   7.433   2.572  0.2709 -2.4060  0.1677
 7956TIP3    H248064   2.797   7.425   2.427 -0.5149  0.8384  0.1333
 7957TIP3   OH248065   5.335   2.797   2.788  0.2550  0.3505 -0.1251
 7957TIP3    H148066   5.374   2.772   2.704  1.5903  1.7694  0.0192
 7957TIP3    H248067   5.395   2.761   2.854 -0.0269  0.4371  0.1826
 7958TIP3   OH248068   4.518   0.696   1.359  0.8872  0.5499  0.2749
 7958TIP3    H148069   4.456   0.676   1.429 -1.3718  1.0959 -1.4148
 7958TIP3    H248070   4.603   0.703   1.402 -0.2553  0.0324  2.7785
 7959TIP3   OH248071   1.283   2.650   3.236 -0.2641 -0.0942  0.0576
 7959TIP3    H148072   1.313   2.732   3.275 -0.7272  0.5054 -0.8081
 7959TIP3    H248073   1.261   2.674   3.145 -0.2294 -1.2149 -0.2530
 7960TIP3   OH248074   3.006   3.679   2.352  0.3757  0.3813  0.1785
 7960TIP3    H148075   2.976   3.743   2.417 -1.2110 -1.5169  1.4380
 7960TIP3    H248076   2.928   3.660   2.299  1.3927  1.1289 -1.6932
 7961TIP3   OH248077   0.710   4.184   0.959 -0.3447  0.3589  0.8823
 7961TIP3    H148078   0.641   4.140   1.007 -0.5857 -0.3615 -0.0893
 7961TIP3    H248079   0.734   4.259   1.014 -0.4090 -0.5772  2.2362
 7962TIP3   OH248080   4.557   6.461   2.045  0.0956 -0.3328 -0.1021
 7962TIP3    H148081   4.616   6.475   1.971  1.3816  0.6987  1.0513
 7962TIP3    H248082   4.615   6.439   2.118 -1.0618 -0.4793  0.8114
 7963TIP3   OH248083   5.907   7.590   2.497 -0.5824  0.1397  0.1040
 7963TIP3    H148084   5.839   7.657   2.490 -0.5587  0.2117  0.5699
 7963TIP3    H248085   5.959   7.601   2.417 -1.1930 -0.0049 -0.3183
 7964TIP3   OH248086   0.845   5.921   1.171 -0.1895 -0.0707  0.1911
 7964TIP3    H148087   0.935   5.916   1.204  0.0599 -1.6724 -0.6645
 7964TIP3    H248088   0.791   5.929   1.249  0.6848  0.9056  0.7156
 7965TIP3   OH248089   7.470   1.258   1.683  0.0059  0.3040  0.2798
 7965TIP3    H148090   7.407   1.189   1.701  0.6046 -0.3404 -0.0053
 7965TIP3    H248091   7.418   1.337   1.673 -0.6667 -0.0490  0.9109
 7966TIP3   OH248092   6.808   1.130   0.739 -0.0281  0.0710  0.0297
 7966TIP3    H148093   6.820   1.224   0.749 -2.7415  0.3645  1.3721
 7966TIP3    H248094   6.731   1.121   0.683  0.1426 -1.3606 -0.0144
 7967TIP3   OH248095   2.830   3.901   1.470 -0.5257 -0.5207  0.3872
 7967TIP3    H148096   2.844   3.818   1.516 -1.7383 -2.5395 -2.5786
 7967TIP3    H248097   2.892   3.898   1.397  1.1655  2.4370  1.5162
 7968TIP3   OH248098   3.974   6.748   1.807  0.4561  0.1540  0.2622
 7968TIP3    H148099   3.912   6.676   1.799  0.3956  0.2857 -0.5429
 7968TIP3    H248100   3.923   6.826   1.785  0.8994  0.2622 -0.4120
 7969TIP3   OH248101   1.777   5.367   2.854  0.4760 -0.0988 -0.0417
 7969TIP3    H148102   1.767   5.273   2.871  1.6127 -0.1553  0.4095
 7969TIP3    H248103   1.836   5.397   2.923 -0.2884  1.0535  0.1221
 7970TIP3   OH248104   5.431   1.679   0.600  0.6149  0.1891 -0.0372
 7970TIP3    H148105   5.388   1.726   0.529 -0.2595 -0.2097  0.2166
 7970TIP3    H248106   5.493   1.743   0.637 -0.3025  1.0335  0.0808
 7971TIP3   OH248107   2.828   5.470   2.625  0.4063  0.0233 -0.2652
 7971TIP3    H148108   2.871   5.487   2.541  0.0858 -1.3702 -0.7478
 7971TIP3    H248109   2.828   5.374   2.633  0.0930  0.1165  1.1537
 7972TIP3   OH248110   3.445   6.116   0.617  0.4998 -0.5020 -0.3195
 7972TIP3    H148111   3.517   6.146   0.561 -0.3597 -0.4447 -1.4364
 7972TIP3    H248112   3.432   6.187   0.679  0.5107  0.0827 -0.9765
 7973TIP3   OH248113   6.154   1.067   0.681 -0.0779  1.0211  0.1380
 7973TIP3    H148114   6.178   1.006   0.751 -0.2693  2.0325  1.1207
 7973TIP3    H248115   6.229   1.126   0.674 -1.1360  2.5819  1.3964
 7974TIP3   OH248116   6.313   4.911   2.052  0.2568  0.1709 -0.3443
 7974TIP3    H148117   6.335   5.001   2.028  0.4325  0.5925  1.2755
 7974TIP3    H248118   6.222   4.916   2.081  0.2540 -0.1957 -0.2943
 7975TIP3   OH248119   6.318   6.607   1.917 -0.1142  0.7345 -0.2893
 7975TIP3    H148120   6.251   6.665   1.881 -1.6499 -0.3475  0.7095
 7975TIP3    H248121   6.278   6.570   1.996  2.2037  1.1451  1.1623
 7976TIP3   OH248122   7.294   7.259   2.696  0.2076 -0.2346  0.3218
 7976TIP3    H148123   7.238   7.297   2.628 -0.2168 -2.1578 -0.4700
 7976TIP3    H248124   7.300   7.327   2.763 -0.3485  1.2722 -1.0878
 7977TIP3   OH248125   6.112   3.342   0.919 -0.1844  0.3236  0.2266
 7977TIP3    H148126   6.023   3.361   0.890  0.1736  0.4283 -0.8626
 7977TIP3    H248127   6.168   3.388   0.856  0.6440 -0.2108  0.5514
 7978TIP3   OH248128   4.753   2.786   2.015  0.2419  0.0424  0.5070
 7978TIP3    H148129   4.774   2.725   1.944 -0.4150 -0.3414  0.6427
 7978TIP3    H248130   4.661   2.771   2.034  0.2525  0.5891  1.0194
 7979TIP3   OH248131   0.037   6.081   1.478  0.5138  0.0444  0.0533
 7979TIP3    H148132  -0.022   6.044   1.543 -0.2617  2.0427  0.5900
 7979TIP3    H248133   0.124   6.076   1.518  0.2626 -0.1926  0.5751
 7980TIP3   OH248134   1.751   3.259   2.837  0.2961  0.0656  0.4054
 7980TIP3    H148135   1.722   3.296   2.920  2.1683 -0.1482  1.1861
 7980TIP3    H248136   1.846   3.256   2.843  0.4622 -0.2786 -1.6232
 7981TIP3   OH248137   6.453   0.646   2.534 -0.2107  0.0300 -0.0716
 7981TIP3    H148138   6.365   0.668   2.566  0.1229  0.2341  0.7160
 7981TIP3    H248139   6.512   0.694   2.591  0.4575 -1.0246  0.1478
 7982TIP3   OH248140   7.100   2.501   1.633  0.3288  0.8498  0.1212
 7982TIP3    H148141   7.039   2.530   1.701 -0.4971  0.8687 -0.6025
 7982TIP3    H248142   7.079   2.409   1.620  0.2055  0.9447 -0.3807
 7983TIP3   OH248143   6.553   4.918   1.067 -0.2682  0.1409  0.2459
 7983TIP3    H148144   6.525   4.858   1.136  1.5853 -1.0243  0.0627
 7983TIP3    H248145   6.551   5.004   1.108 -2.5149 -0.0650  0.6676
 7984TIP3   OH248146   4.618   2.841   0.637  0.0074  0.2433  0.2183
 7984TIP3    H148147   4.536   2.792   0.646  0.8297 -0.9993  1.2713
 7984TIP3    H248148   4.639   2.869   0.726  1.4455 -0.6829  0.1976
 7985TIP3   OH248149   4.453   0.877   2.404  0.5008  0.0218  0.0883
 7985TIP3    H148150   4.531   0.927   2.429 -0.2899  2.0427 -1.2462
 7985TIP3    H248151   4.405   0.935   2.345 -1.5590 -1.5283  0.1270
 7986TIP3   OH248152   6.295   0.602   0.941 -0.5115  0.2466 -0.1185
 7986TIP3    H148153   6.362   0.604   0.873  0.5488  1.3888  0.9106
 7986TIP3    H248154   6.308   0.684   0.989 -3.1232  0.8672 -0.3270
 7987TIP3   OH248155   5.522   2.835   0.798 -0.0166  0.3950 -0.0694
 7987TIP3    H148156   5.617   2.834   0.783  0.1472 -1.8053  0.7583
 7987TIP3    H248157   5.512   2.805   0.888 -1.5423 -0.2912 -0.4451
 7988TIP3   OH248158   0.710   3.895   1.663 -0.1409 -0.4216  0.1476
 7988TIP3    H148159   0.723   3.974   1.611 -1.7257  0.0156  0.3541
 7988TIP3    H248160   0.622   3.905   1.701  0.3620 -1.4166  1.6971
 7989TIP3   OH248161   7.448   2.649   2.506  0.1596 -0.0867  0.2593
 7989TIP3    H148162   7.512   2.581   2.526  0.7870  0.4296  0.0663
 7989TIP3    H248163   7.488   2.730   2.539  0.2351  0.4496 -1.0882
 7990TIP3   OH248164   7.483   4.299   2.938  0.4234 -0.0555  0.4731
 7990TIP3    H148165   7.480   4.203   2.936  0.3278 -0.0486  0.3241
 7990TIP3    H248166   7.510   4.320   3.028 -1.4811 -0.1628  1.1159
 7991TIP3   OH248167   5.823   6.265   1.017 -0.1368 -0.5901 -0.3564
 7991TIP3    H148168   5.827   6.360   1.009 -2.1502 -0.5134 -1.1835
 7991TIP3    H248169   5.729   6.246   1.017  0.2366 -2.5847 -0.2952
 7992TIP3   OH248170   3.495   6.781   1.203  0.4132 -0.3800 -0.1087
 7992TIP3    H148171   3.400   6.786   1.195  0.3942  1.2707  0.8280
 7992TIP3    H248172   3.518   6.851   1.264  2.0391 -2.0398  1.2953
 7993TIP3   OH248173   4.402   0.783   1.799  0.0667 -0.3508 -0.0016
 7993TIP3    H148174   4.345   0.788   1.875 -0.2411 -0.2892 -0.2320
 7993TIP3    H248175   4.377   0.859   1.746  2.0367  1.1124  1.0289
 7994TIP3   OH248176   6.385   2.909   1.495  0.0022 -0.0386  0.1643
 7994TIP3    H148177   6.368   2.972   1.425  1.5430 -0.6221 -0.7653
 7994TIP3    H248178   6.317   2.842   1.484  1.0637 -0.8879 -1.7288
 7995TIP3   OH248179   2.549   2.454   0.845  0.2013  0.6953  0.3590
 7995TIP3    H148180   2.572   2.495   0.762 -2.4960 -1.1837 -1.4556
 7995TIP3    H248181   2.463   2.489   0.867  0.1792 -0.0186  1.5450
 7996TIP3   OH248182   0.520   4.732   0.762 -0.5125 -0.6168 -0.1929
 7996TIP3    H148183   0.540   4.823   0.742 -0.7042 -0.6661 -0.6127
 7996TIP3    H248184   0.461   4.704   0.693 -2.6492 -0.2723  1.3949
 7997TIP3   OH248185   3.654   5.767   1.198  0.4730 -0.2438 -0.6312
 7997TIP3    H148186   3.692   5.855   1.205 -2.7090  1.2435  0.0812
 7997TIP3    H248187   3.651   5.750   1.104  0.1897  0.9096 -0.8448
 7998TIP3   OH248188   3.406   3.123   2.618  0.2514  0.2329  0.3466
 7998TIP3    H148189   3.461   3.047   2.637 -1.2244 -0.3914  2.5266
 7998TIP3    H248190   3.466   3.197   2.622  1.3966 -0.6345 -0.0189
 7999TIP3   OH248191   1.454   4.441   3.237  0.8158 -0.0668  0.1206
 7999TIP3    H148192   1.434   4.528   3.201  0.5333  0.3404  1.2318
 7999TIP3    H248193   1.400   4.381   3.187  2.1589  0.1846 -1.7406
 8000TIP3   OH248194   5.235   2.944   1.049 -0.0436  0.0854 -0.4459
 8000TIP3    H148195   5.212   3.023   1.001 -0.4727 -0.2830 -0.8544
 8000TIP3    H248196   5.328   2.931   1.031  0.2486  0.9799  0.3392
 8001TIP3   OH248197   0.948   2.679   1.137  0.3764 -0.0226 -0.1789
 8001TIP3    H148198   1.008   2.644   1.072  1.1034  0.3952  0.2479
 8001TIP3    H248199   0.951   2.774   1.124  0.7347  0.0868  0.6221
 8002TIP3   OH248200   2.434   0.646   1.269 -0.1736  0.1644  0.3117
 8002TIP3    H148201   2.384   0.701   1.329 -1.6511 -0.6011 -0.1804
 8002TIP3    H248202   2.498   0.706   1.230 -1.0532  1.3050  0.5623
 8003TIP3   OH248203   7.209   5.600   1.030 -0.1281  0.1223 -0.7044
 8003TIP3    H148204   7.227   5.690   1.002  1.7213 -0.6764 -2.3040
 8003TIP3    H248205   7.177   5.557   0.952  0.0764 -0.8986 -0.2366
 8004TIP3   OH248206   3.811   5.913   1.516  0.3967 -0.1155 -0.3865
 8004TIP3    H148207   3.739   5.945   1.462 -0.4111 -1.7785 -0.3707
 8004TIP3    H248208   3.797   5.954   1.601 -0.7786 -0.7018 -0.2767
 8005TIP3   OH248209   2.126   6.248   1.899  0.5975  0.0750 -0.5032
 8005TIP3    H148210   2.032   6.242   1.880  0.1641 -0.9628  1.6164
 8005TIP3    H248211   2.166   6.183   1.841 -0.1943 -0.4906 -0.4423
 8006TIP3   OH248212   3.288   6.451   2.024 -0.2659  0.2251 -0.1540
 8006TIP3    H148213   3.316   6.370   2.067  4.0211  2.1745  1.2457
 8006TIP3    H248214   3.210   6.477   2.072  1.4225 -0.3462  3.1976
 8007TIP3   OH248215   5.178   6.503   3.346 -0.2484  0.5944  0.2959
 8007TIP3    H148216   5.203   6.450   3.270 -2.4040  0.7813 -0.6283
 8007TIP3    H248217   5.191   6.594   3.317  0.0242  0.6507  0.5856
 8008TIP3   OH248218   4.542   3.491   2.033 -0.7217  0.2372 -0.6869
 8008TIP3    H148219   4.572   3.466   1.945 -3.5629  0.1878 -1.7504
 8008TIP3    H248220   4.547   3.410   2.084  0.6256  0.1836 -0.8696
 8009TIP3   OH248221   1.507   4.583   2.065  0.4586 -0.1539  0.5259
 8009TIP3    H148222   1.559   4.509   2.035 -1.6168 -1.8701  0.9011
 8009TIP3    H248223   1.482   4.630   1.986  1.0624 -0.3467  0.2156
 8010TIP3   OH248224   0.043   2.608   1.164  0.1958  0.7774 -0.1304
 8010TIP3    H148225   0.122   2.661   1.158  0.5124  0.3767  0.3390
 8010TIP3    H248226   0.001   2.636   1.245  0.8653 -0.3321  0.6305
 8011TIP3   OH248227   4.899   4.849   3.223  0.1945 -0.4366 -0.3826
 8011TIP3    H148228   4.945   4.810   3.297 -0.1182  0.4042  0.2818
 8011TIP3    H248229   4.862   4.930   3.258  0.0103 -0.0347 -1.4566
 8012TIP3   OH248230   2.070   2.387   2.433 -0.4937  0.3360 -0.3883
 8012TIP3    H148231   1.983   2.349   2.421 -0.1569 -0.7799  0.5702
 8012TIP3    H248232   2.125   2.339   2.371 -0.6744  1.6006 -1.5912
 8013TIP3   OH248233   4.778   6.339   1.480  0.1816 -0.5411  0.2338
 8013TIP3    H148234   4.779   6.256   1.528  0.7411 -0.4081  0.4624
 8013TIP3    H248235   4.712   6.392   1.525  2.4157  0.5221  2.5257
 8014TIP3   OH248236   2.425   0.227   2.272 -0.0052 -0.4404 -0.0184
 8014TIP3    H148237   2.355   0.257   2.214 -0.5808 -1.4047  0.1442
 8014TIP3    H248238   2.490   0.297   2.270 -0.6143  0.1234 -0.7954
 8015TIP3   OH248239   0.320   1.525   2.400  0.5632  0.5567 -0.1216
 8015TIP3    H148240   0.398   1.569   2.434  1.2553 -1.2196  0.7499
 8015TIP3    H248241   0.317   1.442   2.448 -2.7634  1.1799  1.0843
 8016TIP3   OH248242   5.103   3.018   0.530  0.0322 -0.0191 -0.2815
 8016TIP3    H148243   5.105   3.104   0.489 -0.4576 -0.7371 -1.8486
 8016TIP3    H248244   5.188   3.012   0.575  1.2936  0.2056 -2.4726
 8017TIP3   OH248245   6.063   4.064   2.181 -0.4860  0.2204  0.0749
 8017TIP3    H148246   6.070   4.086   2.274 -1.4214  0.5183  0.0757
 8017TIP3    H248247   6.146   4.020   2.161  0.1377  1.0370  0.8040
 8018TIP3   OH248248   6.539   5.372   2.228 -0.3541 -0.5668  0.2933
 8018TIP3    H148249   6.510   5.281   2.225  0.3374 -0.7826 -0.1383
 8018TIP3    H248250   6.594   5.382   2.150 -2.2860  0.8614 -0.9984
 8019TIP3   OH248251   6.560   6.204   2.586 -0.2305  0.4471  0.0360
 8019TIP3    H148252   6.488   6.162   2.631  0.5326 -0.7106  0.2020
 8019TIP3    H248253   6.533   6.207   2.494 -0.6007  0.2755  0.1396
 8020TIP3   OH248254   6.766   5.649   0.412 -0.4487  0.2768  0.3160
 8020TIP3    H148255   6.854   5.646   0.450 -1.3443  1.0118  2.5933
 8020TIP3    H248256   6.760   5.568   0.360  1.6468  0.3613 -0.1535
 8021TIP3   OH248257   4.887   4.104   0.545  0.3164  0.5361 -0.3866
 8021TIP3    H148258   4.808   4.092   0.492 -1.7721  0.4656  2.5089
 8021TIP3    H248259   4.900   4.199   0.547  0.5519  0.5296 -1.1378
 8022TIP3   OH248260   0.859   4.172   3.163 -0.3247 -0.4851 -0.8344
 8022TIP3    H148261   0.822   4.213   3.241  0.3634 -0.7589 -0.3497
 8022TIP3    H248262   0.947   4.209   3.155 -0.2419 -0.7563 -1.2473
 8023TIP3   OH248263   6.051   5.752   1.697  0.2066  0.1491  0.1296
 8023TIP3    H148264   6.004   5.713   1.623  1.4956 -1.8137  0.2865
 8023TIP3    H248265   6.133   5.783   1.659  0.2084  0.5579  0.4642
 8024TIP3   OH248266   4.509   7.601   0.961  0.1874 -0.1424  0.4818
 8024TIP3    H148267   4.429   7.628   1.006 -1.2290 -2.0748 -0.7249
 8024TIP3    H248268   4.484   7.594   0.869  2.4856  1.7701 -0.3680
 8025TIP3   OH248269   5.110   5.654   1.230  0.3723 -0.2638 -0.5821
 8025TIP3    H148270   5.179   5.718   1.246  0.3382 -0.3114 -0.2353
 8025TIP3    H248271   5.157   5.576   1.200  0.4715 -0.2964 -0.3461
 8026TIP3   OH248272   2.553   5.213   3.184 -0.3862 -0.2799 -0.6958
 8026TIP3    H148273   2.480   5.270   3.205  0.4924  0.6953 -0.1958
 8026TIP3    H248274   2.628   5.252   3.229  0.0770 -2.3338  0.4201
 8027TIP3   OH248275   5.261   7.547   1.001 -0.5924  0.5467 -0.1022
 8027TIP3    H148276   5.266   7.584   0.913 -1.5848  0.1898 -0.3205
 8027TIP3    H248277   5.344   7.501   1.013 -0.0230  1.4524 -0.4488
 8028TIP3   OH248278   3.283   1.850   2.837 -0.3452  0.0895  0.3586
 8028TIP3    H148279   3.200   1.837   2.883 -0.5765 -0.3871 -0.1744
 8028TIP3    H248280   3.349   1.812   2.895 -0.6523 -0.6715  0.2288
 8029TIP3   OH248281   0.871   4.220   2.299 -0.3484  0.2129  0.2581
 8029TIP3    H148282   0.833   4.138   2.328  1.1609 -0.5965  0.0558
 8029TIP3    H248283   0.925   4.248   2.373 -0.0239  0.4714 -0.0753
 8030TIP3   OH248284   2.791   3.789   1.063  0.1687  0.0740  0.2428
 8030TIP3    H148285   2.808   3.795   0.969  0.6201  0.3034  0.3370
 8030TIP3    H248286   2.697   3.775   1.069 -0.2239  2.1495 -0.1797
 8031TIP3   OH248287   2.222   6.519   3.208  0.7305 -0.0518  0.5202
 8031TIP3    H148288   2.310   6.489   3.233  1.8856  2.4770 -0.1184
 8031TIP3    H248289   2.194   6.573   3.282  0.7375  0.9814 -0.2049
 8032TIP3   OH248290   5.758   4.050   3.099  0.3348 -0.3066 -0.3159
 8032TIP3    H148291   5.684   3.990   3.096 -1.2029  1.5068 -3.2499
 8032TIP3    H248292   5.833   3.994   3.121 -1.0027 -3.2809 -2.6136
 8033TIP3   OH248293   4.807   5.109   3.286  0.8513 -0.3781  0.5659
 8033TIP3    H148294   4.900   5.131   3.273  0.8972 -0.6312  0.4538
 8033TIP3    H248295   4.763   5.193   3.291  1.0727 -0.2571  0.4922
 8034TIP3   OH248296   0.773   2.467   1.495 -0.9605  0.4317  0.0636
 8034TIP3    H148297   0.708   2.532   1.521 -1.2451  0.6449 -1.0882
 8034TIP3    H248298   0.745   2.439   1.407 -0.5825 -0.9207  0.3537
 8035TIP3   OH248299   5.684   7.476   2.289  0.4347  0.0365  0.2144
 8035TIP3    H148300   5.723   7.453   2.205  0.2032  1.0538 -0.1894
 8035TIP3    H248301   5.738   7.548   2.322 -0.6482  0.9957 -0.0235
 8036TIP3   OH248302   2.187   4.317   1.668 -0.3987 -0.7038  0.1299
 8036TIP3    H148303   2.237   4.351   1.742 -0.6500 -1.2630  0.5658
 8036TIP3    H248304   2.096   4.317   1.699 -0.5704 -0.4696 -0.3609
 8037TIP3   OH248305   1.659   6.067   2.156 -0.0115 -0.2949  0.3237
 8037TIP3    H148306   1.631   6.042   2.068  2.2365 -0.8410 -0.3190
 8037TIP3    H248307   1.656   6.163   2.155  1.0748 -0.2373 -0.8009
 8038TIP3   OH248308   3.476   4.154   3.125  0.6352  0.0428  0.6832
 8038TIP3    H148309   3.484   4.234   3.073  0.2925 -0.2136  0.2264
 8038TIP3    H248310   3.386   4.156   3.158  0.7862  0.0992  1.0962
 8039TIP3   OH248311   4.155   7.485   1.450  0.0846  0.8686  0.1514
 8039TIP3    H148312   4.178   7.409   1.396 -1.7657  0.5922 -0.3163
 8039TIP3    H248313   4.115   7.447   1.529  0.7006  1.3267  0.6944
 8040TIP3   OH248314   4.353   6.969   0.756 -0.4333  0.3080  0.6950
 8040TIP3    H148315   4.401   7.016   0.824 -2.2525 -1.1183  3.1402
 8040TIP3    H248316   4.262   6.996   0.766 -1.0246 -1.2666  0.0244
 8041TIP3   OH248317   2.921   5.145   1.432  0.1395  0.1507  0.4383
 8041TIP3    H148318   2.949   5.232   1.406  1.6711 -0.4158  0.0739
 8041TIP3    H248319   2.909   5.098   1.350  1.1752 -0.5126  0.6501
 8042TIP3   OH248320   0.029   1.788   0.530 -0.4005 -0.3764 -0.5685
 8042TIP3    H148321   0.100   1.723   0.531 -0.3324 -0.2976 -0.1055
 8042TIP3    H248322   0.073   1.872   0.541 -0.4140 -0.1665 -1.9434
 8043TIP3   OH248323   1.110   0.862   3.130  0.0105  0.6901 -0.7731
 8043TIP3    H148324   1.168   0.831   3.200 -0.3659  0.9053 -0.3613
 8043TIP3    H248325   1.135   0.810   3.054 -1.7591 -1.9414  0.2887
 8044TIP3   OH248326   1.800   2.089   1.066 -0.3157  0.3265  0.0419
 8044TIP3    H148327   1.892   2.114   1.063 -0.1929 -0.1371 -2.8955
 8044TIP3    H248328   1.799   2.004   1.111  0.5186  0.8555  1.0890
 8045TIP3   OH248329   3.905   4.310   2.235 -0.6627  0.1537 -0.0061
 8045TIP3    H148330   3.944   4.235   2.281  0.3268 -0.0079 -1.0575
 8045TIP3    H248331   3.907   4.381   2.299 -0.2352 -0.3354  0.5345
 8046TIP3   OH248332   4.179   5.139   1.127 -0.2213  0.3098  0.8025
 8046TIP3    H148333   4.088   5.138   1.097 -0.1533  0.9504  0.5716
 8046TIP3    H248334   4.221   5.209   1.077  0.0885  0.8598  1.7944
 8047TIP3   OH248335   2.993   7.051   1.957 -0.2550  0.3035  0.3307
 8047TIP3    H148336   3.078   7.043   1.913 -0.5543 -1.2052 -0.0220
 8047TIP3    H248337   2.930   7.024   1.891 -0.9410  0.5107  0.8987
 8048TIP3   OH248338   3.687   7.018   1.857  0.3482  0.3178 -0.1014
 8048TIP3    H148339   3.725   6.987   1.774 -0.3350  0.8677 -0.6246
 8048TIP3    H248340   3.719   7.108   1.865  0.5380  0.2156  0.3198
 8049TIP3   OH248341   1.472   1.545   2.439 -0.0319  0.0023 -0.1483
 8049TIP3    H148342   1.447   1.482   2.371  0.0308  0.5736 -0.7204
 8049TIP3    H248343   1.390   1.587   2.464  0.2064  1.3764 -1.5142
 8050TIP3   OH248344   4.233   1.102   1.078  0.2279  0.5670  0.1303
 8050TIP3    H148345   4.288   1.180   1.086 -0.2542  0.8208  1.1172
 8050TIP3    H248346   4.157   1.120   1.133 -0.5700 -0.0260 -0.7347
 8051TIP3   OH248347   3.209   0.409   0.796  0.3411 -0.1330  0.0535
 8051TIP3    H148348   3.117   0.385   0.806 -0.4075  2.4987  0.2741
 8051TIP3    H248349   3.249   0.387   0.880 -0.7833  1.2770  1.0043
 8052TIP3   OH248350   4.868   7.077   0.750 -0.5672  0.0820  0.0524
 8052TIP3    H148351   4.858   7.160   0.796 -0.3558 -0.4843  1.1490
 8052TIP3    H248352   4.934   7.094   0.683  0.0905  0.5754  0.8187
 8053TIP3   OH248353   4.035   1.551   1.380 -0.4196  0.4027  0.0260
 8053TIP3    H148354   4.053   1.595   1.463 -0.7277 -0.2978  0.4682
 8053TIP3    H248355   3.975   1.480   1.402  1.2964 -1.2545 -0.3920
 8054TIP3   OH248356   2.458   4.040   0.554  0.4599 -0.5255 -0.7631
 8054TIP3    H148357   2.466   3.986   0.633  0.3627 -0.4700 -0.7148
 8054TIP3    H248358   2.479   3.981   0.482  2.2949 -0.1496 -0.5835
 8055TIP3   OH248359   0.347   5.965   2.527  0.1974 -0.0932 -0.1444
 8055TIP3    H148360   0.321   6.023   2.455  2.1247 -0.4520 -1.1959
 8055TIP3    H248361   0.367   6.025   2.599  0.8894  0.4977 -0.8004
 8056TIP3   OH248362   7.592   6.467   0.618 -0.3255 -0.1403 -0.2210
 8056TIP3    H148363   7.629   6.539   0.567 -1.8664  0.5107 -0.4932
 8056TIP3    H248364   7.655   6.395   0.607  0.4165  0.6331 -1.3305
 8057TIP3   OH248365   4.519   0.342   1.539  0.3103 -0.3619  0.3494
 8057TIP3    H148366   4.480   0.415   1.586  1.7944  1.5854 -1.2725
 8057TIP3    H248367   4.609   0.370   1.521  0.9246 -2.5681 -0.3994
 8058TIP3   OH248368   7.344   6.143   2.344 -0.0702 -0.3948  0.0440
 8058TIP3    H148369   7.401   6.093   2.284 -1.0986  0.5379 -1.8196
 8058TIP3    H248370   7.380   6.232   2.342 -0.4340 -0.2385  0.3938
 8059TIP3   OH248371   1.999   2.952   2.767  0.0150 -0.3024 -0.9267
 8059TIP3    H148372   1.984   3.039   2.804 -0.9509 -0.5446 -0.7312
 8059TIP3    H248373   1.912   2.913   2.760  0.6205 -2.5015  1.9536
 8060TIP3   OH248374   0.427   6.740   1.884  0.2958 -0.1911 -0.2540
 8060TIP3    H148375   0.337   6.768   1.867  0.0173 -0.8311  0.1178
 8060TIP3    H248376   0.465   6.811   1.935 -0.7166 -0.8869  1.5648
 8061TIP3   OH248377   2.895   3.178   3.362 -0.0133 -0.2737 -0.0666
 8061TIP3    H148378   2.979   3.136   3.342 -1.2718 -2.6940 -0.6555
 8061TIP3    H248379   2.897   3.191   3.457  0.6340 -1.2237  0.0672
 8062TIP3   OH248380   0.145   5.700   1.097  0.4666 -0.1958  0.2473
 8062TIP3    H148381   0.051   5.683   1.101  0.4756 -0.2074  0.4192
 8062TIP3    H248382   0.163   5.750   1.176  0.7524 -0.9310  0.6623
 8063TIP3   OH248383   4.417   2.835   2.063  0.0500 -0.6459 -0.7246
 8063TIP3    H148384   4.398   2.890   1.987 -1.2131  1.5768  1.0753
 8063TIP3    H248385   4.342   2.776   2.070  0.1900 -0.8841 -1.2017
 8064TIP3   OH248386   7.596   5.948   3.202 -0.5716 -0.2602 -0.5986
 8064TIP3    H148387   7.546   5.891   3.143 -2.2402 -2.1272  2.3690
 8064TIP3    H248388   7.638   5.888   3.263  1.6061  1.5525 -0.1629
 8065TIP3   OH248389   3.556   6.188   2.366 -0.2278  0.0757  0.3637
 8065TIP3    H148390   3.535   6.191   2.459  2.9553 -0.4851  1.2202
 8065TIP3    H248391   3.571   6.096   2.347  2.4636  0.4398  0.2662
 8066TIP3   OH248392   7.458   0.237   1.846 -0.1888  0.4916  0.5497
 8066TIP3    H148393   7.402   0.172   1.803 -1.8729  2.7703 -0.8633
 8066TIP3    H248394   7.523   0.261   1.780  1.7760 -1.1432  1.7447
 8067TIP3   OH248395   0.420   3.196   1.541 -0.2219 -0.1079  0.0305
 8067TIP3    H148396   0.367   3.275   1.553 -0.7977 -0.6715  1.4810
 8067TIP3    H248397   0.409   3.147   1.623  2.9019 -0.0530  0.6002
 8068TIP3   OH248398   0.114   7.595   0.665 -0.1540 -0.2347 -0.4638
 8068TIP3    H148399   0.150   7.538   0.733  0.5454  2.9344  2.1053
 8068TIP3    H248400   0.032   7.554   0.641 -0.8991 -1.1692  3.0392
 8069TIP3   OH248401   3.628   1.786   0.405  0.3810  0.4479 -0.1739
 8069TIP3    H148402   3.705   1.729   0.403  0.0548 -0.2369  2.5009
 8069TIP3    H248403   3.663   1.874   0.395  1.1724 -0.0018 -1.7384
 8070TIP3   OH248404   1.792   4.591   2.145 -0.3260  0.1329  0.2329
 8070TIP3    H148405   1.841   4.513   2.167  0.0228  0.2267 -0.1831
 8070TIP3    H248406   1.745   4.615   2.225 -0.7089 -0.6924  0.2659
 8071TIP3   OH248407   5.479   6.558   2.368 -0.1569 -0.3005 -0.0138
 8071TIP3    H148408   5.446   6.631   2.315  1.2096  0.1348 -0.3105
 8071TIP3    H248409   5.483   6.594   2.457  1.1835  0.2580 -0.2713
 8072TIP3   OH248410   5.690   5.066   0.759  0.4281  0.4022  0.2589
 8072TIP3    H148411   5.716   5.132   0.695 -0.0783  1.1559  0.8106
 8072TIP3    H248412   5.659   4.992   0.706 -3.1113  2.1962 -0.5003
 8073TIP3   OH248413   3.860   2.292   0.997  0.0697  0.1509  0.0271
 8073TIP3    H148414   3.769   2.276   0.972  0.0301  1.1854 -0.5179
 8073TIP3    H248415   3.855   2.344   1.076  0.1867  0.5747 -0.2430
 8074TIP3   OH248416   0.133   4.738   3.576 -0.3818 -0.1088 -0.4950
 8074TIP3    H148417   0.069   4.792   3.530 -0.2970  0.2873 -0.1526
 8074TIP3    H248418   0.157   4.789   3.653 -1.8783 -1.4881  0.9939
 8075TIP3   OH248419   6.671   4.658   2.147 -0.2449  0.2036 -0.1449
 8075TIP3    H148420   6.585   4.616   2.149 -0.6044  0.8570 -1.0177
 8075TIP3    H248421   6.732   4.590   2.174 -1.1305  0.0113  1.4978
 8076TIP3   OH248422   5.354   3.112   2.040 -0.7144  0.1229  0.0968
 8076TIP3    H148423   5.277   3.093   1.987 -0.7333  1.3437 -0.3379
 8076TIP3    H248424   5.409   3.035   2.030 -3.1697 -2.2321  2.9193
 8077TIP3   OH248425   7.240   3.632   0.545  0.5032  0.2255 -0.0162
 8077TIP3    H148426   7.214   3.678   0.625 -0.7565  1.2102 -0.9248
 8077TIP3    H248427   7.267   3.702   0.486  1.7178 -0.5139 -0.3742
 8078TIP3   OH248428   5.461   3.312   1.530  0.9141  0.2937 -0.1877
 8078TIP3    H148429   5.406   3.294   1.606 -1.3794  0.3147 -1.7283
 8078TIP3    H248430   5.460   3.230   1.480  2.8137  0.1138 -0.0100
 8079TIP3   OH248431   5.402   0.992   2.745 -0.3872 -0.2939  0.1965
 8079TIP3    H148432   5.354   1.036   2.675  0.9493  0.4511 -0.2987
 8079TIP3    H248433   5.405   0.900   2.719  0.0769 -0.0285 -0.7348
 8080TIP3   OH248434   6.695   4.474   0.639  0.0371 -0.0033 -0.1289
 8080TIP3    H148435   6.654   4.521   0.711 -0.9155  0.4955 -0.9707
 8080TIP3    H248436   6.680   4.382   0.659  0.9271  0.0664  0.9575
 8081TIP3   OH248437   3.205   7.190   2.252 -0.1344 -0.2184  0.5911
 8081TIP3    H148438   3.221   7.252   2.323 -1.2144 -0.2284  0.8518
 8081TIP3    H248439   3.279   7.130   2.255  1.3048  1.4312 -0.0981
 8082TIP3   OH248440   3.820   5.564   0.811 -0.0060 -0.1800  0.0771
 8082TIP3    H148441   3.831   5.656   0.788 -0.3177 -0.3093 -0.6086
 8082TIP3    H248442   3.841   5.560   0.904 -0.8153  0.7361  0.3189
 8083TIP3   OH248443   5.733   3.749   2.576  0.2995 -0.3157  0.0387
 8083TIP3    H148444   5.828   3.738   2.576  0.3349 -0.6259 -2.4444
 8083TIP3    H248445   5.701   3.685   2.640  1.6924 -1.2129 -0.1274
 8084TIP3   OH248446   6.835   6.845   3.263 -0.0139 -0.5265 -0.3385
 8084TIP3    H148447   6.780   6.843   3.185 -0.0794 -0.4021 -0.2952
 8084TIP3    H248448   6.785   6.895   3.327 -0.6550 -1.9127  0.3019
 8085TIP3   OH248449   6.421   5.595   2.965  0.3065 -0.3012  0.4085
 8085TIP3    H148450   6.411   5.624   2.874  2.1049  0.1862  0.3431
 8085TIP3    H248451   6.365   5.655   3.015  0.2283  0.1830 -0.2414
 8086TIP3   OH248452   2.743   4.894   0.911 -0.3584 -0.2638  0.6298
 8086TIP3    H148453   2.674   4.883   0.977  0.6869  0.4851  1.8984
 8086TIP3    H248454   2.697   4.891   0.828 -1.9560  0.3173  1.4462
 8087TIP3   OH248455   1.710   4.471   3.298  0.3365  0.3419 -0.5275
 8087TIP3    H148456   1.616   4.459   3.289  0.4805 -1.2043 -0.1308
 8087TIP3    H248457   1.728   4.553   3.250 -1.4376  1.6500  0.9099
 8088TIP3   OH248458   0.703   7.585   0.524 -0.5837 -0.4039 -0.5819
 8088TIP3    H148459   0.773   7.648   0.543 -1.1625  0.1939 -0.3997
 8088TIP3    H248460   0.749   7.509   0.489  0.1444  0.0501 -0.6442
 8089TIP3   OH248461   5.648   5.047   2.793  0.1758  0.1482  0.2498
 8089TIP3    H148462   5.731   5.002   2.777  0.9827  1.6487  0.0298
 8089TIP3    H248463   5.584   4.976   2.804  1.2386 -1.0244 -0.8060
 8090TIP3   OH248464   1.622   7.091   2.452 -0.2631  0.2340 -0.1563
 8090TIP3    H148465   1.649   7.035   2.525  0.9155 -0.6025 -1.1788
 8090TIP3    H248466   1.529   7.072   2.440 -0.6487  0.8903  1.5280
 8091TIP3   OH248467   1.577   3.031   0.912  0.0380 -0.5923  0.3347
 8091TIP3    H148468   1.492   3.067   0.936  0.5304  1.1048 -0.3818
 8091TIP3    H248469   1.634   3.054   0.985  0.8478  2.0236 -1.0310
 8092TIP3   OH248470   7.456   0.428   2.347  0.2377  0.1663  0.8430
 8092TIP3    H148471   7.414   0.380   2.276  3.3811 -0.7266 -0.5795
 8092TIP3    H248472   7.389   0.489   2.378 -2.0409 -1.1626 -1.1641
 8093TIP3   OH248473   5.069   1.694   1.296  0.4335 -0.1408  0.1436
 8093TIP3    H148474   5.103   1.634   1.362  0.0326 -1.0275 -0.4348
 8093TIP3    H248475   5.038   1.769   1.346  1.6573 -0.0560  0.8125
 8094TIP3   OH248476   0.098   0.405   2.643  0.4558 -0.1438 -0.3936
 8094TIP3    H148477   0.094   0.489   2.597 -0.3066  0.1361  0.1484
 8094TIP3    H248478   0.027   0.354   2.605 -0.7979  0.4264  1.0529
 8095TIP3   OH248479   1.236   3.419   2.599 -0.2538  0.1764  0.1326
 8095TIP3    H148480   1.239   3.507   2.637 -0.0519 -0.4933  1.7541
 8095TIP3    H248481   1.143   3.397   2.595 -0.3063  0.4545 -0.3016
 8096TIP3   OH248482   5.144   0.766   2.089  0.4977 -0.3106 -0.6741
 8096TIP3    H148483   5.155   0.674   2.112 -0.0141 -0.0769  0.5501
 8096TIP3    H248484   5.221   0.786   2.034  1.9677 -0.8040  1.1040
 8097TIP3   OH248485   3.602   7.379   1.908 -0.1643 -0.1987  0.0249
 8097TIP3    H148486   3.545   7.338   1.973 -0.2825 -0.1505 -0.0468
 8097TIP3    H248487   3.670   7.423   1.959  2.5933 -4.0626  0.0992
 8098TIP3   OH248488   6.704   3.084   2.627 -0.3742  0.1453  1.0555
 8098TIP3    H148489   6.716   3.161   2.683  1.8039 -0.9218  2.1827
 8098TIP3    H248490   6.762   3.100   2.552  0.1126 -0.3876  1.3114
 8099TIP3   OH248491   0.962   3.928   1.478  0.2157  0.0823  0.3952
 8099TIP3    H148492   0.903   3.854   1.472  0.3846  0.0558 -1.5275
 8099TIP3    H248493   0.921   3.997   1.425  0.7064  0.9115  1.0567
 8100TIP3   OH248494   0.798   6.230   2.707 -0.3198 -0.2063 -0.2347
 8100TIP3    H148495   0.788   6.169   2.780  3.6976  1.0663  1.7145
 8100TIP3    H248496   0.711   6.237   2.668 -1.7928 -4.0307  1.8789
 8101TIP3   OH248497   2.597   3.721   1.925  1.2512 -0.0242 -0.4690
 8101TIP3    H148498   2.538   3.649   1.951  0.8658  0.4650  0.0433
 8101TIP3    H248499   2.676   3.707   1.977  1.1947 -0.1080 -0.4045
 8102TIP3   OH248500   0.491   1.075   1.545  0.1735  0.3195  0.5062
 8102TIP3    H148501   0.488   1.164   1.579  0.7229  0.8492 -0.7595
 8102TIP3    H248502   0.399   1.046   1.546 -0.0659  1.0529  0.5358
 8103TIP3   OH248503   4.463   7.255   2.841 -0.1306  0.0666 -0.0247
 8103TIP3    H148504   4.486   7.171   2.882  0.2095 -0.4321 -1.1910
 8103TIP3    H248505   4.547   7.294   2.818 -0.3295  0.0257 -0.8389
 8104TIP3   OH248506   4.152   5.941   1.763  0.5938  0.0205  0.2328
 8104TIP3    H148507   4.228   5.884   1.774  0.2823 -0.6055 -0.7054
 8104TIP3    H248508   4.079   5.891   1.799  0.5155  0.3391  0.5151
 8105TIP3   OH248509   4.787   1.421   2.935 -0.6745  0.0506 -0.2102
 8105TIP3    H148510   4.797   1.332   2.903  1.0788 -0.3151  1.2457
 8105TIP3    H248511   4.696   1.443   2.915 -0.8260 -1.6338 -1.5980
 8106TIP3   OH248512   2.861   3.093   2.367  0.1409  0.5044 -0.0624
 8106TIP3    H148513   2.835   3.031   2.300  2.5673  0.8550 -1.4568
 8106TIP3    H248514   2.832   3.053   2.449 -1.9274 -0.4645 -1.1899
 8107TIP3   OH248515   5.775   7.652   1.613  0.3178 -0.2634  0.8462
 8107TIP3    H148516   5.736   7.715   1.552  0.4657 -0.7044  0.2823
 8107TIP3    H248517   5.825   7.592   1.557  1.8070  0.2735  1.5349
 8108TIP3   OH248518   5.163   5.150   2.838  0.4005  0.0588 -0.4136
 8108TIP3    H148519   5.144   5.099   2.916  0.5483  0.3905 -0.1630
 8108TIP3    H248520   5.209   5.089   2.780 -0.0191 -0.2898 -0.3910
 8109TIP3   OH248521   5.197   5.213   2.308 -0.2890 -0.3423 -0.7447
 8109TIP3    H148522   5.223   5.123   2.287 -1.5947 -0.3286 -2.7377
 8109TIP3    H248523   5.268   5.267   2.271 -0.0271 -0.5167 -0.4977
 8110TIP3   OH248524   4.827   3.370   0.756  0.2587 -0.9330 -0.0721
 8110TIP3    H148525   4.810   3.358   0.662 -1.4987 -1.8902  0.3389
 8110TIP3    H248526   4.911   3.415   0.758 -0.8927  1.5829 -2.1938
 8111TIP3   OH248527   5.042   6.912   1.903  0.2998 -0.0501 -0.4723
 8111TIP3    H148528   4.995   6.958   1.973 -0.4566 -2.1160  0.4550
 8111TIP3    H248529   5.133   6.938   1.914  0.2191 -0.4389  1.4238
 8112TIP3   OH248530   5.914   7.308   1.722  0.1021 -0.1245  0.0572
 8112TIP3    H148531   5.910   7.352   1.637 -3.1694  1.3672  0.8337
 8112TIP3    H248532   5.982   7.355   1.770  0.1368  0.7636 -0.8301
 8113TIP3   OH248533   1.047   5.905   2.091 -0.1521  0.3165  0.4700
 8113TIP3    H148534   1.003   5.845   2.031 -0.9616  2.5025 -1.2848
 8113TIP3    H248535   1.140   5.896   2.071 -0.1286 -1.3389  1.2447
 8114TIP3   OH248536   0.823   0.556   2.870 -0.1781  0.3498 -0.5616
 8114TIP3    H148537   0.811   0.488   2.936 -0.8552  0.9823 -0.0148
 8114TIP3    H248538   0.872   0.513   2.800  0.7060 -0.2875  0.4223
 8115TIP3   OH248539   1.811   4.151   1.603  0.3050 -0.1017 -0.1755
 8115TIP3    H148540   1.727   4.139   1.560  0.0260 -0.1133  0.3583
 8115TIP3    H248541   1.876   4.141   1.534 -0.0871 -1.1095 -0.4024
 8116TIP3   OH248542   6.510   5.485   1.108 -0.1451 -0.6287 -0.4908
 8116TIP3    H148543   6.494   5.392   1.120 -0.9864 -0.5449 -0.9092
 8116TIP3    H248544   6.536   5.517   1.195  0.6560 -1.3352 -0.4557
 8117TIP3   OH248545   3.631   4.003   2.950  0.3112  0.2579  0.1436
 8117TIP3    H148546   3.612   4.042   3.035 -1.4204 -0.4266  0.1354
 8117TIP3    H248547   3.558   3.942   2.935  1.3713 -0.7843 -1.1408
 8118TIP3   OH248548   4.693   3.318   1.796  0.2967 -0.2508 -0.1315
 8118TIP3    H148549   4.754   3.332   1.868  0.5817  1.6802 -0.6934
 8118TIP3    H248550   4.750   3.292   1.723  0.2514 -0.1815 -0.1914
 8119TIP3   OH248551   2.725   1.097   1.217 -0.6312  0.1831 -0.3192
 8119TIP3    H148552   2.716   1.189   1.242 -1.0428 -0.1027  0.6421
 8119TIP3    H248553   2.809   1.092   1.173 -0.3622  0.9194  0.0901
 8120TIP3   OH248554   6.526   5.312   0.512 -0.0639 -0.0227 -0.7223
 8120TIP3    H148555   6.447   5.364   0.522  0.6657  1.3130 -1.6327
 8120TIP3    H248556   6.519   5.273   0.425  0.1364 -0.1623 -0.6779
 8121TIP3   OH248557   3.255   3.267   1.399  0.0498  0.0215  0.1337
 8121TIP3    H148558   3.184   3.207   1.420 -0.9005  0.2784 -2.0056
 8121TIP3    H248559   3.293   3.231   1.319  3.8057 -1.2778  2.2908
 8122TIP3   OH248560   0.728   6.373   7.506 -0.0968 -0.3585 -0.1258
 8122TIP3    H148561   0.669   6.297   7.503 -0.9419  0.2312  0.8287
 8122TIP3    H248562   0.815   6.335   7.517 -0.1241 -1.3093 -2.5177
 8123TIP3   OH248563   0.806   3.014   0.574  0.9991 -0.5912  0.1933
 8123TIP3    H148564   0.735   3.025   0.510  0.7332  1.3575  0.7519
 8123TIP3    H248565   0.795   2.925   0.607  0.3761 -1.2090 -1.5443
 8124TIP3   OH248566   0.469   5.430   0.929  0.3056  0.0775  0.3765
 8124TIP3    H148567   0.554   5.397   0.958 -0.7259 -2.0688  1.1151
 8124TIP3    H248568   0.450   5.503   0.987  1.4518  0.3312  0.4536
 8125TIP3   OH248569   6.379   4.563   1.595  0.0526  0.1794  0.2114
 8125TIP3    H148570   6.427   4.528   1.520 -0.4304  0.4037 -0.2163
 8125TIP3    H248571   6.353   4.486   1.645  1.1036  0.0786  0.6038
 8126TIP3   OH248572   6.495   0.081   1.435  0.2490 -0.7973  0.5701
 8126TIP3    H148573   6.551   0.097   1.511 -0.7669  0.2585  1.1338
 8126TIP3    H248574   6.406   0.092   1.469 -0.3654 -3.1073 -0.1354
 8127TIP3   OH248575   1.431   0.277   0.346  0.3925 -0.2532 -0.8659
 8127TIP3    H148576   1.335   0.279   0.345  0.3691 -0.9011 -0.4059
 8127TIP3    H248577   1.453   0.220   0.420  1.1494  0.7199 -0.3088
 8128TIP3   OH248578   2.886   7.574   1.190 -0.4789  0.0516  0.5617
 8128TIP3    H148579   2.847   7.517   1.255 -0.1875 -0.0495  0.6469
 8128TIP3    H248580   2.820   7.581   1.121 -1.0028  0.5865  1.1103
 8129TIP3   OH248581   6.636   3.499   1.751 -0.3381 -0.2550 -0.5995
 8129TIP3    H148582   6.561   3.552   1.722 -1.3133 -1.1019  0.2690
 8129TIP3    H248583   6.596   3.419   1.785  1.0430 -1.1738 -1.0540
 8130TIP3   OH248584   5.152   3.590   1.899  0.2692 -0.3295 -0.1093
 8130TIP3    H148585   5.163   3.520   1.963  0.0852 -0.0247  0.2589
 8130TIP3    H248586   5.083   3.645   1.936  1.1255  0.6204  0.1131
 8131TIP3   OH248587   5.190   3.873   2.059  0.3166  0.0918 -0.1938
 8131TIP3    H148588   5.110   3.908   2.019 -0.1844  0.4418  1.0629
 8131TIP3    H248589   5.246   3.851   1.985 -1.4924 -1.5141 -1.1850
 8132TIP3   OH248590   0.364   5.227   0.743 -0.1079 -0.1073 -0.1173
 8132TIP3    H148591   0.391   5.304   0.793 -1.7649  0.1865  0.3907
 8132TIP3    H248592   0.306   5.262   0.675 -1.3198 -0.9216  0.4558
 8133TIP3   OH248593   5.264   6.493   3.079 -0.6998  0.2561  0.4776
 8133TIP3    H148594   5.349   6.493   3.123 -2.0578 -0.3845  3.3686
 8133TIP3    H248595   5.238   6.585   3.079 -0.7678  0.2383  1.2077
 8134TIP3   OH248596   5.685   6.072   7.828  0.4223 -0.2316 -0.7027
 8134TIP3    H148597   5.703   6.020   7.749  1.4739 -0.1661 -0.5193
 8134TIP3    H248598   5.755   6.049   7.888  0.0397  0.2718 -0.0535
 8135TIP3   OH248599   5.199   6.050   0.574  0.2753 -0.2238 -0.5225
 8135TIP3    H148600   5.200   5.955   0.588  0.6954 -0.0439  0.8727
 8135TIP3    H248601   5.108   6.070   0.551  0.4954 -1.1310 -2.3929
 8136TIP3   OH248602   6.761   2.681   1.147  0.1351 -0.0268 -0.1758
 8136TIP3    H148603   6.701   2.633   1.091  0.5921  0.1198 -0.8007
 8136TIP3    H248604   6.826   2.718   1.087  1.9821 -1.7675  0.5952
 8137TIP3   OH248605   4.126   0.836   1.021 -0.3285  0.0042 -0.0105
 8137TIP3    H148606   4.071   0.881   0.957  0.2156 -1.1954 -1.3793
 8137TIP3    H248607   4.191   0.901   1.047 -0.7382  0.6053 -0.4550
 8138TIP3   OH248608   7.003   5.470   1.548 -0.6786  0.5050 -0.1627
 8138TIP3    H148609   6.963   5.544   1.593 -0.5201 -0.3146  1.3991
 8138TIP3    H248610   7.083   5.506   1.509 -1.5107  1.5277 -0.9752
 8139TIP3   OH248611   3.012   7.112   2.511 -0.0389  0.4679 -0.1225
 8139TIP3    H148612   3.000   7.146   2.422  0.3539 -1.0285 -0.7814
 8139TIP3    H248613   3.092   7.061   2.507 -0.5282 -0.4218  0.8449
 8140TIP3   OH248614   5.977   5.618   0.448  0.2213 -1.1291 -0.2264
 8140TIP3    H148615   5.885   5.643   0.453  0.3170 -0.9851  1.2300
 8140TIP3    H248616   6.014   5.673   0.379 -0.4085  0.0385  0.3490
 8141TIP3   OH248617   4.952   4.065   1.482  0.2799  0.1911  0.1231
 8141TIP3    H148618   5.045   4.050   1.464  0.1673  0.0895 -0.4071
 8141TIP3    H248619   4.928   4.136   1.423  0.2278  0.8229  0.8879
 8142TIP3   OH248620   6.085   2.714   1.700 -0.1429  0.2308  0.2866
 8142TIP3    H148621   6.143   2.713   1.776  0.1655  0.2071  0.0540
 8142TIP3    H248622   6.141   2.689   1.627 -0.8536 -1.5889  0.3240
 8143TIP3   OH248623   2.887   1.918   1.503  0.4299  0.3022 -0.4144
 8143TIP3    H148624   2.842   1.962   1.431  0.4984 -1.8080 -1.8475
 8143TIP3    H248625   2.980   1.934   1.487  0.4824 -0.7018 -1.2204
 8144TIP3   OH248626   2.423   2.774   1.536 -0.2860  0.5935 -0.0810
 8144TIP3    H148627   2.356   2.821   1.586 -1.1711  0.3467 -1.0015
 8144TIP3    H248628   2.405   2.681   1.554 -0.1663  0.5298 -0.2942
 8145TIP3   OH248629   2.488   1.862   0.844  0.3902 -0.4443  0.6400
 8145TIP3    H148630   2.545   1.936   0.824 -0.3493 -0.6817 -3.0039
 8145TIP3    H248631   2.546   1.798   0.885  1.6943  0.9429  1.1014
 8146TIP3   OH248632   6.638   4.206   0.631  0.2676  0.2652  0.3874
 8146TIP3    H148633   6.675   4.121   0.655 -0.6950 -0.4166 -0.4240
 8146TIP3    H248634   6.555   4.211   0.679  0.3870  0.8132  0.5429
 8147TIP3   OH248635   6.386   0.849   1.326 -0.1621  0.9642  0.1094
 8147TIP3    H148636   6.402   0.839   1.420  1.4903 -0.6831 -0.2858
 8147TIP3    H248637   6.294   0.826   1.315 -0.5304  1.7219  1.3678
 8148TIP3   OH248638   0.451   2.556   3.638 -0.4747 -0.2805 -0.6024
 8148TIP3    H148639   0.504   2.605   3.576 -0.1410  0.3981  0.2046
 8148TIP3    H248640   0.402   2.493   3.584  0.6982 -0.5120 -1.4191
 8149TIP3   OH248641   4.379   0.601   1.588 -0.1463  0.0209  0.0760
 8149TIP3    H148642   4.294   0.557   1.591  0.2537 -0.8270 -0.5568
 8149TIP3    H248643   4.383   0.651   1.670 -0.9223 -0.5560  0.4827
 8150TIP3   OH248644   4.072   3.598   0.988  0.0641  0.0954  0.0906
 8150TIP3    H148645   4.131   3.530   1.020 -0.0301  0.3317  0.7720
 8150TIP3    H248646   4.057   3.575   0.896 -0.4976 -1.1918  0.4843
 8151TIP3   OH248647   6.428   1.944   2.832 -0.5652 -0.0958  0.8452
 8151TIP3    H148648   6.429   1.862   2.783 -1.7013  0.2240  0.2532
 8151TIP3    H248649   6.386   2.007   2.774  0.6161  1.0251  1.1357
 8152TIP3   OH248650   1.112   1.311   1.810  0.5945  0.1638  0.2289
 8152TIP3    H148651   1.027   1.297   1.852  0.6711 -3.1912 -0.4491
 8152TIP3    H248652   1.147   1.223   1.796  3.1792  1.3395 -1.6038
 8153TIP3   OH248653   6.759   4.278   0.397 -0.5786  0.2727 -0.8032
 8153TIP3    H148654   6.732   4.252   0.485  0.8978 -0.1456 -0.4589
 8153TIP3    H248655   6.689   4.337   0.367 -1.0468  0.5019  0.6761
 8154TIP3   OH248656   3.241   4.447   1.747  0.6719 -0.7804 -0.4423
 8154TIP3    H148657   3.329   4.473   1.774  1.4257 -2.7501 -0.8545
 8154TIP3    H248658   3.197   4.423   1.828  1.0039 -1.1864 -0.3814
 8155TIP3   OH248659   5.795   2.108   0.903  0.1654 -0.2227 -0.0862
 8155TIP3    H148660   5.766   2.029   0.948 -0.2567  0.7069  1.3228
 8155TIP3    H248661   5.728   2.125   0.837 -0.0986 -0.6346  0.0748
 8156TIP3   OH248662   3.761   1.841   0.758 -0.2653  0.3687 -0.0016
 8156TIP3    H148663   3.762   1.758   0.710  0.8196  1.8526 -2.7733
 8156TIP3    H248664   3.823   1.828   0.830  1.3296 -0.6714 -1.4865
 8157TIP3   OH248665   0.411   0.613   2.616  0.0334  0.7863 -0.5374
 8157TIP3    H148666   0.459   0.672   2.674  0.5478  1.4988 -1.6597
 8157TIP3    H248667   0.444   0.633   2.528 -0.5990 -0.3868 -1.0708
 8158TIP3   OH248668   1.021   1.976   0.920 -0.0257 -0.8955  0.4441
 8158TIP3    H148669   0.980   1.943   0.840  0.3977 -1.1588  0.3337
 8158TIP3    H248670   1.091   2.034   0.889  0.0223 -0.8544  0.6277
 8159TIP3   OH248671   0.162   6.965   2.564 -0.3021  0.4114  0.5103
 8159TIP3    H148672   0.146   6.948   2.471  0.4579  0.5890  0.3392
 8159TIP3    H248673   0.204   7.051   2.566  1.0719 -0.2500  0.8835
 8160TIP3   OH248674   0.564   1.440   1.513 -0.1907 -0.2869  0.3261
 8160TIP3    H148675   0.556   1.417   1.605 -0.3950 -0.5696  0.2407
 8160TIP3    H248676   0.475   1.456   1.483 -0.0798  0.2717  0.2918
 8161TIP3   OH248677   3.421   2.553   2.462 -0.1437  0.7169  1.0815
 8161TIP3    H148678   3.330   2.533   2.486 -0.5143  0.1073 -0.6659
 8161TIP3    H248679   3.455   2.603   2.536 -1.8648  0.8618  1.8261
 8162TIP3   OH248680   7.531   1.456   2.270 -0.0810 -0.0003  0.2261
 8162TIP3    H148681   7.575   1.527   2.222  0.6156 -0.8875 -0.4703
 8162TIP3    H248682   7.521   1.490   2.359  1.2889  0.5374  0.1935
 8163TIP3   OH248683   1.823   1.751   1.842 -0.2193 -0.1352 -0.1110
 8163TIP3    H148684   1.870   1.681   1.796 -0.7820 -1.8177  1.7504
 8163TIP3    H248685   1.789   1.709   1.921 -2.3861  1.7376  0.0411
 8164TIP3   OH248686   5.087   3.990   0.701 -0.4697 -0.0067  0.0032
 8164TIP3    H148687   5.062   4.034   0.783  1.5352  1.2035  0.0364
 8164TIP3    H248688   5.020   4.016   0.638 -2.1809 -1.1528  1.2740
 8165TIP3   OH248689   5.189   2.041   2.036 -0.3405 -0.1611 -0.3065
 8165TIP3    H148690   5.282   2.032   2.055 -0.1978  1.9603  0.3315
 8165TIP3    H248691   5.147   1.972   2.087  0.7238  0.4176  1.4719
 8166TIP3   OH248692   1.363   6.867   1.512  0.1325  0.1298 -0.1197
 8166TIP3    H148693   1.405   6.807   1.573  0.8087  0.2020 -0.4987
 8166TIP3    H248694   1.383   6.954   1.546  0.2013  0.1626 -0.2416
 8167TIP3   OH248695   5.224   0.132   1.842  0.0893 -0.0481 -0.2134
 8167TIP3    H148696   5.262   0.219   1.844 -0.1737  0.1648 -2.5517
 8167TIP3    H248697   5.185   0.121   1.929 -0.1341  2.2668  0.0217
 8168TIP3   OH248698   6.378   0.387   2.471 -0.0669 -0.7105  0.1111
 8168TIP3    H148699   6.459   0.346   2.441 -0.2102 -0.3547 -0.7960
 8168TIP3    H248700   6.404   0.475   2.497 -0.2618 -0.3391 -0.8814
 8169TIP3   OH248701   7.366   1.055   0.404 -0.3701  0.2490 -0.8480
 8169TIP3    H148702   7.451   1.099   0.393 -0.5204  0.3413 -1.7437
 8169TIP3    H248703   7.388   0.967   0.435 -0.0086  0.6031 -0.0749
 8170TIP3   OH248704   0.883   3.650   1.728  0.2951 -0.2632 -0.2240
 8170TIP3    H148705   0.803   3.700   1.715  0.2209  0.1422  1.5262
 8170TIP3    H248706   0.854   3.561   1.748  0.2249  0.0341  1.0757
 8171TIP3   OH248707   0.195   7.035   3.029  0.1994 -0.6210  0.0480
 8171TIP3    H148708   0.207   6.962   3.090  0.8638  0.2648  1.0217
 8171TIP3    H248709   0.135   7.094   3.074 -0.7330 -0.7805 -0.9510
 8172TIP3   OH248710   6.415   5.772   2.457 -0.1234  0.2713 -0.4520
 8172TIP3    H148711   6.443   5.710   2.389  2.0929  1.1808 -0.4425
 8172TIP3    H248712   6.384   5.848   2.409 -0.3800  0.1771 -0.4392
 8173TIP3   OH248713   1.499   5.053   2.216 -0.5551 -0.2561  0.3067
 8173TIP3    H148714   1.570   5.005   2.258  0.4073 -2.6710 -3.5667
 8173TIP3    H248715   1.433   5.063   2.284  1.4490 -2.3507  2.7613
 8174TIP3   OH248716   3.430   1.522   1.734  0.4445  0.1892 -0.0865
 8174TIP3    H148717   3.492   1.539   1.805 -1.6258 -0.4120  2.0070
 8174TIP3    H248718   3.367   1.594   1.740  0.8722  0.8302 -2.2144
 8175TIP3   OH248719   3.625   1.124   0.938 -0.2487  0.4680 -0.2492
 8175TIP3    H148720   3.603   1.174   1.016  0.0215 -0.3663  0.3753
 8175TIP3    H248721   3.653   1.039   0.971 -0.2067  0.0753 -1.2598
 8176TIP3   OH248722   3.765   2.016   1.890 -0.0370  0.3285 -0.4278
 8176TIP3    H148723   3.801   2.031   1.977  1.7137 -0.1584 -1.0219
 8176TIP3    H248724   3.704   1.943   1.901  0.4612  0.0105  0.3198
 8177TIP3   OH248725   2.208   1.803   2.058 -0.2955  0.0747  0.1211
 8177TIP3    H148726   2.168   1.724   2.094  0.0907 -0.1393  0.0735
 8177TIP3    H248727   2.289   1.774   2.017 -0.0488  0.5248  0.2812
 8178TIP3   OH248728   5.631   1.586   1.108  0.0443 -0.0633  0.4661
 8178TIP3    H148729   5.550   1.536   1.106 -0.2743  0.4708 -0.4532
 8178TIP3    H248730   5.679   1.556   1.030 -0.0898  0.9406 -0.0186
 8179TIP3   OH248731   0.717   5.926   1.435  0.3626  1.0312  0.4762
 8179TIP3    H148732   0.699   6.019   1.442 -1.3796  0.6505  1.8982
 8179TIP3    H248733   0.753   5.902   1.521 -1.0098  0.0914  0.8317
 8180TIP3   OH248734   1.680   2.878   1.389  0.0920  0.0477  0.6368
 8180TIP3    H148735   1.776   2.879   1.383  0.0442  0.4184 -0.2193
 8180TIP3    H248736   1.654   2.796   1.347  0.0201  0.1014  0.5758
 8181TIP3   OH248737   5.484   4.266   2.164 -0.0206  0.3715 -0.0679
 8181TIP3    H148738   5.535   4.207   2.108 -0.3772 -0.9670  0.9772
 8181TIP3    H248739   5.549   4.309   2.219  0.2675  1.1959 -1.0184
 8182TIP3   OH248740   5.314   3.578   3.000 -0.2071 -0.2065  0.8218
 8182TIP3    H148741   5.297   3.667   2.970 -1.1066 -0.8575 -0.6984
 8182TIP3    H248742   5.236   3.556   3.052 -0.7352 -0.6532 -0.1399
 8183TIP3   OH248743   1.789   6.968   2.074 -0.1681 -0.3353  0.4942
 8183TIP3    H148744   1.776   6.900   2.008 -1.2055  0.2787  0.0511
 8183TIP3    H248745   1.875   6.949   2.111  0.7822 -0.2705 -1.5518
 8184TIP3   OH248746   1.950   6.999   1.513  0.1558 -0.2475  0.0493
 8184TIP3    H148747   1.861   6.985   1.543  0.3346 -0.6054  0.4300
 8184TIP3    H248748   1.956   7.093   1.496  0.2109  0.0841  1.7074
 8185TIP3   OH248749   7.578   7.395   2.600 -0.5627 -0.2645  0.9063
 8185TIP3    H148750   7.592   7.324   2.537 -1.9608  0.0140  0.2396
 8185TIP3    H248751   7.555   7.351   2.681 -1.0819 -0.5902  0.5877
 8186TIP3   OH248752   2.462   5.355   2.882  0.5927 -0.4383  0.3764
 8186TIP3    H148753   2.501   5.329   2.966 -0.7922  0.3839  1.3199
 8186TIP3    H248754   2.389   5.411   2.907  0.3467  0.0822 -1.4181
 8187TIP3   OH248755   2.348   4.079   1.698 -0.5646 -0.5015 -0.0839
 8187TIP3    H148756   2.369   4.171   1.683 -1.7098 -0.0734  0.8146
 8187TIP3    H248757   2.433   4.038   1.718  0.1831  0.0123 -1.9920
 8188TIP3   OH248758   3.602   2.536   1.216  0.0837  0.0773 -0.3968
 8188TIP3    H148759   3.584   2.518   1.308 -0.0135 -1.3898 -0.6827
 8188TIP3    H248760   3.554   2.617   1.198  0.7735  0.8340  1.0399
 8189TIP3   OH248761   3.279   2.484   2.219  0.6584 -0.2283  0.0620
 8189TIP3    H148762   3.305   2.510   2.307 -0.5408 -0.9713  0.6654
 8189TIP3    H248763   3.357   2.442   2.182  1.0988 -0.1233  0.8572
 8190TIP3   OH248764   7.072   5.234   1.274  0.0314 -0.0089  0.0649
 8190TIP3    H148765   7.125   5.274   1.205 -0.5330 -0.5534 -0.7042
 8190TIP3    H248766   7.136   5.207   1.341  0.6729 -0.1572 -0.5880
 8191TIP3   OH248767   5.764   0.444   1.359 -0.2191  0.1293 -1.2701
 8191TIP3    H148768   5.715   0.479   1.434  1.0598  0.8538 -0.7407
 8191TIP3    H248769   5.788   0.355   1.386 -0.5746  0.0419 -1.2284
 8192TIP3   OH248770   5.652   3.293   1.072  0.2889 -0.4515 -0.1202
 8192TIP3    H148771   5.623   3.239   1.146 -0.2031 -0.1877 -0.1109
 8192TIP3    H248772   5.582   3.358   1.062  1.2360  0.6992  0.3987
 8193TIP3   OH248773   7.545   7.247   2.814 -0.1207  0.0280  0.1049
 8193TIP3    H148774   7.465   7.260   2.864  0.4534  1.6595  0.6774
 8193TIP3    H248775   7.611   7.298   2.862  1.7585 -2.8305  0.8226
 8194TIP3   OH248776   0.958   5.349   1.573  0.0576  0.2224 -0.1954
 8194TIP3    H148777   0.885   5.294   1.543 -0.4304  0.9613 -0.3843
 8194TIP3    H248778   0.916   5.420   1.621  0.7039  0.2790  0.3076
 8195TIP3   OH248779   2.480   0.350   1.901  0.4458 -0.3605  0.5984
 8195TIP3    H148780   2.386   0.365   1.909  0.2268 -0.5028 -1.2536
 8195TIP3    H248781   2.503   0.383   1.814  2.1154 -0.3361  1.0009
 8196TIP3   OH248782   2.631   7.468   0.595  0.3644  0.2732 -0.1255
 8196TIP3    H148783   2.594   7.393   0.642 -1.1022  0.8018 -0.4031
 8196TIP3    H248784   2.726   7.451   0.596  0.2321 -0.6375  1.4284
 8197TIP3   OH248785   7.632   0.963   0.776 -0.2983 -0.1262 -0.1298
 8197TIP3    H148786   7.642   0.868   0.764 -1.4222 -0.0558 -1.8229
 8197TIP3    H248787   7.688   1.002   0.710  0.5108  0.4391  0.8524
 8198TIP3   OH248788   1.573   2.177   0.961 -0.6040 -0.2164 -0.2424
 8198TIP3    H148789   1.666   2.182   0.985 -0.8012 -1.0340  0.7357
 8198TIP3    H248790   1.527   2.173   1.044 -1.6159  1.1928 -0.6886
 8199TIP3   OH248791   3.941   6.608   2.838  0.8863  0.2132 -0.6364
 8199TIP3    H148792   3.902   6.648   2.916  2.2395 -1.0234  0.7486
 8199TIP3    H248793   3.973   6.683   2.786 -0.1824  1.0632 -0.1101
 8200TIP3   OH248794   7.177   4.300   1.320  0.4262  0.0860  0.1781
 8200TIP3    H148795   7.254   4.275   1.371 -0.2756  0.9729  1.7212
 8200TIP3    H248796   7.185   4.250   1.239  2.9589  0.6158  0.0182
 8201TIP3   OH248797   6.412   4.290   0.762  0.4213 -0.2663  0.0055
 8201TIP3    H148798   6.326   4.331   0.756  0.9220  0.8424  0.2006
 8201TIP3    H248799   6.460   4.342   0.827  0.9142 -1.4789  0.6469
 8202TIP3   OH248800   5.138   1.574   1.584  0.2835 -0.1241  0.3510
 8202TIP3    H148801   5.109   1.644   1.642  0.9407 -0.8911  1.6362
 8202TIP3    H248802   5.226   1.552   1.615 -0.7153 -3.0080  1.4304
 8203TIP3   OH248803   3.582   1.923   1.572 -0.1038  0.3711 -0.2081
 8203TIP3    H148804   3.528   1.851   1.539  1.6195 -0.0021 -2.4415
 8203TIP3    H248805   3.565   1.996   1.512  0.3795  0.8732  0.2527
 8204TIP3   OH248806   2.325   7.596   1.162 -0.2742  1.0378 -0.2779
 8204TIP3    H148807   2.316   7.568   1.253 -0.3539  1.7713 -0.0496
 8204TIP3    H248808   2.243   7.570   1.120  0.0883 -0.0330 -0.3515
 8205TIP3   OH248809   3.715   7.183   2.249 -0.2204 -0.7790  0.3981
 8205TIP3    H148810   3.805   7.164   2.223 -0.0162  1.1289 -0.4907
 8205TIP3    H248811   3.723   7.261   2.305 -1.3132 -0.5355  0.2336
 8206TIP3   OH248812   0.842   2.118   0.448  0.2194 -0.0254 -0.1414
 8206TIP3    H148813   0.777   2.135   0.516  0.9694  1.2272  0.2780
 8206TIP3    H248814   0.791   2.119   0.367 -0.2992  0.9280  0.1774
 8207TIP3   OH248815   1.709   1.097   2.954 -0.2332 -0.5081 -0.4168
 8207TIP3    H148816   1.688   1.190   2.961  1.9042 -0.0500  0.8173
 8207TIP3    H248817   1.714   1.067   3.045  0.1175 -1.5779 -0.7746
 8208TIP3   OH248818   3.583   7.469   0.997  0.0689 -0.5513 -0.3747
 8208TIP3    H148819   3.599   7.558   0.966 -1.4652 -0.2692 -0.4258
 8208TIP3    H248820   3.630   7.413   0.935  0.5062  0.1872 -0.7223
 8209TIP3   OH248821   4.163   6.442   1.464 -0.2134  0.1571  0.3708
 8209TIP3    H148822   4.166   6.440   1.559  1.2179  1.3537  0.3952
 8209TIP3    H248823   4.214   6.366   1.436 -0.6127 -0.1792  0.5438
 8210TIP3   OH248824   4.478   5.759   2.199 -0.2229 -0.6287  0.1451
 8210TIP3    H148825   4.387   5.746   2.226 -0.7135  0.2181 -1.0382
 8210TIP3    H248826   4.526   5.686   2.240 -1.3806 -0.9547  0.9601
 8211TIP3   OH248827   1.315   5.832   2.024  0.0985 -0.1310  0.6232
 8211TIP3    H148828   1.408   5.809   2.014  0.6152  2.5885 -1.8737
 8211TIP3    H248829   1.275   5.808   1.940 -0.6217  2.0966  0.2819
 8212TIP3   OH248830   2.559   5.532   1.329  0.1362  0.1167  0.0059
 8212TIP3    H148831   2.492   5.569   1.386  0.5397  0.0963  0.5061
 8212TIP3    H248832   2.518   5.528   1.243 -0.7753 -0.6279  0.4538
 8213TIP3   OH248833   0.605   0.739   2.823  0.1663 -0.1996  0.3527
 8213TIP3    H148834   0.654   0.809   2.779  0.6822  0.0227  1.2497
 8213TIP3    H248835   0.670   0.671   2.839  0.4109  0.4034  2.2306
 8214TIP3   OH248836   6.345   0.740   2.268 -0.0633 -0.2667  0.0395
 8214TIP3    H148837   6.289   0.810   2.235  1.1933  0.8749  0.2125
 8214TIP3    H248838   6.326   0.736   2.362  0.0857  0.0736  0.0867
 8215TIP3   OH248839   5.046   1.349   2.224 -0.0518  0.4948  0.1981
 8215TIP3    H148840   5.050   1.442   2.198 -1.2128 -0.0679 -2.2800
 8215TIP3    H248841   4.999   1.350   2.307 -0.5379  2.1077 -0.0444
 8216TIP3   OH248842   4.584   0.795   1.992 -0.5725  0.0179  0.4570
 8216TIP3    H148843   4.517   0.783   1.925 -0.8111 -0.4173  0.7656
 8216TIP3    H248844   4.561   0.878   2.033 -1.6696 -0.6957  1.3689
 8217TIP3   OH248845   3.026   6.928   3.281  0.3926 -0.2692 -0.2780
 8217TIP3    H148846   3.013   7.019   3.307 -2.1299 -0.7605  0.4245
 8217TIP3    H248847   3.091   6.894   3.342  0.9696  0.9044 -0.2248
 8218TIP3   OH248848   3.362   0.847   1.146  0.7648  0.2314  0.0243
 8218TIP3    H148849   3.355   0.913   1.214  0.7018 -0.7638  1.0096
 8218TIP3    H248850   3.401   0.771   1.190  0.4876 -0.5192 -0.9807
 8219TIP3   OH248851   6.597   5.484   0.855  0.0908 -0.9621 -0.3326
 8219TIP3    H148852   6.570   5.479   0.946 -1.2107  1.7557 -0.4873
 8219TIP3    H248853   6.519   5.509   0.807  1.0571 -0.9978 -2.0243
 8220TIP3   OH248854   3.595   6.997   0.974  0.2303  0.4550  0.4495
 8220TIP3    H148855   3.504   7.024   0.985  0.1155 -0.1779  1.1541
 8220TIP3    H248856   3.591   6.927   0.908  0.7607  3.3337 -2.9862
 8221TIP3   OH248857   1.199   5.851   0.728  0.1407 -0.1090 -0.0970
 8221TIP3    H148858   1.234   5.937   0.752 -1.8993  1.2379 -1.6076
 8221TIP3    H248859   1.104   5.861   0.734 -0.1474 -2.3792 -0.0349
 8222TIP3   OH248860   3.441   0.237   2.726 -0.4924 -0.2051 -0.4709
 8222TIP3    H148861   3.485   0.204   2.805 -1.4630 -0.3138  0.0370
 8222TIP3    H248862   3.477   0.183   2.656 -0.1717 -0.6223 -0.0012
 8223TIP3   OH248863   4.059   1.361   1.010  0.2892  0.1961  0.1976
 8223TIP3    H148864   4.129   1.333   0.950 -1.0072 -1.3689 -0.6566
 8223TIP3    H248865   4.041   1.283   1.063 -1.6293  0.1513 -0.4511
 8224TIP3   OH248866   4.010   7.451   2.235 -0.3032  0.3817  0.3244
 8224TIP3    H148867   4.028   7.357   2.237  0.2015  0.3999 -1.6622
 8224TIP3    H248868   3.934   7.461   2.293 -1.5146 -1.5303 -0.7916
 8225TIP3   OH248869   3.864   2.463   2.025 -0.2012  0.5920  0.4008
 8225TIP3    H148870   3.930   2.444   1.958 -1.3862 -0.6859 -0.4391
 8225TIP3    H248871   3.889   2.409   2.100 -1.2843 -1.3429 -0.5660
 8226TIP3   OH248872   0.431   3.465   3.619 -0.0069 -0.2983 -0.5669
 8226TIP3    H148873   0.459   3.518   3.544  0.5050 -0.3036 -0.3811
 8226TIP3    H248874   0.363   3.407   3.584  1.1971 -1.2736 -1.3507
 8227TIP3   OH248875   5.529   0.307   2.045  0.9633 -0.1719  0.7491
 8227TIP3    H148876   5.569   0.343   1.965  0.8792 -2.0894 -0.2155
 8227TIP3    H248877   5.551   0.371   2.113  0.3717  1.9361 -0.9150
 8228TIP3   OH248878   1.064   5.902   3.070 -0.3863 -0.0600  0.3003
 8228TIP3    H148879   1.091   5.993   3.081 -0.6908 -0.0920  1.4544
 8228TIP3    H248880   0.975   5.907   3.033 -0.8468  0.1432  1.4076
 8229TIP3   OH248881   6.019   1.250   1.765  0.2044  0.0684 -0.3480
 8229TIP3    H148882   6.086   1.182   1.768  0.2280  0.0212 -1.5352
 8229TIP3    H248883   5.945   1.210   1.719 -0.7583  0.0525  1.1109
 8230TIP3   OH248884   5.343   7.613   2.409  0.3969 -0.5398  0.1449
 8230TIP3    H148885   5.289   7.691   2.420 -0.2153 -0.9974  0.4264
 8230TIP3    H248886   5.350   7.602   2.314  1.7154  0.6859  0.0778
 8231TIP3   OH248887   3.614   1.807   2.046 -0.3125  0.5919 -0.5914
 8231TIP3    H148888   3.585   1.892   2.078 -2.4437 -0.3865  0.2648
 8231TIP3    H248889   3.536   1.769   2.006  0.4289 -1.2052 -0.4121
 8232TIP3   OH248890   7.516   0.341   0.964  0.1885  0.1602  0.5976
 8232TIP3    H148891   7.526   0.383   1.050  0.6890  0.3444  0.4556
 8232TIP3    H248892   7.494   0.250   0.983  0.2046  0.2245  0.9212
 8233TIP3   OH248893   2.904   1.107   0.704  0.8696 -0.5008  0.4301
 8233TIP3    H148894   2.999   1.117   0.703  0.8158  0.0585 -0.1750
 8233TIP3    H248895   2.873   1.167   0.635  0.3201 -3.1357 -1.7917
 8234TIP3   OH248896   1.366   2.091   2.278  0.4569  0.2112  0.0696
 8234TIP3    H148897   1.356   2.186   2.270  0.3387  0.2364  0.5055
 8234TIP3    H248898   1.432   2.068   2.212 -1.0970  0.2917 -1.5974
 8235TIP3   OH248899   1.876   7.105   1.231 -0.3503  0.0562 -0.5065
 8235TIP3    H148900   1.882   7.135   1.322  1.1881 -1.7813  0.0613
 8235TIP3    H248901   1.957   7.136   1.191 -1.5777  1.9639 -1.6853
 8236TIP3   OH248902   4.672   4.576   1.583  0.2027  0.5026  0.2790
 8236TIP3    H148903   4.675   4.481   1.568 -0.2166  0.6291 -0.6889
 8236TIP3    H248904   4.653   4.613   1.497 -2.6970  1.2812  1.1359
 8237TIP3   OH248905   4.945   3.779   2.267 -0.3145 -0.6763  0.0647
 8237TIP3    H148906   4.984   3.694   2.290 -0.1118 -0.3207  1.0800
 8237TIP3    H248907   4.852   3.759   2.256  0.0142 -1.4054 -1.7356
 8238TIP3   OH248908   5.538   6.009   1.679 -0.0755  0.0984 -0.1704
 8238TIP3    H148909   5.514   6.101   1.690 -2.4594 -0.4692 -0.0917
 8238TIP3    H248910   5.570   6.003   1.589 -1.7983  0.6812 -0.8640
 8239TIP3   OH248911   0.770   3.393   1.770 -0.1093 -0.0389 -0.3292
 8239TIP3    H148912   0.774   3.385   1.674  0.4298  0.4353 -0.3505
 8239TIP3    H248913   0.818   3.316   1.802  1.7793  1.0088 -0.4869
 8240TIP3   OH248914   6.894   2.809   1.979  0.3799 -0.4256 -0.1449
 8240TIP3    H148915   6.860   2.776   2.062  1.4256 -2.3795 -0.4250
 8240TIP3    H248916   6.984   2.834   1.998 -0.3897  2.5697  0.0725
 8241TIP3   OH248917   0.681   6.033   2.481  0.1938 -0.2909  0.1523
 8241TIP3    H148918   0.646   6.022   2.392 -0.0303 -2.7505  0.4688
 8241TIP3    H248919   0.646   6.117   2.510 -1.0484 -0.1754 -1.5068
 8242TIP3   OH248920   2.103   5.339   1.454  0.1685 -0.1247 -0.3288
 8242TIP3    H148921   2.184   5.322   1.406 -0.9983 -0.0458 -2.4127
 8242TIP3    H248922   2.084   5.255   1.497 -0.2135 -1.1159 -2.3099
 8243TIP3   OH248923   2.133   5.616   1.016 -0.1572 -0.0334  0.8654
 8243TIP3    H148924   2.054   5.590   0.968 -1.4862  1.1378  2.3165
 8243TIP3    H248925   2.116   5.589   1.106  1.3913 -0.3190  1.0968
 8244TIP3   OH248926   4.927   3.756   0.968 -0.3326  0.1097  0.0829
 8244TIP3    H148927   5.016   3.763   1.001 -0.1667 -0.7546 -0.1492
 8244TIP3    H248928   4.874   3.808   1.028  0.1534 -0.3542  0.9204
 8245TIP3   OH248929   1.927   3.247   3.678  0.1273  0.0970  0.1411
 8245TIP3    H148930   1.886   3.330   3.655  1.1129  0.7325  0.6350
 8245TIP3    H248931   2.010   3.271   3.719  1.6737 -1.1601 -2.0274
 8246TIP3   OH248932   0.534   3.770   2.700 -0.0419  0.4157 -0.0691
 8246TIP3    H148933   0.470   3.835   2.671  0.3219  0.6588 -0.3382
 8246TIP3    H248934   0.482   3.699   2.735 -0.4843  0.2645 -1.0039
 8247TIP3   OH248935   5.626   5.773   2.579 -0.1302 -0.1954  0.2712
 8247TIP3    H148936   5.617   5.811   2.492  0.0239  0.8131  0.6810
 8247TIP3    H248937   5.699   5.712   2.571  1.2223  1.3583  0.1489
 8248TIP3   OH248938   7.043   5.411   2.216  0.8912 -0.0111 -0.0088
 8248TIP3    H148939   7.067   5.472   2.285 -0.7374 -0.6670  1.1915
 8248TIP3    H248940   7.006   5.466   2.147  2.4334  0.6339 -0.3601
 8249TIP3   OH248941   3.958   5.792   1.083 -0.3300 -0.1212 -0.0811
 8249TIP3    H148942   4.044   5.820   1.052 -0.0574 -0.9221 -0.0920
 8249TIP3    H248943   3.907   5.872   1.091  0.3967  0.3529 -0.1491
 8250TIP3   OH248944   2.047   4.065   2.675 -0.2620 -0.0176 -0.1470
 8250TIP3    H148945   2.040   4.151   2.633  1.1907 -0.7259 -1.9420
 8250TIP3    H248946   2.097   4.082   2.755 -1.0224  0.9728  0.1403
 8251TIP3   OH248947   7.286   0.911   2.776 -1.1204 -0.0586  0.0225
 8251TIP3    H148948   7.357   0.885   2.835 -0.5610  1.4959  0.0650
 8251TIP3    H248949   7.209   0.864   2.810 -0.8977  1.0261  2.2217
 8252TIP3   OH248950   3.181   2.114   1.007  0.2810  0.6810 -0.1944
 8252TIP3    H148951   3.239   2.145   1.077 -0.2247 -1.3438  1.1893
 8252TIP3    H248952   3.113   2.181   1.001 -0.6401  0.1185  2.5258
 8253TIP3   OH248953   2.864   3.188   1.930  0.1226  0.0449 -0.4792
 8253TIP3    H148954   2.772   3.213   1.934  0.3952  1.0525 -0.3308
 8253TIP3    H248955   2.873   3.120   1.997 -0.5770 -0.2834 -0.7144
 8254TIP3   OH248956   2.781   3.277   2.899  0.0345  0.0224  0.3616
 8254TIP3    H148957   2.822   3.361   2.878 -0.0583  0.0113  0.1353
 8254TIP3    H248958   2.828   3.246   2.976 -0.8946  0.9797  1.3509
 8255TIP3   OH248959   6.490   4.892   3.608 -0.5589  0.2036 -1.1953
 8255TIP3    H148960   6.550   4.953   3.566  0.4269 -0.9786 -1.5557
 8255TIP3    H248961   6.496   4.812   3.555 -0.6389 -0.7333  0.1642
 8256TIP3   OH248962   1.053   2.270   3.395 -0.5778  0.3866  0.0386
 8256TIP3    H148963   1.005   2.194   3.364 -1.4347  0.5644  0.9047
 8256TIP3    H248964   1.061   2.258   3.489 -0.6766  1.3442  0.1793
 8257TIP3   OH248965   0.241   3.217   0.546 -0.1941  0.5158  0.1623
 8257TIP3    H148966   0.252   3.271   0.624 -0.2269  0.3276  0.2953
 8257TIP3    H248967   0.152   3.181   0.554  0.1569 -0.2814  0.5225
 8258TIP3   OH248968   4.679   0.109   1.504 -0.8794 -0.1579 -0.1830
 8258TIP3    H148969   4.596   0.078   1.541 -0.7004  2.5920  2.9913
 8258TIP3    H248970   4.660   0.197   1.472  1.0795  1.4958  2.7005
 8259TIP3   OH248971   6.547   5.901   2.915 -0.6564  0.0994 -0.0856
 8259TIP3    H148972   6.587   5.825   2.957 -3.2545 -1.4781 -0.2515
 8259TIP3    H248973   6.542   5.878   2.822  1.9678  2.1538 -0.8537
 8260TIP3   OH248974   4.200   4.388   2.952 -0.6041  0.1016 -0.3220
 8260TIP3    H148975   4.125   4.435   2.917  0.0762  0.7168 -0.9920
 8260TIP3    H248976   4.164   4.303   2.980 -1.9876  1.2405  1.5866
 8261TIP3   OH248977   0.061   0.043   2.668 -0.2456 -0.9214 -0.2464
 8261TIP3    H148978   0.080   0.112   2.732 -0.5801 -2.9155  2.1600
 8261TIP3    H248979   0.141  -0.009   2.664 -0.4008 -1.1138 -1.1108
 8262TIP3   OH248980   7.428   3.981   1.637  0.4259  0.1769  0.4013
 8262TIP3    H148981   7.425   3.888   1.660  1.8345 -0.2442 -0.9566
 8262TIP3    H248982   7.444   4.026   1.721 -0.1299 -0.8047  1.0456
 8263TIP3   OH248983   0.246   7.339   1.920  0.2583 -0.1275 -0.4569
 8263TIP3    H148984   0.250   7.396   1.843 -2.6824  0.7056 -0.1194
 8263TIP3    H248985   0.180   7.379   1.976  0.7449 -1.9135  1.5237
 8264TIP3   OH248986   0.884   3.527   2.466 -0.0328 -0.3817 -0.6096
 8264TIP3    H148987   0.827   3.526   2.389 -1.2174  0.1774  0.2276
 8264TIP3    H248988   0.960   3.579   2.440 -0.5852  0.0907 -1.2896
 8265TIP3   OH248989   6.980   6.310   2.235 -0.3426  0.2783  0.5379
 8265TIP3    H148990   7.000   6.217   2.229  0.4609  0.2685  2.7096
 8265TIP3    H248991   6.887   6.313   2.258 -0.3558  0.0216  0.5184
 8266TIP3   OH248992   5.259   7.628   0.744  0.1426  0.2776  0.0739
 8266TIP3    H148993   5.182   7.683   0.727 -1.2932 -1.7823 -0.5550
 8266TIP3    H248994   5.319   7.649   0.672  0.3566  2.1329  0.7378
 8267TIP3   OH248995   5.821   0.308   1.097 -0.3367 -0.4817  0.4065
 8267TIP3    H148996   5.834   0.214   1.110 -0.0926 -0.3839  0.9282
 8267TIP3    H248997   5.785   0.338   1.181  1.6095  0.2488  1.0360
 8268TIP3   OH248998   7.197   5.161   0.703 -0.6035  0.3405 -0.1800
 8268TIP3    H148999   7.122   5.102   0.707 -0.1035 -0.4275 -1.4116
 8268TIP3    H249000   7.269   5.105   0.673  0.9772  0.5822  2.7816
 8269TIP3   OH249001   6.446   1.828   2.449  0.0365 -0.0636 -0.3765
 8269TIP3    H149002   6.500   1.766   2.497  0.0484  1.4775  1.7142
 8269TIP3    H249003   6.357   1.813   2.481 -0.0801  0.4727 -0.4382
 8270TIP3   OH249004   7.008   1.338   0.968 -0.1141  0.5961  0.2021
 8270TIP3    H149005   6.950   1.342   1.045 -0.9263  1.3209 -0.4290
 8270TIP3    H249006   6.952   1.363   0.895  0.7193  0.1651 -0.6020
 8271TIP3   OH249007   1.627   3.475   2.345  0.3712 -0.2791  0.2995
 8271TIP3    H149008   1.663   3.408   2.287  0.8009 -1.2454  1.6386
 8271TIP3    H249009   1.593   3.426   2.419 -2.0391  0.7661 -0.0380
 8272TIP3   OH249010   6.878   6.099   2.922 -0.1731  0.0906 -0.0769
 8272TIP3    H149011   6.872   6.097   2.827 -0.6659  0.2433 -0.0528
 8272TIP3    H249012   6.971   6.108   2.941 -0.0073 -0.6014 -0.5319
 8273TIP3   OH249013   6.969   7.635   0.754  0.0045 -0.2410  0.3531
 8273TIP3    H149014   6.983   7.647   0.848  1.0622  0.8554  0.0888
 8273TIP3    H249015   7.043   7.680   0.714 -1.1371  0.4603 -1.0483
 8274TIP3   OH249016   3.108   3.645   2.072  0.1967  0.1415  0.0822
 8274TIP3    H149017   3.038   3.699   2.108 -0.3227  0.1289 -0.8670
 8274TIP3    H249018   3.185   3.702   2.073  0.2510  0.0699  1.3743
 8275TIP3   OH249019   3.320   1.024   2.168  0.1033 -0.1429 -0.3111
 8275TIP3    H149020   3.249   1.032   2.104  1.5238  2.5283 -1.7024
 8275TIP3    H249021   3.284   1.065   2.247 -1.4110 -2.8486  0.5266
 8276TIP3   OH249022   1.399   4.417   0.862  0.0945  0.4381 -0.1438
 8276TIP3    H149023   1.322   4.463   0.828 -0.9549 -2.6507 -2.3679
 8276TIP3    H249024   1.373   4.387   0.949 -1.6746 -1.3003 -1.1920
 8277TIP3   OH249025   2.637   3.015   2.856  0.6972  0.1130 -0.0587
 8277TIP3    H149026   2.543   3.004   2.866  0.4963  0.3256 -1.5037
 8277TIP3    H249027   2.647   3.087   2.794  1.8356  0.6879  0.7558
 8278TIP3   OH249028   4.422   1.485   0.395  0.4469  0.7837  0.5966
 8278TIP3    H149029   4.475   1.486   0.474  0.4549  1.9486  0.5905
 8278TIP3    H249030   4.476   1.438   0.331  0.3396 -0.3745  1.3323
 8279TIP3   OH249031   3.589   4.586   1.070 -0.0794  0.2455  0.1224
 8279TIP3    H149032   3.498   4.557   1.062 -0.4200  1.7246 -2.2547
 8279TIP3    H249033   3.638   4.505   1.088 -1.6811 -0.7950  0.0101
 8280TIP3   OH249034   3.606   3.548   1.050  0.2092 -0.2328 -0.0273
 8280TIP3    H149035   3.660   3.519   1.124  0.0778  0.8513  0.5086
 8280TIP3    H249036   3.582   3.467   1.005  0.1386 -0.9312  1.2283
 8281TIP3   OH249037   5.726   5.045   2.130 -0.3602  0.3001  0.0642
 8281TIP3    H149038   5.769   5.125   2.162  0.0980  0.7511 -1.5741
 8281TIP3    H249039   5.763   4.975   2.183 -0.3018  1.0989  1.1098
 8282TIP3   OH249040   5.549   4.004   1.530 -0.4605 -0.5441 -0.4955
 8282TIP3    H149041   5.633   4.016   1.574 -0.2912  0.0087 -0.9542
 8282TIP3    H249042   5.513   4.093   1.524 -0.3942 -0.5872 -1.6262
 8283TIP3   OH249043   0.651   3.040   1.595 -0.5710 -0.0249 -0.4865
 8283TIP3    H149044   0.678   3.017   1.506  0.2792  0.4191 -0.3557
 8283TIP3    H249045   0.594   3.116   1.583 -1.1042 -0.4526 -0.7056
 8284TIP3   OH249046   2.436   3.437   1.850  0.4250  0.7540  0.2803
 8284TIP3    H149047   2.369   3.425   1.783  0.4707 -2.1188  0.6357
 8284TIP3    H249048   2.393   3.488   1.919 -1.9135 -2.0748  1.0845
 8285TIP3   OH249049   2.832   4.089   1.146 -0.2869  0.1678 -0.0198
 8285TIP3    H149050   2.832   3.994   1.136  0.4541  0.1494  0.0330
 8285TIP3    H249051   2.911   4.117   1.100 -0.5576  0.7673 -0.1193
 8286TIP3   OH249052   5.808   2.741   2.764 -0.1466 -0.0109 -0.0570
 8286TIP3    H149053   5.730   2.774   2.808 -1.1893 -2.0252 -0.2765
 8286TIP3    H249054   5.775   2.675   2.703  1.3273  1.7975 -3.0709
 8287TIP3   OH249055   4.994   1.611   2.339  0.3166  0.3685  0.1870
 8287TIP3    H149056   4.904   1.638   2.319  0.1957 -1.2505 -1.7617
 8287TIP3    H249057   4.986   1.560   2.419 -0.5005  0.2798  0.0649
 8288TIP3   OH249058   4.310   4.723   2.337 -0.1035  0.0799 -0.2736
 8288TIP3    H149059   4.368   4.706   2.411 -0.1245 -1.3732 -0.5552
 8288TIP3    H249060   4.269   4.639   2.319 -1.8985  0.9454 -0.4477
 8289TIP3   OH249061   4.930   5.480   1.517  0.7025 -0.2609 -0.0224
 8289TIP3    H149062   4.909   5.530   1.438  0.5108 -1.4152 -0.7333
 8289TIP3    H249063   4.845   5.460   1.556  0.7008 -1.0521 -0.4120
 8290TIP3   OH249064   7.483   3.512   2.514  0.2590 -0.8354 -0.3386
 8290TIP3    H149065   7.526   3.431   2.490  0.5926 -0.8447  0.2797
 8290TIP3    H249066   7.536   3.581   2.472 -0.4949 -0.9562 -1.5619
 8291TIP3   OH249067   2.485   5.665   1.689  0.1424 -0.1376 -0.7440
 8291TIP3    H149068   2.522   5.747   1.721 -0.1514 -1.3962  3.4967
 8291TIP3    H249069   2.491   5.671   1.594  3.5406  3.1935 -0.5659
 8292TIP3   OH249070   3.774   7.516   1.225  0.5095 -0.4957 -0.0534
 8292TIP3    H149071   3.730   7.578   1.283  0.5395  0.0139 -0.5762
 8292TIP3    H249072   3.703   7.477   1.174  0.2311 -2.3540  1.6089
 8293TIP3   OH249073   0.825   1.459   1.673  0.2029 -0.0986 -0.1776
 8293TIP3    H149074   0.768   1.414   1.735  2.3280 -0.9022  1.3124
 8293TIP3    H249075   0.825   1.404   1.595 -0.3557 -0.5586  0.1454
 8294TIP3   OH249076   3.105   3.892   0.891 -0.9877 -0.2930  0.3866
 8294TIP3    H149077   3.017   3.928   0.881 -1.2018 -0.3470  1.8276
 8294TIP3    H249078   3.156   3.931   0.820 -2.5087 -1.4390 -1.4264
 8295TIP3   OH249079   0.671   0.915   1.781 -0.7086  0.5918 -0.2877
 8295TIP3    H149080   0.716   0.840   1.743  1.1382  2.4412 -1.9698
 8295TIP3    H249081   0.603   0.937   1.717 -0.0190  1.4562 -0.7443
 8296TIP3   OH249082   5.333   6.323   1.980 -0.4358 -0.2467 -0.7454
 8296TIP3    H149083   5.371   6.291   2.062 -2.0064  0.2332  0.2320
 8296TIP3    H249084   5.272   6.392   2.008 -0.2283  0.6633 -2.4248
 8297TIP3   OH249085   0.111   1.030   0.552 -0.1526 -0.0937  0.9940
 8297TIP3    H149086   0.104   0.974   0.475  0.4428 -0.5811  1.2815
 8297TIP3    H249087   0.069   1.112   0.527 -1.0077 -0.6563  0.5509
 8298TIP3   OH249088   4.674   7.191   2.250  0.2555  0.0670  0.0369
 8298TIP3    H149089   4.617   7.179   2.326  0.3693 -1.3739 -0.0830
 8298TIP3    H249090   4.635   7.137   2.182  2.0011 -1.3626  0.0983
 8299TIP3   OH249091   1.720   4.847   2.696  0.2063  0.5806  0.2811
 8299TIP3    H149092   1.649   4.788   2.722 -0.5105  0.8358 -1.0304
 8299TIP3    H249093   1.747   4.815   2.610  0.6599  1.3984  0.1091
 8300TIP3   OH249094   7.101   0.601   1.331 -0.0872  0.2016  0.3087
 8300TIP3    H149095   7.157   0.575   1.258 -0.4511 -0.4759  0.2613
 8300TIP3    H249096   7.112   0.531   1.396  0.2033  0.7790  0.8902
 8301TIP3   OH249097   6.820   0.523   2.589 -0.1512  0.2644 -0.3125
 8301TIP3    H149098   6.823   0.437   2.631 -0.5961  0.8502  0.9828
 8301TIP3    H249099   6.780   0.580   2.655 -0.5311  1.3135 -1.4171
 8302TIP3   OH249100   3.092   1.944   1.955 -0.3499  0.1170 -0.4068
 8302TIP3    H149101   3.094   1.971   2.047  0.8478 -0.5517 -0.2174
 8302TIP3    H249102   3.097   2.026   1.906 -0.0207  0.4265  0.1356
 8303TIP3   OH249103   6.550   0.188   1.709  0.0587  0.0428 -0.0695
 8303TIP3    H149104   6.456   0.189   1.694 -0.0530 -0.4974  0.5688
 8303TIP3    H249105   6.584   0.258   1.653 -0.6294 -0.2486 -0.8701
 8304TIP3   OH249106   2.687   7.262   1.797  0.8654  0.2688 -0.0128
 8304TIP3    H149107   2.693   7.356   1.815  2.0033  0.1844  0.0731
 8304TIP3    H249108   2.776   7.236   1.775  0.4434 -0.6704 -0.6767
 8305TIP3   OH249109   5.673   3.896   1.808 -0.1510 -0.6841 -0.5805
 8305TIP3    H149110   5.733   3.970   1.801 -1.0760 -0.1148 -3.4445
 8305TIP3    H249111   5.637   3.902   1.897  2.3490  0.2036  0.4561
 8306TIP3   OH249112   3.447   4.512   2.901  0.1674 -0.3415 -0.1378
 8306TIP3    H149113   3.474   4.478   2.986 -0.6150 -0.8643 -0.0869
 8306TIP3    H249114   3.490   4.598   2.895  0.5313 -0.4611  0.6149
 8307TIP3   OH249115   6.210   4.591   2.816  0.1561 -0.4508  0.4503
 8307TIP3    H149116   6.276   4.579   2.885  0.1767 -0.1927  0.4759
 8307TIP3    H249117   6.244   4.542   2.741 -0.2100 -1.3433  0.8443
 8308TIP3   OH249118   2.096   0.938   1.518 -0.1947  0.7624 -0.0855
 8308TIP3    H149119   2.015   0.894   1.546 -0.2011  0.7686 -0.0938
 8308TIP3    H249120   2.105   1.012   1.579  0.4603  0.0602  0.6802
 8309TIP3   OH249121   1.448   6.756   1.955 -0.1037  0.2341 -0.2327
 8309TIP3    H149122   1.450   6.778   2.048  2.1973  1.3578 -0.4820
 8309TIP3    H249123   1.356   6.763   1.931 -0.6097  0.9319  1.7365
 8310TIP3   OH249124   0.824   1.830   1.802  0.8324  0.4451 -0.3252
 8310TIP3    H149125   0.807   1.888   1.877  0.1853  1.7035 -1.3882
 8310TIP3    H249126   0.887   1.767   1.834 -0.1836  0.3218  1.5768
 8311TIP3   OH249127   6.679   4.004   1.242  0.9014 -0.0635  0.1891
 8311TIP3    H149128   6.664   3.912   1.260 -0.8051  0.2842  0.6722
 8311TIP3    H249129   6.768   4.020   1.274  0.4471 -1.0542  2.0814
 8312TIP3   OH249130   0.352   0.504   1.328  0.1216 -0.3778 -0.4845
 8312TIP3    H149131   0.350   0.415   1.292 -2.0502 -0.5636 -0.0589
 8312TIP3    H249132   0.443   0.516   1.358  0.7717 -1.9554 -1.7003
 8313TIP3   OH249133   3.202   7.229   1.778  0.4782 -0.4534  0.2158
 8313TIP3    H149134   3.239   7.142   1.786 -0.9549 -0.9389  2.3273
 8313TIP3    H249135   3.242   7.279   1.849  0.3446  0.2572 -0.1963
 8314TIP3   OH249136   0.067   4.985   2.751  0.1886 -0.0034 -0.2917
 8314TIP3    H149137  -0.022   4.959   2.731  0.1865 -0.0436 -0.2321
 8314TIP3    H249138   0.084   4.948   2.838 -0.2915  1.3251  0.4144
 8315TIP3   OH249139   1.064   0.254   1.825  0.5097  0.2527  0.6441
 8315TIP3    H149140   1.063   0.300   1.741  1.5820  2.8793  1.9472
 8315TIP3    H249141   0.976   0.268   1.860  0.8974  1.6728  1.1399
 8316TIP3   OH249142   4.421   2.746   1.690  0.0859 -0.2301 -0.0931
 8316TIP3    H149143   4.495   2.806   1.686 -0.8326  1.0136  0.5776
 8316TIP3    H249144   4.457   2.663   1.720  0.9864  0.7591  1.6887
 8317TIP3   OH249145   3.609   1.487   1.951 -0.0992 -0.1647 -0.0050
 8317TIP3    H149146   3.544   1.508   2.018  0.4076  0.7478  0.2145
 8317TIP3    H249147   3.661   1.417   1.989  0.3201  0.4935  0.6619
 8318TIP3   OH249148   1.022   0.436   0.866  0.8617  0.4273  0.3199
 8318TIP3    H149149   0.981   0.508   0.817  0.9317  0.4777  0.3346
 8318TIP3    H249150   1.033   0.366   0.802  0.7692  0.4202  0.3118
 8319TIP3   OH249151   0.743   1.055   3.320  0.1778 -0.0872  0.0066
 8319TIP3    H149152   0.752   1.016   3.233 -1.3001 -3.0003  0.9939
 8319TIP3    H249153   0.689   1.133   3.306 -0.3778 -0.7243 -1.6657
 8320TIP3   OH249154   7.539   2.162   1.577  0.2019 -0.3343 -0.0884
 8320TIP3    H149155   7.561   2.249   1.544  1.3896 -1.1716 -1.5911
 8320TIP3    H249156   7.623   2.121   1.594 -0.3491 -0.6067  2.3351
 8321TIP3   OH249157   5.713   1.533   1.637  0.4415 -0.0092 -0.0062
 8321TIP3    H149158   5.779   1.543   1.707  0.3556  1.3781 -0.1053
 8321TIP3    H249159   5.725   1.610   1.582 -0.3552 -0.4555 -0.8144
 8322TIP3   OH249160   5.335   6.278   0.538 -0.0407 -0.0111  0.5915
 8322TIP3    H149161   5.273   6.338   0.580  0.5134  1.7132 -0.9189
 8322TIP3    H249162   5.296   6.191   0.550 -2.3159  0.9163  0.4703
 8323TIP3   OH249163   4.432   6.021   2.438 -0.3067 -0.9890 -0.0459
 8323TIP3    H149164   4.424   5.938   2.485 -1.9730 -2.3863 -2.5975
 8323TIP3    H249165   4.344   6.039   2.405  0.1079  1.6041  0.0402
 8324TIP3   OH249166   5.756   2.654   2.345 -0.9913  0.0435 -0.0263
 8324TIP3    H149167   5.843   2.663   2.384 -1.0244 -0.2812  0.1206
 8324TIP3    H249168   5.721   2.572   2.381 -1.2846  0.0792 -0.2254
 8325TIP3   OH249169   0.950   6.245   1.509 -0.1444  0.1420 -0.5127
 8325TIP3    H149170   0.879   6.184   1.528 -1.0987  0.5624 -2.4751
 8325TIP3    H249171   1.029   6.199   1.536 -0.9325 -1.5214 -0.9251
 8326TIP3   OH249172   0.017   2.548   2.642  0.0145 -0.5737 -0.1230
 8326TIP3    H149173   0.058   2.552   2.556  1.3597  0.8673  0.5353
 8326TIP3    H249174   0.089   2.538   2.703 -0.8497 -0.7758  0.9044
 8327TIP3   OH249175   2.435   6.101   1.051 -0.6279  0.0733  0.1956
 8327TIP3    H149176   2.496   6.152   0.998  1.1753 -1.1033  1.0536
 8327TIP3    H249177   2.365   6.163   1.074  0.9067  1.8496  0.2884
 8328TIP3   OH249178   4.129   4.742   1.941  0.1760  0.0251  0.0333
 8328TIP3    H149179   4.148   4.808   2.007 -2.8248  0.6642  0.4045
 8328TIP3    H249180   4.046   4.769   1.903  0.6908 -1.5424 -2.4748
 8329TIP3   OH249181   0.579   5.163   1.079 -0.9382  0.0715 -0.4325
 8329TIP3    H149182   0.552   5.100   1.146 -1.4707 -0.3344 -1.0129
 8329TIP3    H249183   0.600   5.110   1.002 -0.0867  0.5110 -0.5243
 8330TIP3   OH249184   1.445   3.354   1.215  0.3327 -0.0727  0.4956
 8330TIP3    H149185   1.499   3.328   1.140 -0.3423 -3.6388  1.0553
 8330TIP3    H249186   1.508   3.391   1.277  1.4919 -0.4231 -0.4246
 8331TIP3   OH249187   1.465   2.609   2.004 -0.1954 -0.3444  0.3053
 8331TIP3    H149188   1.422   2.609   1.919 -0.4934  1.7545  0.4033
 8331TIP3    H249189   1.393   2.605   2.067 -0.1929  1.2213  0.4488
 8332TIP3   OH249190   1.516   0.622   2.957  0.3113 -0.3090  0.2269
 8332TIP3    H149191   1.528   0.717   2.950 -0.7704 -0.2721 -1.9679
 8332TIP3    H249192   1.593   0.585   2.915  0.7581 -0.4241  1.1302
 8333TIP3   OH249193   1.224   6.281   1.433 -0.2899  0.2615  0.5923
 8333TIP3    H149194   1.283   6.224   1.384 -0.6588 -0.8710  1.4153
 8333TIP3    H249195   1.231   6.366   1.389  0.9061 -0.1915 -0.1552
 8334TIP3   OH249196   5.639   4.433   2.321  0.2523  0.1520 -0.4134
 8334TIP3    H149197   5.568   4.454   2.380 -1.6586 -0.3469 -2.3971
 8334TIP3    H249198   5.715   4.419   2.378 -1.3132  0.2946  1.8132
 8335TIP3   OH249199   0.046   4.458   2.877 -0.0758  0.2297 -0.5901
 8335TIP3    H149200   0.011   4.534   2.924 -0.7498  1.3333 -2.7453
 8335TIP3    H249201  -0.007   4.384   2.909 -0.9697  1.0434 -0.1244
 8336TIP3   OH249202   6.363   6.640   9.584 -0.0468  0.1442 -0.6745
 8336TIP3    H149203   6.319   6.659   9.667 -1.6434  0.0372 -1.4616
 8336TIP3    H249204   6.414   6.719   9.565 -0.4158  0.5397 -0.0623
 8337TIP3   OH249205   7.362   2.390   1.899  0.3253 -0.1677  0.3791
 8337TIP3    H149206   7.352   2.485   1.912 -3.0105 -0.1064 -1.6130
 8337TIP3    H249207   7.330   2.351   1.981  0.7801  0.3812  0.8282
 8338TIP3   OH249208   7.489   3.120   1.843 -0.3254 -0.2356  0.8420
 8338TIP3    H149209   7.451   3.204   1.818 -2.5127 -1.1728  0.8325
 8338TIP3    H249210   7.456   3.103   1.931  0.8971 -0.6391  1.2442
 8339TIP3   OH249211   3.100   2.003   2.252  0.4041 -0.4556  0.5270
 8339TIP3    H149212   3.004   2.008   2.258  0.3931 -0.9855  0.8820
 8339TIP3    H249213   3.131   2.064   2.320  0.3295  0.4107 -0.2055
 8340TIP3   OH249214   4.173   1.707   0.656  0.4872 -0.5628  0.0145
 8340TIP3    H149215   4.142   1.646   0.589 -2.1662  0.1885  0.4532
 8340TIP3    H249216   4.103   1.770   0.666  1.7021  0.5950  2.0222
 8341TIP3   OH249217   0.335   0.077   2.797 -0.3557 -0.3543 -0.6763
 8341TIP3    H149218   0.354   0.170   2.787  0.3333 -0.1978  1.5775
 8341TIP3    H249219   0.284   0.072   2.878  0.1625 -2.0033 -0.4209
 8342TIP3   OH249220   0.610   1.685   1.676 -0.2623  0.4807 -0.8339
 8342TIP3    H149221   0.701   1.710   1.692  0.1259 -1.0905 -0.3858
 8342TIP3    H249222   0.616   1.600   1.633 -1.4636  1.8552 -3.9862
 8343TIP3   OH249223   1.940   0.082   0.498 -0.4061  0.3010 -0.2331
 8343TIP3    H149224   2.024   0.118   0.526 -0.0620 -0.6330 -0.0100
 8343TIP3    H249225   1.880   0.156   0.501  0.0789  0.6835  1.0229
 8344TIP3   OH249226   5.419   6.130   1.226  0.2605  0.8026  0.4721
 8344TIP3    H149227   5.498   6.152   1.177  0.6263 -0.4171  0.4654
 8344TIP3    H249228   5.377   6.214   1.244 -0.0900  1.3026 -2.2465
 8345TIP3   OH249229   1.390   2.042   2.547 -0.4625  0.1236  0.4324
 8345TIP3    H149230   1.395   2.135   2.568 -0.4272  0.4950 -1.0972
 8345TIP3    H249231   1.399   2.038   2.452  0.2704 -1.5099  0.5360
 8346TIP3   OH249232   4.618   5.441   0.990 -0.3284 -0.1565  0.1575
 8346TIP3    H149233   4.595   5.360   0.945  1.2442  0.3957 -1.7690
 8346TIP3    H249234   4.686   5.415   1.052 -0.5498 -0.4619  0.2785
 8347TIP3   OH249235   0.570   1.781   1.054 -0.4226  0.2595 -0.5845
 8347TIP3    H149236   0.654   1.760   1.096  0.4253  2.3242 -1.1597
 8347TIP3    H249237   0.575   1.739   0.968  0.2497  0.8115 -0.8206
 8348TIP3   OH249238   3.505   5.374   7.522  0.2274 -0.1403  0.3185
 8348TIP3    H149239   3.522   5.398   7.613  2.1572  0.2731 -0.1159
 8348TIP3    H249240   3.588   5.388   7.477 -0.3868 -1.3659 -1.3079
 8349TIP3   OH249241   2.574   1.345   2.198  0.4092 -0.3574  0.3380
 8349TIP3    H149242   2.667   1.325   2.211  0.9896  1.9536  0.1594
 8349TIP3    H249243   2.552   1.304   2.114  1.1664 -1.1498  0.5057
 8350TIP3   OH249244   1.926   5.616   2.312  0.3303  0.0837 -0.2030
 8350TIP3    H149245   1.909   5.605   2.405 -1.0191  0.1056 -0.4222
 8350TIP3    H249246   1.975   5.698   2.306  2.0953 -0.8444  0.6141
 8351TIP3   OH249247   3.266   2.506   1.808  0.4686 -0.2961 -0.2669
 8351TIP3    H149248   3.181   2.462   1.813  1.4894 -2.3281  0.2706
 8351TIP3    H249249   3.259   2.579   1.870  0.4003 -2.8894  3.0391
 8352TIP3   OH249250   0.429   6.490   2.009 -0.1681  0.0715  0.2031
 8352TIP3    H149251   0.430   6.577   1.969  0.0638  0.0822  0.2285
 8352TIP3    H249252   0.522   6.471   2.026 -0.0964 -0.6818 -0.8960
 8353TIP3   OH249253   1.850   7.446   0.919 -0.1439  0.0081  0.4582
 8353TIP3    H149254   1.845   7.475   0.828 -1.6630  0.1376  0.5516
 8353TIP3    H249255   1.774   7.487   0.961 -0.2534 -1.1740  1.4530
 8354TIP3   OH249256   2.181   6.000   1.765 -0.6741 -0.4485  0.1836
 8354TIP3    H149257   2.248   5.967   1.826 -0.7084 -0.5489  0.1660
 8354TIP3    H249258   2.143   5.921   1.726 -1.9489 -0.4814  1.4008
 8355TIP3   OH249259   2.195   6.203   2.816  0.0532  0.1653  0.0171
 8355TIP3    H149260   2.180   6.220   2.909  0.4578  0.3895  0.0451
 8355TIP3    H249261   2.273   6.255   2.795  0.0424  0.0078 -0.4144
 8356TIP3   OH249262   5.650   0.051   1.052 -0.1942 -0.0565 -0.0340
 8356TIP3    H149263   5.587   0.094   1.110 -1.2057 -0.7434 -0.5798
 8356TIP3    H249264   5.640   0.096   0.968 -2.8265 -2.5806 -1.2421
 8357TIP3   OH249265   6.381   7.078   1.483  0.0628  0.0517 -0.2918
 8357TIP3    H149266   6.475   7.068   1.498  0.2882 -1.5486 -2.3654
 8357TIP3    H249267   6.339   7.032   1.556  0.9109 -0.3481 -0.0539
 8358TIP3   OH249268   3.104   1.228   0.994 -0.0964 -0.0656 -0.6293
 8358TIP3    H149269   3.062   1.281   0.927  1.3109 -0.1714 -1.6521
 8358TIP3    H249270   3.184   1.277   1.016 -1.0664  0.5288  1.8177
 8359TIP3   OH249271   5.543   4.313   2.742  0.4782 -0.2747 -0.6917
 8359TIP3    H149272   5.495   4.378   2.691  1.6485  1.2176  0.0580
 8359TIP3    H249273   5.546   4.236   2.685 -2.8123 -0.5176 -0.7707
 8360TIP3   OH249274   7.424   3.448   1.298  0.0336 -0.3818  0.0745
 8360TIP3    H149275   7.466   3.484   1.220 -0.8484  0.7112  0.0738
 8360TIP3    H249276   7.485   3.380   1.329  0.9477 -0.0363 -0.8958
 8361TIP3   OH249277   0.437   3.304   3.030 -0.0530  0.8309  0.0810
 8361TIP3    H149278   0.445   3.282   3.123  0.5514  0.3098 -0.0864
 8361TIP3    H249279   0.347   3.281   3.008 -0.5166  1.8951  0.7685
 8362TIP3   OH249280   4.965   6.585   0.798  0.5207 -0.0651 -0.6039
 8362TIP3    H149281   4.916   6.607   0.718 -0.3396 -2.0832 -0.6926
 8362TIP3    H249282   5.033   6.652   0.803 -0.1240  0.8027 -2.3905
 8363TIP3   OH249283   4.788   6.066   2.981 -0.3842 -0.0589 -0.2781
 8363TIP3    H149284   4.855   6.104   3.036 -0.2918 -0.9560  0.2503
 8363TIP3    H249285   4.830   5.991   2.939 -0.9286 -0.3706 -0.2821
 8364TIP3   OH249286   0.531   1.868   3.456  0.4412  0.2046 -0.2544
 8364TIP3    H149287   0.566   1.780   3.437  1.9772  1.2768 -2.9968
 8364TIP3    H249288   0.592   1.906   3.518 -0.5186 -0.7752  1.3618
 8365TIP3   OH249289   4.945   1.247   1.258 -0.1349 -0.1712 -0.3945
 8365TIP3    H149290   4.889   1.268   1.332 -1.7388  0.1159 -1.6146
 8365TIP3    H249291   4.991   1.168   1.283  0.7099  0.8919  1.5745
 8366TIP3   OH249292   2.654   6.146   0.535  0.4221 -0.6509 -0.0618
 8366TIP3    H149293   2.733   6.137   0.483 -0.3472 -0.1128 -1.3597
 8366TIP3    H249294   2.632   6.057   0.562  1.1893 -0.8563 -0.1045
 8367TIP3   OH249295   2.967   6.745   2.465  0.4164  0.2501  0.2144
 8367TIP3    H149296   3.037   6.685   2.440 -1.0562 -1.2015 -0.6022
 8367TIP3    H249297   3.007   6.804   2.529  2.6447  0.1594 -1.0113
 8368TIP3   OH249298   1.768   4.210   3.373  0.2054 -0.4413 -0.2001
 8368TIP3    H149299   1.687   4.192   3.421  0.8418 -1.4234  0.5471
 8368TIP3    H249300   1.755   4.297   3.336 -1.4308 -0.8123 -0.6018
 8369TIP3   OH249301   5.227   6.248   1.417 -0.0504 -0.2185  0.3089
 8369TIP3    H149302   5.298   6.202   1.463  0.4405  0.3532  0.1273
 8369TIP3    H249303   5.219   6.332   1.462  0.3534  0.2978 -0.5540
 8370TIP3   OH249304   4.700   0.438   1.967 -0.1082  0.4523 -0.2221
 8370TIP3    H149305   4.745   0.410   2.047 -2.0000 -2.6075 -0.0706
 8370TIP3    H249306   4.649   0.514   1.993  2.1156  1.8058  0.4694
 8371TIP3   OH249307   3.554   6.428   2.260  0.3642 -0.5910 -0.3585
 8371TIP3    H149308   3.574   6.350   2.311  1.1273 -0.5499 -0.5775
 8371TIP3    H249309   3.493   6.399   2.193 -0.5197 -0.6801  0.4665
 8372TIP3   OH249310   3.685   6.377   0.903  0.2390 -0.1560 -0.3675
 8372TIP3    H149311   3.778   6.401   0.901 -0.2648  1.9485 -0.6923
 8372TIP3    H249312   3.641   6.456   0.935 -1.5553 -0.7132 -1.3380
 8373TIP3   OH249313   1.945   2.958   1.356  0.3409  1.1497 -0.1159
 8373TIP3    H149314   2.025   2.955   1.409  0.0445 -0.2112  0.2876
 8373TIP3    H249315   1.968   3.014   1.282  1.3906  1.4830  0.4409
 8374TIP3   OH249316   5.914   5.786   1.907 -0.4307 -0.0335  0.3247
 8374TIP3    H149317   5.985   5.765   1.846  0.2836  1.0343  0.7594
 8374TIP3    H249318   5.835   5.783   1.853  0.2557  1.5932 -0.8694
 8375TIP3   OH249319   3.276   5.197   1.624 -0.1268  0.7224  0.2064
 8375TIP3    H149320   3.348   5.233   1.574 -0.8161 -0.4238 -1.7039
 8375TIP3    H249321   3.213   5.269   1.630 -0.2695  0.7264 -1.0882
 8376TIP3   OH249322   0.251   0.798   1.382  0.0750  0.0452 -0.6017
 8376TIP3    H149323   0.226   0.708   1.358 -0.8772 -0.3167  1.5566
 8376TIP3    H249324   0.298   0.789   1.465  2.6058  1.3146 -1.7672
 8377TIP3   OH249325   1.473   4.234   2.869  0.4118  0.1073 -0.1503
 8377TIP3    H149326   1.556   4.274   2.897 -0.4831  1.1738  1.1324
 8377TIP3    H249327   1.407   4.274   2.927 -0.6882 -2.5520  0.5556
 8378TIP3   OH249328   3.762   5.179   0.737 -0.0596 -0.3508 -0.6210
 8378TIP3    H149329   3.722   5.258   0.772  1.5670  0.3496 -0.2724
 8378TIP3    H249330   3.716   5.107   0.781 -0.4525  0.4354  0.2772
 8379TIP3   OH249331   6.360   1.407   1.950  0.8642  0.3944  0.1034
 8379TIP3    H149332   6.379   1.339   1.885  0.0578  0.4731 -0.2222
 8379TIP3    H249333   6.446   1.446   1.969  1.3259 -0.6494  0.2382
 8380TIP3   OH249334   5.848   1.186   0.818  0.2709 -0.2428 -0.2241
 8380TIP3    H149335   5.767   1.234   0.800 -0.4606 -1.7204 -1.1238
 8380TIP3    H249336   5.910   1.220   0.754 -0.2703 -0.5265 -0.9237
 8381TIP3   OH249337   0.856   1.081   0.818  0.0133  0.2233  0.3383
 8381TIP3    H149338   0.804   1.076   0.898 -0.1889  0.6084  0.2335
 8381TIP3    H249339   0.837   1.000   0.771 -0.8304  0.5486  0.0953
 8382TIP3   OH249340   0.237   0.524   0.613  0.0926 -0.2836 -0.0798
 8382TIP3    H149341   0.276   0.453   0.561  0.1082 -0.3148 -0.0248
 8382TIP3    H249342   0.306   0.590   0.619  0.1243 -0.3227 -0.0146
 8383TIP3   OH249343   4.239   3.212   2.020  0.0746 -0.3395 -0.0588
 8383TIP3    H149344   4.298   3.287   2.029  2.8314 -2.1815 -1.3068
 8383TIP3    H249345   4.172   3.241   1.958 -0.9371  2.1167  2.0406
 8384TIP3   OH249346   2.787   6.009   1.025  0.1165  0.2888  0.0700
 8384TIP3    H149347   2.876   5.981   1.049 -0.4162  0.2342  2.1992
 8384TIP3    H249348   2.768   6.081   1.085 -2.3296 -1.5972  1.7658
 8385TIP3   OH249349   6.652   6.976   2.310 -0.0027 -0.0673 -0.3962
 8385TIP3    H149350   6.597   6.926   2.250 -2.3673  1.7072  0.1406
 8385TIP3    H249351   6.722   7.011   2.256  0.0085 -1.4918 -1.3449
 8386TIP3   OH249352   6.846   5.015   2.585  0.0693  0.3397 -0.0733
 8386TIP3    H149353   6.931   4.983   2.614 -0.6118 -1.7766 -0.2010
 8386TIP3    H249354   6.787   4.941   2.598 -0.9939  0.4208 -3.4792
 8387TIP3   OH249355   3.696   4.187   2.753 -0.2398  0.1002  0.2087
 8387TIP3    H149356   3.640   4.155   2.682  0.3231 -0.9823  0.2331
 8387TIP3    H249357   3.670   4.135   2.829  1.0841 -0.7291  0.1175
 8388TIP3   OH249358   7.531   6.545   1.913 -0.2130  0.8925  0.3322
 8388TIP3    H149359   7.525   6.542   1.818 -0.2470  0.0598  0.3519
 8388TIP3    H249360   7.604   6.486   1.934  0.8025  2.2511  0.7408
 8389TIP3   OH249361   5.205   5.497   0.606  0.7010  0.1877 -0.0444
 8389TIP3    H149362   5.139   5.467   0.669  1.8901 -0.7276  0.8133
 8389TIP3    H249363   5.189   5.591   0.597 -0.5076  0.0339  0.3900
 8390TIP3   OH249364   3.244   0.123   0.736 -0.1978 -0.0698 -0.7025
 8390TIP3    H149365   3.199   0.204   0.760  1.1832  0.8185 -1.0533
 8390TIP3    H249366   3.278   0.139   0.649  1.3184 -0.5002 -0.2126
 8391TIP3   OH249367   5.314   3.347   2.815  0.1554  0.8319 -0.6374
 8391TIP3    H149368   5.241   3.305   2.862  2.0263 -1.2741  0.6084
 8391TIP3    H249369   5.345   3.414   2.875  1.9574 -1.2479  0.9299
 8392TIP3   OH249370   0.936   7.466   1.331  0.0811  0.0650 -0.0101
 8392TIP3    H149371   0.915   7.473   1.238 -0.1121  0.7138  0.0784
 8392TIP3    H249372   0.963   7.554   1.356 -0.0110 -0.0727  0.5870
 8393TIP3   OH249373   4.183   1.202   2.531 -0.4666  0.4765 -0.3750
 8393TIP3    H149374   4.242   1.140   2.574 -1.0155  1.4056  1.8639
 8393TIP3    H249375   4.098   1.157   2.528 -0.6065  0.6921  0.2388
 8394TIP3   OH249376   5.208   3.850   2.899 -0.0510  0.0375  0.2118
 8394TIP3    H149377   5.228   3.852   2.805 -1.0094 -0.8290 -0.0161
 8394TIP3    H249378   5.254   3.927   2.934  1.4319 -0.3759 -0.7290
 8395TIP3   OH249379   6.222   1.507   2.463 -0.0279  0.5399  0.6656
 8395TIP3    H149380   6.197   1.575   2.526 -1.0963  1.3060 -0.5408
 8395TIP3    H249381   6.249   1.555   2.385  2.4667 -0.3543  0.8766
 8396TIP3   OH249382   0.372   5.075   2.403 -0.2038 -0.3855  0.0928
 8396TIP3    H149383   0.383   5.123   2.485 -1.3095 -0.1556  0.1254
 8396TIP3    H249384   0.353   5.144   2.338  0.8111 -0.5458 -0.4020
 8397TIP3   OH249385   3.278   0.686   0.766  0.4524  0.4218 -0.1443
 8397TIP3    H149386   3.245   0.606   0.806  0.5085  0.9993  1.0840
 8397TIP3    H249387   3.206   0.749   0.772  0.3040  0.3990 -1.3679
 8398TIP3   OH249388   2.909   5.012   1.179 -0.2516  0.1320  0.4889
 8398TIP3    H149389   2.854   4.936   1.161  0.6450  0.0566 -2.4537
 8398TIP3    H249390   2.897   5.069   1.103  1.4507  1.5181  1.1719
 8399TIP3   OH249391   6.699   2.962   3.024  0.1471  0.2501 -0.4567
 8399TIP3    H149392   6.637   3.019   3.069 -0.7949 -0.0529 -1.3322
 8399TIP3    H249393   6.675   2.874   3.052 -0.6095  0.0393 -1.7033
 8400TIP3   OH249394   1.454   1.027   3.230  0.2552 -0.0546 -0.2193
 8400TIP3    H149395   1.424   1.113   3.200 -0.9149 -0.8812 -1.4952
 8400TIP3    H249396   1.542   1.043   3.264 -0.3217  1.8300  0.5359
 8401TIP3   OH249397   1.337   1.387   2.237  0.0028 -0.4381  0.0419
 8401TIP3    H149398   1.349   1.391   2.142  0.9089 -1.3253  0.1064
 8401TIP3    H249399   1.244   1.406   2.250 -0.2367 -0.7854 -1.0626
 8402TIP3   OH249400   2.226   4.818   0.719  0.4375  0.3412  0.3811
 8402TIP3    H149401   2.160   4.882   0.744 -0.1654 -0.1889  0.1567
 8402TIP3    H249402   2.221   4.749   0.786  0.2990 -0.0268 -0.0037
 8403TIP3   OH249403   0.928   6.716   2.017  0.2225 -0.4400 -0.3176
 8403TIP3    H149404   0.941   6.740   2.109 -0.4067 -2.0040  0.2180
 8403TIP3    H249405   0.990   6.771   1.969  0.7219  0.2535  1.0634
 8404TIP3   OH249406   0.804   6.470   1.873  0.0824  0.2822  0.4861
 8404TIP3    H149407   0.769   6.498   1.958  0.3054  0.8007  0.4101
 8404TIP3    H249408   0.821   6.551   1.826 -0.9697 -0.0079 -0.4533
 8405TIP3   OH249409   3.845   6.475   0.567 -0.4731  0.0182  0.4171
 8405TIP3    H149410   3.915   6.442   0.624  0.7867  2.1707  0.2082
 8405TIP3    H249411   3.843   6.569   0.584 -2.0657  0.2749 -0.9745
 8406TIP3   OH249412   1.743   3.067   1.147  0.5634 -0.3675 -0.1543
 8406TIP3    H149413   1.786   3.141   1.104  0.3778 -0.3779 -0.3563
 8406TIP3    H249414   1.737   3.094   1.239  3.0506 -1.2672  0.3628
 8407TIP3   OH249415   4.702   3.243   2.179  0.1988 -0.2672  0.4477
 8407TIP3    H149416   4.767   3.211   2.241 -0.0048 -1.1156  0.2447
 8407TIP3    H249417   4.665   3.163   2.140  0.7322  0.2338 -1.1727
 8408TIP3   OH249418   6.185   4.395   2.265  0.0132 -0.2830  1.0848
 8408TIP3    H149419   6.182   4.307   2.304 -1.4393 -1.3823 -1.2955
 8408TIP3    H249420   6.149   4.384   2.177  2.7141  2.1132 -0.5148
 8409TIP3   OH249421   2.123   7.628   2.855  0.2681 -0.2223 -0.3639
 8409TIP3    H149422   2.050   7.683   2.882  0.4513 -0.1327 -0.0402
 8409TIP3    H249423   2.175   7.617   2.935  0.5797 -0.3271 -0.5798
 8410TIP3   OH249424   6.550   4.669   0.753  0.0429  0.1239  0.0811
 8410TIP3    H149425   6.543   4.764   0.738  0.7198 -0.0144 -1.3363
 8410TIP3    H249426   6.476   4.632   0.703 -0.3139 -0.0929  0.7631
 8411TIP3   OH249427   4.769   7.562   1.255 -0.2775  0.5953 -0.3489
 8411TIP3    H149428   4.760   7.555   1.350 -0.1974 -1.2997 -0.4405
 8411TIP3    H249429   4.862   7.544   1.239 -0.3926  0.3890 -0.8057
 8412TIP3   OH249430   3.424   2.282   1.653 -0.1395  0.6177 -0.3368
 8412TIP3    H149431   3.339   2.299   1.611  0.6698 -2.3297 -3.6302
 8412TIP3    H249432   3.430   2.350   1.721 -5.2120  0.7857  0.3938
 8413TIP3   OH249433   6.975   6.788   2.310  0.7961  0.2429 -0.3557
 8413TIP3    H149434   6.935   6.728   2.248  0.3554 -0.7994  0.8944
 8413TIP3    H249435   7.068   6.767   2.309  0.8407  0.4594 -0.8952
 8414TIP3   OH249436   1.189   2.281   1.386 -0.3636  0.3604 -0.3820
 8414TIP3    H149437   1.115   2.335   1.357 -0.2290  0.4534 -0.5587
 8414TIP3    H249438   1.170   2.260   1.477 -0.7955  0.0703 -0.5358
 8415TIP3   OH249439   2.224   2.424   1.961  0.4857 -0.3662  0.9132
 8415TIP3    H149440   2.316   2.404   1.942  0.5328 -1.3688  2.1030
 8415TIP3    H249441   2.177   2.343   1.939 -0.2263  0.3505 -0.3161
 8416TIP3   OH249442   7.312   3.511   3.342 -0.1719 -0.3400 -0.2532
 8416TIP3    H149443   7.282   3.449   3.409  1.9203  0.2600  1.3223
 8416TIP3    H249444   7.359   3.456   3.279  1.0469 -0.4951  0.7539
 8417TIP3   OH249445   4.065   6.206   2.658 -0.6303  0.0690 -0.4952
 8417TIP3    H149446   4.096   6.255   2.581 -1.1555 -0.1425 -0.8462
 8417TIP3    H249447   4.116   6.242   2.731 -0.4713  0.6158 -0.8645
 8418TIP3   OH249448   3.529   6.524   1.882 -0.0136 -0.4104  0.3050
 8418TIP3    H149449   3.461   6.523   1.949  0.5314  1.8221  0.9864
 8418TIP3    H249450   3.570   6.438   1.888  0.1001 -0.2677  2.9729
 8419TIP3   OH249451   4.849   5.297   1.961  0.3164 -0.0964  0.1618
 8419TIP3    H149452   4.886   5.218   1.921 -0.8643 -1.3446  1.4106
 8419TIP3    H249453   4.905   5.313   2.037  1.0389  0.7757 -0.5357
 8420TIP3   OH249454   4.070   0.383   1.603 -0.0682 -0.0455 -1.0254
 8420TIP3    H149455   4.084   0.474   1.631  0.5378 -0.1526 -0.9521
 8420TIP3    H249456   4.145   0.336   1.639 -0.5579 -0.6423 -0.7821
 8421TIP3   OH249457   2.402   5.939   1.912  0.6733  0.6323 -0.2364
 8421TIP3    H149458   2.423   6.019   1.960  1.3025  1.3201 -1.6191
 8421TIP3    H249459   2.458   5.942   1.835  0.1675 -0.7859 -0.6811
 8422TIP3   OH249460   4.810   0.500   1.088 -0.3979 -0.0757 -0.3778
 8422TIP3    H149461   4.840   0.432   1.149  2.1787 -0.0395 -1.4569
 8422TIP3    H249462   4.774   0.453   1.014 -1.1869 -0.1644  0.0472
 8423TIP3   OH249463   2.470   6.842   0.709 -0.8824  0.4521  0.3480
 8423TIP3    H149464   2.563   6.829   0.688 -0.2475  0.4314  2.8473
 8423TIP3    H249465   2.437   6.753   0.724 -0.4605  0.6117  2.4921
 8424TIP3   OH249466   7.009   4.126   2.144 -0.1678 -0.2523 -0.2321
 8424TIP3    H149467   6.988   4.051   2.200  0.3039 -0.2267 -0.0132
 8424TIP3    H249468   6.985   4.202   2.198  3.2749 -0.0870  1.3251
 8425TIP3   OH249469   0.789   5.258   0.516 -0.1194 -0.2736 -0.1732
 8425TIP3    H149470   0.805   5.193   0.447  1.6242 -0.1406  0.0580
 8425TIP3    H249471   0.874   5.272   0.556 -1.2851 -1.2503  2.8977
 8426TIP3   OH249472   0.668   2.292   2.640 -0.3909  0.2085 -0.2883
 8426TIP3    H149473   0.622   2.302   2.557 -0.6183  1.0361 -0.0629
 8426TIP3    H249474   0.662   2.377   2.682 -1.3422 -0.5234  1.1384
 8427TIP3   OH249475   1.188   2.786   2.692  0.6498  0.1339  0.2012
 8427TIP3    H149476   1.138   2.865   2.672  0.3591 -0.1977 -0.4221
 8427TIP3    H249477   1.250   2.778   2.619 -0.8725 -1.4673 -0.9981
 8428TIP3   OH249478   0.343   4.930   2.914  0.2312  0.2807 -0.5318
 8428TIP3    H149479   0.249   4.922   2.899  0.0360  2.7026 -0.9845
 8428TIP3    H249480   0.351   4.987   2.990  1.3701 -0.4697 -0.0485
 8429TIP3   OH249481   5.563   3.626   2.770 -0.2167 -0.2083 -0.2539
 8429TIP3    H149482   5.476   3.589   2.755  0.4086 -1.6986 -0.4247
 8429TIP3    H249483   5.623   3.559   2.736  0.9875  0.9254 -0.4149
 8430TIP3   OH249484   6.890   0.411   1.066  0.1881 -0.0182  0.4801
 8430TIP3    H149485   6.892   0.505   1.050  2.2174 -0.1280 -0.1504
 8430TIP3    H249486   6.971   0.378   1.028  0.1665 -1.8423  1.8683
 8431TIP3   OH249487   1.435   7.352   2.099  0.0082  0.1610 -0.3749
 8431TIP3    H149488   1.417   7.385   2.011  0.5560  0.1782 -0.4805
 8431TIP3    H249489   1.515   7.302   2.091 -0.3300 -0.4476 -0.0245
 8432TIP3   OH249490   3.124   6.643   1.760 -0.5240  0.5219  0.6733
 8432TIP3    H149491   3.072   6.670   1.685  0.4593 -1.2649 -0.7485
 8432TIP3    H249492   3.102   6.551   1.773  0.5044  0.3788  1.5608
 8433TIP3   OH249493   5.223   5.679   2.397 -0.0116  0.8960  0.6326
 8433TIP3    H149494   5.245   5.639   2.313 -0.0905  3.6353 -0.8081
 8433TIP3    H249495   5.269   5.626   2.462  2.3094  0.2803 -1.3636
 8434TIP3   OH249496   1.481   0.293   2.223  0.1293 -0.7751  0.1433
 8434TIP3    H149497   1.561   0.304   2.274  0.4164  1.0085 -0.6078
 8434TIP3    H249498   1.510   0.259   2.138 -0.0454 -1.2740  0.2833
 8435TIP3   OH249499   5.930   0.101   1.272  0.4864  0.5792  0.7160
 8435TIP3    H149500   5.946   0.026   1.329  1.4581  1.7169  2.0076
 8435TIP3    H249501   5.999   0.096   1.206 -0.3710 -0.4866 -0.1467
 8436TIP3   OH249502   7.492   3.154   1.388 -0.8563 -0.4531 -0.6886
 8436TIP3    H149503   7.564   3.093   1.372 -0.6192 -0.5798  0.6811
 8436TIP3    H249504   7.418   3.118   1.341  0.2284  0.2842 -3.0876
 8437TIP3   OH249505   0.449   3.901   3.436  0.0780  0.0613 -0.2733
 8437TIP3    H149506   0.534   3.878   3.474 -0.3654 -0.5054  0.4018
 8437TIP3    H249507   0.417   3.820   3.398 -1.0020 -0.2152  1.1477
 8438TIP3   OH249508   2.378   0.164   0.828 -0.3117  0.0399  0.2689
 8438TIP3    H149509   2.470   0.184   0.848 -0.0496 -1.8386  1.1182
 8438TIP3    H249510   2.375   0.069   0.820 -2.1888  0.0629  0.2057
 8439TIP3   OH249511   6.728   3.575   2.646 -0.1618  0.6032  0.2722
 8439TIP3    H149512   6.799   3.604   2.704  0.4761  0.4421 -0.4145
 8439TIP3    H249513   6.649   3.614   2.684  0.0558 -0.5249  1.9755
 8440TIP3   OH249514   0.859   6.692   1.722 -0.5228 -0.3753  0.0766
 8440TIP3    H149515   0.880   6.699   1.629 -0.2597 -0.7723  0.1054
 8440TIP3    H249516   0.931   6.737   1.766 -0.5536 -0.3466  0.0982
 8441TIP3   OH249517   7.101   5.892   2.533  0.0775 -0.0430 -0.5230
 8441TIP3    H149518   7.096   5.927   2.443 -1.6735 -1.4268 -1.0052
 8441TIP3    H249519   7.173   5.942   2.573 -0.0881  1.6873 -2.2053
 8442TIP3   OH249520   6.373   5.659   0.831  0.3059  0.6416  0.0599
 8442TIP3    H149521   6.365   5.751   0.853 -0.4048  0.5195  0.3526
 8442TIP3    H249522   6.292   5.638   0.784  1.1125  0.5178 -1.3271
 8443TIP3   OH249523   3.884   3.473   2.685 -0.3914 -0.2760  0.2456
 8443TIP3    H149524   3.822   3.410   2.650  0.3684 -0.7109 -0.3374
 8443TIP3    H249525   3.960   3.421   2.712  0.3207  0.3940 -0.4007
 8444TIP3   OH249526   6.041   7.546   0.988  0.3187  0.5745 -0.3806
 8444TIP3    H149527   5.946   7.556   0.988  0.4246  2.0748  1.2541
 8444TIP3    H249528   6.067   7.555   0.896 -1.2171 -1.3632 -1.0571
 8445TIP3   OH249529   0.179   3.585   0.613  0.0678  0.0278  0.5958
 8445TIP3    H149530   0.163   3.674   0.646  0.0577  0.8289 -1.4062
 8445TIP3    H249531   0.104   3.567   0.557  0.8785 -0.5710 -0.3232
 8446TIP3   OH249532   2.983   7.356   2.666 -0.5135  0.2736  0.1326
 8446TIP3    H149533   3.000   7.277   2.614 -1.7983  0.9155 -1.3347
 8446TIP3    H249534   3.056   7.360   2.729  1.0603 -0.5999 -1.5530
 8447TIP3   OH249535   0.958   6.762   2.288  0.6029  0.3361  0.3250
 8447TIP3    H149536   0.901   6.798   2.356  0.2579 -0.1759  0.3144
 8447TIP3    H249537   1.045   6.761   2.328  0.5801  0.9838  0.3957
 8448TIP3   OH249538   2.721   5.115   2.730  0.0079  0.0274 -0.6045
 8448TIP3    H149539   2.807   5.134   2.693 -0.3793  1.0857 -0.9946
 8448TIP3    H249540   2.674   5.068   2.661 -0.1323  0.5152 -0.8487
 8449TIP3   OH249541   2.768   5.553   2.097 -0.1441  0.7947  0.0918
 8449TIP3    H149542   2.837   5.595   2.148  0.7358 -1.7689  1.1532
 8449TIP3    H249543   2.806   5.542   2.010  0.7653 -0.4570  0.6281
 8450TIP3   OH249544   0.092   6.432   2.044 -0.6942  0.1645  0.1558
 8450TIP3    H149545   0.139   6.349   2.044  1.3072  1.1973  1.6859
 8450TIP3    H249546   0.012   6.415   2.093  0.3265 -0.5806  1.6324
 8451TIP3   OH249547   1.537   4.298   1.579 -0.3357 -0.1647  0.0395
 8451TIP3    H149548   1.492   4.217   1.555 -0.3890 -0.4960  1.1844
 8451TIP3    H249549   1.468   4.364   1.583 -0.3052 -0.0761 -0.8165
 8452TIP3   OH249550   7.331   4.686   0.973  0.4534  0.5867 -0.5972
 8452TIP3    H149551   7.259   4.714   0.918  0.0571  1.4069  0.3036
 8452TIP3    H249552   7.322   4.591   0.980  0.4874  0.4743 -1.8756
 8453TIP3   OH249553   3.387   2.945   3.026 -0.2460  0.5872  0.5374
 8453TIP3    H149554   3.452   2.910   2.966 -0.7943 -0.9217  0.7967
 8453TIP3    H249555   3.438   2.975   3.101  0.3689  1.7992 -0.3197
 8454TIP3   OH249556   1.444   2.712   2.594  0.4584 -0.2644  0.2605
 8454TIP3    H149557   1.498   2.634   2.583 -0.7102 -1.2866  1.4622
 8454TIP3    H249558   1.464   2.744   2.682  1.1211  0.9802 -0.3143
 8455TIP3   OH249559   1.013   2.994   2.923 -0.1893  0.5209 -0.4543
 8455TIP3    H149560   0.934   3.046   2.928  0.2720  1.2535 -0.6312
 8455TIP3    H249561   1.082   3.056   2.900  0.6167  0.0833  0.6625
 8456TIP3   OH249562   5.044   4.333   2.538  0.6569 -0.2716 -0.3376
 8456TIP3    H149563   5.124   4.364   2.494  1.4735  0.1063  1.3428
 8456TIP3    H249564   5.046   4.375   2.624 -2.1561  0.9432 -0.7704
 8457TIP3   OH249565   0.568   4.973   1.841  0.5682  0.5032 -0.2090
 8457TIP3    H149566   0.545   5.049   1.788 -0.2521 -0.3393 -1.0971
 8457TIP3    H249567   0.664   4.974   1.842  0.6268  0.2588 -2.1691
 8458TIP3   OH249568   6.536   6.717   1.641 -0.4473  0.0133 -0.1096
 8458TIP3    H149569   6.625   6.686   1.620  0.3994  0.9199  1.9221
 8458TIP3    H249570   6.489   6.710   1.558  2.0765  1.4519 -1.8037
 8459TIP3   OH249571   6.192   3.321   1.996  0.1670  0.4145  0.0373
 8459TIP3    H149572   6.102   3.325   2.030  0.5674  1.2065  1.0635
 8459TIP3    H249573   6.188   3.365   1.911 -0.2838  1.0953  0.3995
 8460TIP3   OH249574   6.473   4.359   2.066 -0.0463 -0.1785  0.1765
 8460TIP3    H149575   6.413   4.391   1.998 -1.1653 -0.9593  0.7785
 8460TIP3    H249576   6.455   4.266   2.072  0.6861 -0.2819  0.9363
 8461TIP3   OH249577   1.375   6.180   1.216 -0.0905  0.0937  0.4581
 8461TIP3    H149578   1.417   6.100   1.186 -0.4202  0.3458 -0.7184
 8461TIP3    H249579   1.305   6.196   1.153 -0.1528  1.2068  0.7843
 8462TIP3   OH249580   6.619   0.267   0.627  0.2205 -0.7956 -0.0450
 8462TIP3    H149581   6.674   0.319   0.569 -0.9624 -0.2397 -0.7130
 8462TIP3    H249582   6.622   0.314   0.711  1.1015 -1.0222  0.0606
 8463TIP3   OH249583   7.154   2.285   2.134 -0.0870 -0.2147 -0.1929
 8463TIP3    H149584   7.164   2.196   2.166 -0.3420 -0.4049 -0.6423
 8463TIP3    H249585   7.212   2.337   2.190 -0.9141 -0.4624  0.9328
 8464TIP3   OH249586   6.640   0.995   1.213 -0.5770  0.4540  0.5836
 8464TIP3    H149587   6.733   0.980   1.195 -0.8613 -0.3002 -0.3669
 8464TIP3    H249588   6.639   1.039   1.298  0.6508  0.5618  0.5656
 8465TIP3   OH249589   3.379   0.406   2.513 -0.6096  0.2030 -0.1303
 8465TIP3    H149590   3.408   0.355   2.589  0.9641  1.1436 -0.0719
 8465TIP3    H249591   3.360   0.493   2.548 -1.3246  0.2321 -0.5747
 8466TIP3   OH249592   4.239   3.427   1.732 -0.5035  0.4105  0.1204
 8466TIP3    H149593   4.159   3.384   1.761  0.3028 -1.8722 -0.7997
 8466TIP3    H249594   4.214   3.478   1.655 -0.7992 -1.8878 -1.4046
 8467TIP3   OH249595   0.845   0.621   1.471 -0.3164 -0.6823  0.1080
 8467TIP3    H149596   0.810   0.709   1.485 -1.1749 -1.0301  0.2632
 8467TIP3    H249597   0.932   0.634   1.435 -0.6560  0.2339 -0.4041
 8468TIP3   OH249598   1.706   6.827   1.844  0.0785 -0.6960 -0.6890
 8468TIP3    H149599   1.765   6.755   1.864  0.1745 -0.3930  0.1870
 8468TIP3    H249600   1.619   6.794   1.869  0.0113 -0.8052 -1.0723
 8469TIP3   OH249601   6.753   3.978   0.692 -0.7374  0.7588 -0.0810
 8469TIP3    H149602   6.813   3.932   0.634  0.7154  0.3982  1.5855
 8469TIP3    H249603   6.715   3.909   0.746 -0.5557  1.2343  0.6733
 8470TIP3   OH249604   5.853   4.546   1.094  0.7700 -0.0711 -0.0923
 8470TIP3    H149605   5.864   4.607   1.021  0.8434 -0.6999 -0.6207
 8470TIP3    H249606   5.866   4.459   1.055  0.4013 -0.4438  0.5865
 8471TIP3   OH249607   0.848   7.136   2.761 -0.0341 -0.3800 -0.0998
 8471TIP3    H149608   0.767   7.087   2.756 -0.0050 -0.7639  2.1881
 8471TIP3    H249609   0.833   7.202   2.829  1.2009  0.2804 -0.4247
 8472TIP3   OH249610   0.757   0.185   2.402 -0.0561  0.1511 -0.1414
 8472TIP3    H149611   0.755   0.090   2.388 -0.0117  0.3248 -1.4741
 8472TIP3    H249612   0.840   0.201   2.445 -0.4210 -0.4910  0.8541
 8473TIP3   OH249613   6.429   1.566   1.048  0.1483 -0.0723 -0.3424
 8473TIP3    H149614   6.339   1.580   1.020  0.3338 -0.9731 -1.4770
 8473TIP3    H249615   6.444   1.632   1.115 -1.7285 -0.6465  0.7279
 8474TIP3   OH249616   5.702   1.923   1.098  0.9890  0.1574  0.1121
 8474TIP3    H149617   5.732   1.994   1.155 -0.3249  1.6686 -0.9607
 8474TIP3    H249618   5.680   1.852   1.158  2.1161  0.7272  1.2563
 8475TIP3   OH249619   4.763   1.765   2.046  0.5772  0.3732 -0.0355
 8475TIP3    H149620   4.743   1.756   1.953  2.0389  0.1976 -0.3542
 8475TIP3    H249621   4.698   1.827   2.079 -0.6117 -0.3566 -0.9348
 8476TIP3   OH249622   5.633   4.535   1.847 -0.1659 -0.3382 -0.1408
 8476TIP3    H149623   5.625   4.525   1.753 -0.3319 -2.2032  0.0311
 8476TIP3    H249624   5.720   4.502   1.868 -0.8177 -1.7058  0.5345
 8477TIP3   OH249625   4.159   1.492   0.457  0.5082  0.2944  0.3417
 8477TIP3    H149626   4.251   1.504   0.435  0.8802 -0.4753  1.3499
 8477TIP3    H249627   4.144   1.397   0.448  0.3511  0.1284  2.0016
 8478TIP3   OH249628   0.053   0.949   2.903 -0.0161  0.3025  0.3615
 8478TIP3    H149629   0.029   1.039   2.923 -1.3355  0.2136 -0.6658
 8478TIP3    H249630   0.129   0.956   2.845 -0.9995  0.8408 -0.9159
 8479TIP3   OH249631   0.709   5.337   1.881 -0.3089 -0.2166 -0.2768
 8479TIP3    H149632   0.779   5.392   1.917 -0.2283 -0.3452 -0.2370
 8479TIP3    H249633   0.744   5.248   1.886 -0.1156 -0.1933 -1.0957
 8480TIP3   OH249634   2.629   1.819   1.233 -0.0729 -0.1354 -0.2238
 8480TIP3    H149635   2.607   1.812   1.326 -0.3883 -1.8829 -0.3971
 8480TIP3    H249636   2.647   1.912   1.219 -2.6116  0.6357  1.0120
 8481TIP3   OH249637   6.655   0.671   0.978  0.2588 -0.0121  0.1415
 8481TIP3    H149638   6.735   0.680   1.030 -0.3631  0.6871  0.9903
 8481TIP3    H249639   6.603   0.606   1.025  0.4681 -0.7381 -0.6060
 8482TIP3   OH249640   6.905   5.174   2.215  0.5779 -0.3418 -0.0983
 8482TIP3    H149641   6.972   5.144   2.277  1.6429  0.7515 -0.6897
 8482TIP3    H249642   6.918   5.268   2.209 -2.1443  0.2017  1.0604
 8483TIP3   OH249643   2.751   0.669   1.352  0.3639 -0.2806 -0.2443
 8483TIP3    H149644   2.730   0.576   1.351  0.5173 -0.3108 -0.5188
 8483TIP3    H249645   2.842   0.673   1.382  0.6604 -0.2778 -1.1161
 8484TIP3   OH249646   0.429   5.804   1.522  0.2132 -0.1458  0.0631
 8484TIP3    H149647   0.494   5.738   1.545 -0.2978 -0.6152  0.1769
 8484TIP3    H249648   0.345   5.761   1.536 -0.1611 -0.3711 -2.3795
 8485TIP3   OH249649   2.830   1.707   2.298 -0.1403 -0.1274  0.7119
 8485TIP3    H149650   2.829   1.795   2.260  0.9174 -0.2245  0.4260
 8485TIP3    H249651   2.885   1.715   2.376 -0.7230 -0.3551  1.1519
 8486TIP3   OH249652   2.080   5.591   2.070  0.5500 -0.4460  0.2373
 8486TIP3    H149653   2.174   5.606   2.056  0.1882  1.4559 -0.3655
 8486TIP3    H249654   2.073   5.573   2.164  1.3937  0.4882  0.5005
 8487TIP3   OH249655   3.811   3.007   0.663  0.0160  0.4811 -0.6379
 8487TIP3    H149656   3.859   3.011   0.580 -0.2859  0.2941 -0.8205
 8487TIP3    H249657   3.872   2.963   0.723  0.1602  0.4438 -0.8105
 8488TIP3   OH249658   5.328   2.281   2.229 -0.3578 -0.0780 -0.4186
 8488TIP3    H149659   5.339   2.212   2.295  0.3324 -0.8204 -1.2838
 8488TIP3    H249660   5.385   2.255   2.158 -0.8096  0.9120 -1.1623
 8489TIP3   OH249661   6.874   6.000   1.327  0.1176 -0.3919 -0.3966
 8489TIP3    H149662   6.779   5.991   1.319 -0.3690  2.7955  0.3104
 8489TIP3    H249663   6.904   6.024   1.239 -0.1016  0.7560 -0.1751
 8490TIP3   OH249664   3.519   2.065   2.069  0.1628  0.1916  0.0445
 8490TIP3    H149665   3.462   2.081   1.994  0.1356  2.3627  0.4471
 8490TIP3    H249666   3.602   2.107   2.046  0.5240 -0.0989  0.7681
 8491TIP3   OH249667   1.471   5.322   1.728  0.2429 -1.2644  0.5679
 8491TIP3    H149668   1.481   5.384   1.656 -0.9032 -1.7337 -0.0251
 8491TIP3    H249669   1.546   5.339   1.785  1.1275 -0.8317 -0.6828
 8492TIP3   OH249670   2.778   7.641   3.418  0.3175 -0.1390  0.0850
 8492TIP3    H149671   2.777   7.547   3.434  0.5132 -0.2978 -0.7586
 8492TIP3    H249672   2.742   7.680   3.498 -0.3681 -0.9639  0.1963
 8493TIP3   OH249673   7.388   4.513   2.299  0.5571  0.4726 -0.5137
 8493TIP3    H149674   7.358   4.433   2.255  0.8188 -0.2427  0.5874
 8493TIP3    H249675   7.456   4.548   2.240  1.0316 -0.5656 -0.6054
 8494TIP3   OH249676   4.822   4.039   2.167  0.3730  0.3664 -0.2462
 8494TIP3    H149677   4.898   3.987   2.190  0.3010  0.8241  1.1572
 8494TIP3    H249678   4.830   4.118   2.221 -1.2145  0.3047  0.1259
 8495TIP3   OH249679   0.426   7.450   0.306 -0.4567  0.1001 -0.6596
 8495TIP3    H149680   0.435   7.441   0.211  0.7793 -0.0562 -0.5429
 8495TIP3    H249681   0.380   7.533   0.317 -0.1962  0.3529 -1.3904
 8496TIP3   OH249682   0.827   0.945   2.803  0.1705 -0.1502 -0.0037
 8496TIP3    H149683   0.786   1.016   2.754  1.3223  0.3952 -0.2152
 8496TIP3    H249684   0.882   0.900   2.739  0.6957 -0.2229  0.4885
 8497TIP3   OH249685   5.149   4.770   1.963  0.0563 -0.1164  0.7392
 8497TIP3    H149686   5.241   4.748   1.978 -0.1170 -1.0669  0.4337
 8497TIP3    H249687   5.147   4.802   1.873  0.1303  0.1582  0.8341
 8498TIP3   OH249688   1.852   7.465   2.186  0.1645  0.2145 -0.5640
 8498TIP3    H149689   1.802   7.470   2.267 -0.0156  0.0273 -0.6618
 8498TIP3    H249690   1.835   7.377   2.153  1.8265 -0.4476  0.2149
 8499TIP3   OH249691   7.047   3.315   2.957 -0.2893  0.3672  0.3647
 8499TIP3    H149692   6.989   3.244   2.985  1.2101 -0.6682  0.9718
 8499TIP3    H249693   7.134   3.275   2.956  0.4101  1.8359 -0.6540
 8500TIP3   OH249694   0.739   0.183   2.774 -0.6200  0.2326  0.2862
 8500TIP3    H149695   0.832   0.180   2.751 -0.5985 -1.9278  0.4517
 8500TIP3    H249696   0.735   0.240   2.851  0.3482  1.3990 -0.4818
 8501TIP3   OH249697   4.238   5.763   2.290  0.2483 -0.0555  0.2042
 8501TIP3    H149698   4.223   5.856   2.272 -0.4288 -0.3357 -0.6998
 8501TIP3    H249699   4.180   5.743   2.364  0.0105  0.1140  0.0627
 8502TIP3   OH249700   5.137   6.625   1.245 -0.0856 -0.0640  0.0773
 8502TIP3    H149701   5.189   6.664   1.175 -0.7366 -0.2629 -0.5336
 8502TIP3    H249702   5.161   6.674   1.323  1.0416 -0.1776 -0.1777
 8503TIP3   OH249703   1.419   0.398   0.642 -0.2688 -0.4493  0.1437
 8503TIP3    H149704   1.469   0.380   0.722  0.9737 -1.1402 -0.7465
 8503TIP3    H249705   1.440   0.489   0.621 -0.8454 -0.1655  0.7520
 8504TIP3   OH249706   3.999   6.987   2.977 -0.1619 -0.9121  0.4318
 8504TIP3    H149707   3.958   6.906   3.007  1.8536 -1.8584  0.7804
 8504TIP3    H249708   4.092   6.975   2.996  0.2512  1.2908  0.0257
 8505TIP3   OH249709   0.610   1.618   3.376  0.0147  0.1898 -0.0601
 8505TIP3    H149710   0.648   1.554   3.316 -1.3260 -0.5590 -0.1506
 8505TIP3    H249711   0.585   1.566   3.453  0.6735  0.9454  0.6771
 8506TIP3   OH249712   1.117   0.511   1.915  0.3190 -0.0649  0.8435
 8506TIP3    H149713   1.100   0.418   1.897  0.7174 -0.2634  1.4766
 8506TIP3    H249714   1.045   0.537   1.972 -0.7686  0.4837 -0.7125
 8507TIP3   OH249715   0.463   1.725   2.631  0.2042  0.1172 -0.9265
 8507TIP3    H149716   0.540   1.711   2.576  0.5602 -1.2638 -0.1011
 8507TIP3    H249717   0.495   1.776   2.705  0.0072  0.7882 -1.2929
 8508TIP3   OH249718   4.359   1.334   2.241 -0.0147 -0.6412  0.3767
 8508TIP3    H149719   4.357   1.354   2.147 -0.9868 -2.0348  0.0747
 8508TIP3    H249720   4.283   1.380   2.277  0.7315  0.4381  0.6252
 8509TIP3   OH249721   6.959   1.750   2.500 -0.3712  0.5135  0.1609
 8509TIP3    H149722   6.988   1.686   2.435 -1.6550  0.0109  0.0572
 8509TIP3    H249723   7.013   1.732   2.577  0.4757  0.4610 -0.4337
 8510TIP3   OH249724   2.748   6.518   0.960 -0.2803  0.4770 -0.3313
 8510TIP3    H149725   2.708   6.495   0.876  0.7096  0.7078 -0.8748
 8510TIP3    H249726   2.815   6.451   0.973  0.6786  1.3717 -0.5323
 8511TIP3   OH249727   7.272   1.426   2.510  0.3252  0.3704  0.6644
 8511TIP3    H149728   7.231   1.387   2.588 -0.7024  1.3177  0.6241
 8511TIP3    H249729   7.198   1.457   2.458  1.0043 -0.2419 -0.6966
 8512TIP3   OH249730   3.643   4.818   1.271  0.5108  0.5880  0.1397
 8512TIP3    H149731   3.694   4.841   1.194 -0.2520  0.9464 -0.2649
 8512TIP3    H249732   3.696   4.752   1.316  0.8280  0.1627 -0.8395
 8513TIP3   OH249733   6.263   4.453   1.036 -0.3918  0.3494  0.3755
 8513TIP3    H149734   6.236   4.408   1.116 -1.1740 -0.8015 -0.5175
 8513TIP3    H249735   6.216   4.536   1.039 -1.3315 -0.1788  0.5450
 8514TIP3   OH249736   0.211   1.219   2.877  0.4181  0.2814 -0.4205
 8514TIP3    H149737   0.269   1.185   2.945  0.9303  0.4671 -0.7486
 8514TIP3    H249738   0.130   1.241   2.922  0.2551 -0.8771 -0.1124
 8515TIP3   OH249739   0.498   3.436   0.821 -0.0340 -0.0643 -0.3846
 8515TIP3    H149740   0.529   3.523   0.845 -0.5702 -0.2797  1.1731
 8515TIP3    H249741   0.577   3.383   0.814  0.2529  0.4138 -0.8237
 8516TIP3   OH249742   2.214   1.142   1.127 -0.2545  0.0497 -0.3778
 8516TIP3    H149743   2.255   1.092   1.198 -0.7269 -0.2148 -0.2854
 8516TIP3    H249744   2.186   1.075   1.064 -1.5838  0.1143  0.1049
 8517TIP3   OH249745   7.104   5.272   3.107  0.0778  0.1152 -0.1008
 8517TIP3    H149746   7.108   5.277   3.202  0.7191  0.3703 -0.1334
 8517TIP3    H249747   7.012   5.282   3.085  0.0681  1.3443  0.4261
 8518TIP3   OH249748   0.090   3.607   2.125 -0.5793  0.1078 -0.7776
 8518TIP3    H149749   0.181   3.583   2.111 -0.4187  0.0894  0.2429
 8518TIP3    H249750   0.045   3.576   2.047  0.2424 -0.1112 -1.1748
 8519TIP3   OH249751   3.149   5.454   2.845 -0.3464 -0.7178 -0.5043
 8519TIP3    H149752   3.234   5.489   2.819  0.3561 -1.9302  0.0463
 8519TIP3    H249753   3.086   5.524   2.825  1.0603  1.1730  1.3094
 8520TIP3   OH249754   0.647   2.124   1.632 -0.1644 -0.6915  0.7827
 8520TIP3    H149755   0.626   2.218   1.627  2.5559 -0.0209  0.2507
 8520TIP3    H249756   0.621   2.089   1.546 -0.5426 -0.2784  0.7246
 8521TIP3   OH249757   2.275   6.258   0.781 -0.2314 -0.4617  0.3749
 8521TIP3    H149758   2.297   6.268   0.874  0.3229  0.3882  0.1595
 8521TIP3    H249759   2.238   6.170   0.775  2.2409 -1.6297  0.9358
 8522TIP3   OH249760   0.475   5.231   1.528  0.0605 -0.3949 -0.1351
 8522TIP3    H149761   0.463   5.286   1.450  0.0038 -1.1728 -0.6878
 8522TIP3    H249762   0.385   5.210   1.555  0.0811 -0.1500  0.1241
 8523TIP3   OH249763   1.743   1.084   2.087 -0.5843  0.1275  0.4895
 8523TIP3    H149764   1.678   1.027   2.126 -0.8330  0.5194  0.6568
 8523TIP3    H249765   1.778   1.134   2.161  0.4552 -0.6155  0.5175
 8524TIP3   OH249766   5.011   4.008   2.474 -0.4828  0.1632  0.2558
 8524TIP3    H149767   5.021   4.037   2.565 -0.5505  2.9549 -0.5432
 8524TIP3    H249768   4.919   4.023   2.454 -0.6658 -1.2289 -0.0659
 8525TIP3   OH249769   2.598   3.665   1.383  0.0376  0.0262  0.2749
 8525TIP3    H149770   2.604   3.760   1.393 -0.2589  0.1051 -0.2549
 8525TIP3    H249771   2.684   3.640   1.347  0.0079  0.1341  0.1272
 8526TIP3   OH249772   4.875   3.345   2.978  0.0657 -0.4601  0.1516
 8526TIP3    H149773   4.805   3.285   3.001 -0.4095 -0.2205 -0.6160
 8526TIP3    H249774   4.848   3.429   3.016  0.4349 -0.5954  0.7152
 8527TIP3   OH249775   4.242   5.365   2.271 -0.0092  0.2784  0.2388
 8527TIP3    H149776   4.161   5.361   2.322 -0.9347  0.7554 -1.1334
 8527TIP3    H249777   4.240   5.285   2.218  1.4030 -0.6870  1.5494
 8528TIP3   OH249778   6.090   2.005   1.602  0.4054  0.0421 -0.4056
 8528TIP3    H149779   6.031   1.931   1.587  1.3173 -1.4735  2.5818
 8528TIP3    H249780   6.063   2.040   1.687  1.4049  1.7701 -0.7558
 8529TIP3   OH249781   7.172   6.301   0.813  0.7339  0.0540  0.5988
 8529TIP3    H149782   7.235   6.237   0.849  0.9963 -1.5014 -2.2951
 8529TIP3    H249783   7.222   6.346   0.744 -1.1586 -1.1307 -1.6899
 8530TIP3   OH249784   7.245   4.409   1.000  0.2441  0.1332 -0.3883
 8530TIP3    H149785   7.239   4.370   0.913  1.0798  1.0656 -0.8842
 8530TIP3    H249786   7.322   4.369   1.039  1.9028  2.1512 -1.4022
 8531TIP3   OH249787   5.164   0.748   0.591 -0.6119 -0.7194  0.4441
 8531TIP3    H149788   5.095   0.796   0.636  0.0251 -0.3046  0.9860
 8531TIP3    H249789   5.151   0.768   0.498  0.1463  1.1813  0.7208
 8532TIP3   OH249790   0.390   1.191   1.182  0.3907  0.4580  0.1800
 8532TIP3    H149791   0.345   1.106   1.181 -0.0223  0.5945  2.3717
 8532TIP3    H249792   0.474   1.172   1.224  0.1335  1.1981  1.0410
 8533TIP3   OH249793   6.542   3.053   1.665  0.4593 -0.6197  0.8592
 8533TIP3    H149794   6.489   3.007   1.601  0.3390 -2.3999  2.1503
 8533TIP3    H249795   6.504   3.141   1.670  0.6807 -0.3310 -1.6691
 8534TIP3   OH249796   3.313   6.431   1.305  0.7827  0.2531 -0.7380
 8534TIP3    H149797   3.248   6.410   1.373 -0.1697 -2.1841 -2.2674
 8534TIP3    H249798   3.264   6.483   1.242  1.1055  0.7731 -0.5639
 8535TIP3   OH249799   3.504   4.946   0.767  0.1294  0.0061  0.4024
 8535TIP3    H149800   3.474   4.960   0.856  0.7494  0.2087  0.5863
 8535TIP3    H249801   3.429   4.908   0.721 -0.3793  0.4598  0.8560
 8536TIP3   OH249802   7.033   3.062   2.670  0.0154 -0.3387  0.2130
 8536TIP3    H149803   7.008   3.016   2.751 -0.4929 -0.6704 -0.1206
 8536TIP3    H249804   6.952   3.104   2.640 -0.1839 -1.4323 -0.8942
 8537TIP3   OH249805   1.743   0.256   0.592 -0.3201 -0.0623  1.0615
 8537TIP3    H149806   1.721   0.248   0.685 -1.3674 -1.1660  0.7392
 8537TIP3    H249807   1.658   0.270   0.549  0.1340  0.2292  0.2502
 8538TIP3   OH249808   6.026   1.366   0.707 -0.3936 -0.1321  0.4960
 8538TIP3    H149809   6.098   1.401   0.759 -0.3794  0.8572 -0.1574
 8538TIP3    H249810   6.019   1.426   0.632 -0.8911 -1.0950 -0.2560
 8539TIP3   OH249811   6.129   6.546   3.147  0.1870  0.2236  0.2311
 8539TIP3    H149812   6.200   6.528   3.210 -1.0948  0.1402  1.7010
 8539TIP3    H249813   6.062   6.591   3.198 -1.2350 -0.5261 -0.9088
 8540TIP3   OH249814   1.912   6.734   3.223  0.5196 -0.3618  0.1213
 8540TIP3    H149815   1.841   6.671   3.209  0.6911 -0.8323  1.2232
 8540TIP3    H249816   1.896   6.803   3.159  0.5363 -1.6824 -1.3601
 8541TIP3   OH249817   6.962   4.353   2.650  0.1540 -0.1382 -0.3425
 8541TIP3    H149818   6.868   4.348   2.631 -0.0401 -0.2143  0.5867
 8541TIP3    H249819   6.977   4.445   2.671  0.1478 -0.2448  0.1515
 8542TIP3   OH249820   3.768   4.765   0.946 -0.0157  0.3119  0.2831
 8542TIP3    H149821   3.757   4.856   0.974 -0.4931  0.5671 -0.6823
 8542TIP3    H249822   3.705   4.716   0.999 -0.2736  0.6469  0.2931
 8543TIP3   OH249823   5.478   7.661   1.720 -0.3743  0.3684  0.2585
 8543TIP3    H149824   5.537   7.632   1.790 -0.6219 -2.1854 -0.4710
 8543TIP3    H249825   5.396   7.681   1.764  0.0358  0.6986  0.8963
 8544TIP3   OH249826   4.963   0.144   1.075 -0.1812 -0.2768  0.2531
 8544TIP3    H149827   4.882   0.116   1.032 -0.0378  0.4109 -0.4861
 8544TIP3    H249828   4.935   0.212   1.137 -0.2441 -0.4966  0.4701
 8545TIP3   OH249829   5.832   3.534   1.972  0.1334 -0.8386 -0.5837
 8545TIP3    H149830   5.819   3.526   2.067 -1.3768 -0.4977 -0.7359
 8545TIP3    H249831   5.840   3.628   1.957  2.5248 -0.9829 -0.5827
 8546TIP3   OH249832   3.143   0.691   3.014 -0.2170 -0.4831  0.3781
 8546TIP3    H149833   3.214   0.655   3.067  0.8565  0.0721 -0.6419
 8546TIP3    H249834   3.142   0.784   3.035 -0.7082 -0.4946  0.4321
 8547TIP3   OH249835   6.309   7.506   2.359 -0.0524 -0.5684 -0.0541
 8547TIP3    H149836   6.252   7.537   2.289  1.7596  0.7483 -1.0399
 8547TIP3    H249837   6.334   7.417   2.333  0.4453 -0.1617 -1.0047
 8548TIP3   OH249838   1.260   4.853   0.884  0.6288 -0.0678  0.6114
 8548TIP3    H149839   1.166   4.840   0.898  0.6478  0.5869  1.5064
 8548TIP3    H249840   1.302   4.797   0.950  0.9832 -2.3613 -1.4290
 8549TIP3   OH249841   3.975   5.687   2.408  0.1563 -0.2739 -0.2951
 8549TIP3    H149842   3.999   5.619   2.470  2.3137  1.0477  0.4335
 8549TIP3    H249843   3.937   5.756   2.462 -0.2509 -0.1020 -0.7840
 8550TIP3   OH249844   2.167   2.654   7.375 -0.5715  0.1704  0.2184
 8550TIP3    H149845   2.085   2.652   7.423 -1.1757 -1.8887 -0.7548
 8550TIP3    H249846   2.172   2.567   7.334  0.9437  1.0607 -1.6337
 8551TIP3   OH249847   5.415   2.294   0.827  0.1375  0.0391  0.4234
 8551TIP3    H149848   5.407   2.389   0.832  1.0175  0.2074 -0.9423
 8551TIP3    H249849   5.335   2.265   0.783  0.7661  0.3544 -0.9469
 8552TIP3   OH249850   2.667   1.297   0.656 -0.6572  0.6162 -0.2345
 8552TIP3    H149851   2.683   1.217   0.707 -2.1818 -0.1124 -0.8509
 8552TIP3    H249852   2.577   1.288   0.626 -0.2651  1.7332 -1.8249
 8553TIP3   OH249853   4.856   3.431   1.117 -0.5010  0.3183 -0.5987
 8553TIP3    H149854   4.847   3.494   1.046 -0.3059  1.1563  0.1120
 8553TIP3    H249855   4.915   3.364   1.082  1.4004  1.8559 -0.4633
 8554TIP3   OH249856   5.529   6.053   2.521  0.1974 -0.2597 -0.8009
 8554TIP3    H149857   5.559   6.005   2.445  3.3357  0.8013 -0.3681
 8554TIP3    H249858   5.494   5.986   2.580  2.0117 -1.7105 -1.2832
 8555TIP3   OH249859   2.999   2.266   2.357 -0.4730 -0.0075  0.2728
 8555TIP3    H149860   3.022   2.288   2.267  1.7328 -1.0172  0.5227
 8555TIP3    H249861   2.987   2.351   2.400 -0.4456  0.5058 -0.6972
 8556TIP3   OH249862   4.513   5.070   1.283  0.3895  0.3717 -0.4596
 8556TIP3    H149863   4.505   5.017   1.203 -0.4128 -2.3578  1.2964
 8556TIP3    H249864   4.524   5.006   1.353  0.0901  2.6105  1.7734
 8557TIP3   OH249865   7.399   5.725   2.180  0.3816 -0.2743 -0.1363
 8557TIP3    H149866   7.323   5.778   2.205  0.3123 -0.4873  0.1082
 8557TIP3    H249867   7.365   5.663   2.115  0.1388 -0.9752  0.6468
 8558TIP3   OH249868   6.347   2.063   1.618 -0.5441  0.3994  0.3676
 8558TIP3    H149869   6.399   1.994   1.659 -1.4244 -1.9792 -2.2013
 8558TIP3    H249870   6.257   2.030   1.620 -1.4172  2.5895  1.1257
 8559TIP3   OH249871   5.446   3.144   1.230  0.0982 -0.2458  0.0666
 8559TIP3    H149872   5.387   3.110   1.163  0.2776  0.0372 -0.2327
 8559TIP3    H249873   5.429   3.088   1.306 -0.4960 -0.2200 -0.0403
 8560TIP3   OH249874   1.886   7.171   0.503  0.3105 -0.2679 -0.1360
 8560TIP3    H149875   1.964   7.227   0.501  0.9772 -1.1342  0.6393
 8560TIP3    H249876   1.913   7.095   0.555 -1.0508 -0.5969  0.1125
 8561TIP3   OH249877   2.978   6.778   1.007 -0.1217  0.1290 -0.2973
 8561TIP3    H149878   2.893   6.760   1.046 -0.0507 -1.2562 -0.7265
 8561TIP3    H249879   2.959   6.831   0.930 -0.6848 -0.7926 -0.8061
 8562TIP3   OH249880   2.250   4.668   7.558  0.3769  0.2154 -0.5498
 8562TIP3    H149881   2.301   4.695   7.634  0.2552 -2.5428  0.6479
 8562TIP3    H249882   2.240   4.747   7.506  2.3696  1.7229  1.1954
 8563TIP3   OH249883   1.885   5.934   1.677  0.5652 -0.1056  0.4480
 8563TIP3    H149884   1.801   5.940   1.722  0.8528  1.2437  0.8488
 8563TIP3    H249885   1.945   5.986   1.731  1.2481  0.3518 -0.7129
 8564TIP3   OH249886   0.704   7.353   1.437 -0.0719  0.0664  0.2016
 8564TIP3    H149887   0.720   7.264   1.404  0.1806 -0.0036  0.5131
 8564TIP3    H249888   0.775   7.405   1.398  1.2449 -0.3279  1.9464
 8565TIP3   OH249889   2.112   5.599   1.317  0.2284  0.6983 -0.5147
 8565TIP3    H149890   2.098   5.516   1.362  0.9023  1.3996  1.0831
 8565TIP3    H249891   2.193   5.633   1.355 -0.1980  2.2210 -0.9029
 8566TIP3   OH249892   1.187   0.448   2.354  0.5351 -0.0191 -0.1869
 8566TIP3    H149893   1.162   0.358   2.372  0.4854 -0.4859 -2.3423
 8566TIP3    H249894   1.109   0.487   2.314  0.8063  0.7767  0.0334
 8567TIP3   OH249895   5.211   2.692   1.485  0.6695 -0.3108  1.1769
 8567TIP3    H149896   5.189   2.724   1.397 -3.4081 -0.4967  1.9424
 8567TIP3    H249897   5.269   2.618   1.470  0.7246  0.1492 -1.2906
 8568TIP3   OH249898   2.827   0.932   2.082  0.1360 -0.1763  0.5978
 8568TIP3    H149899   2.744   0.884   2.082  0.0039 -0.0145  2.2737
 8568TIP3    H249900   2.894   0.864   2.090  0.1000 -0.2433  0.3292
 8569TIP3   OH249901   2.099   0.509   1.591 -0.0505 -0.2671  0.2297
 8569TIP3    H149902   2.018   0.467   1.620  0.2026 -3.1966 -2.7427
 8569TIP3    H249903   2.076   0.552   1.509  0.8533  1.3646  0.7792
 8570TIP3   OH249904   0.873   1.409   2.174  0.5357  0.1276 -0.5998
 8570TIP3    H149905   0.828   1.484   2.135  0.8046 -0.5022 -2.1798
 8570TIP3    H249906   0.865   1.339   2.109 -1.0663 -1.7655  1.4468
 8571TIP3   OH249907   6.847   1.393   1.485 -0.1047 -0.2653  0.6416
 8571TIP3    H149908   6.759   1.420   1.511  0.1596 -2.0815  4.0751
 8571TIP3    H249909   6.892   1.474   1.463 -1.9211  0.9882  1.3157
 8572TIP3   OH249910   2.455   6.511   1.518 -0.2541 -0.3959  0.1127
 8572TIP3    H149911   2.371   6.511   1.472 -0.1339 -0.7517 -0.1078
 8572TIP3    H249912   2.511   6.569   1.466 -0.7274  0.8506  0.9435
 8573TIP3   OH249913   0.171   4.941   2.235 -0.5125 -0.3207  1.1140
 8573TIP3    H149914   0.090   4.960   2.283  0.1555  0.8795  1.8148
 8573TIP3    H249915   0.241   4.954   2.299  0.3356  0.2621  0.1020
 8574TIP3   OH249916   3.139   6.754   1.998  0.2302  0.7741 -0.2445
 8574TIP3    H149917   3.131   6.708   1.915  0.1419  0.3914 -0.0288
 8574TIP3    H249918   3.058   6.805   2.005 -0.0116  0.3936 -0.1554
 8575TIP3   OH249919   5.782   3.449   0.371 -0.4407  0.2458  0.7423
 8575TIP3    H149920   5.759   3.433   0.279 -0.5713  0.0400  0.8090
 8575TIP3    H249921   5.699   3.439   0.418 -0.3138  0.0290  0.9204
 8576TIP3   OH249922   1.906   0.908   1.269  0.1610  0.0042 -0.3736
 8576TIP3    H149923   1.964   0.937   1.340 -0.4607  1.7885 -0.5594
 8576TIP3    H249924   1.819   0.937   1.295  0.1540  2.4033 -2.6557
 8577TIP3   OH249925   6.512   2.579   1.350  0.2319 -0.3603 -0.5231
 8577TIP3    H149926   6.548   2.535   1.273  0.3518 -1.0369 -0.0959
 8577TIP3    H249927   6.569   2.551   1.422 -2.0026 -2.7625  0.4711
 8578TIP3   OH249928   0.322   3.341   1.053  0.1812  0.4853 -0.3214
 8578TIP3    H149929   0.312   3.246   1.046 -0.9127  0.4550  1.2832
 8578TIP3    H249930   0.388   3.362   0.986 -0.3026 -1.2429 -1.4327
 8579TIP3   OH249931   3.718   2.318   1.832  0.3743  0.4511  0.0488
 8579TIP3    H149932   3.802   2.359   1.854 -0.0488  0.6630  1.3297
 8579TIP3    H249933   3.735   2.224   1.836 -0.0934  0.4011  3.2453
 8580TIP3   OH249934   6.731   2.735   0.577  0.1159 -0.6253  0.4641
 8580TIP3    H149935   6.751   2.651   0.619  0.7231 -0.5609  0.3123
 8580TIP3    H249936   6.652   2.766   0.623  1.6114  0.1812  2.6951
 8581TIP3   OH249937   2.322   0.635   2.014 -0.1056  0.0986  0.0597
 8581TIP3    H149938   2.372   0.682   1.947  1.1982 -1.5847 -0.2094
 8581TIP3    H249939   2.243   0.606   1.969 -0.2732  0.8324 -0.1358
 8582TIP3   OH249940   1.933   4.331   2.241 -0.5663  0.4387  0.6002
 8582TIP3    H149941   2.018   4.368   2.264 -0.6807  1.0172  0.1541
 8582TIP3    H249942   1.949   4.284   2.159 -0.8321  1.2742  0.0486
 8583TIP3   OH249943   2.746   2.706   2.596  0.6478  0.3753 -0.6555
 8583TIP3    H149944   2.678   2.767   2.569 -0.3741 -1.5199 -2.7100
 8583TIP3    H249945   2.764   2.654   2.518  1.8229 -1.6294  0.8384
 8584TIP3   OH249946   1.322   5.165   3.013  0.0275  0.3965  0.2985
 8584TIP3    H149947   1.238   5.171   2.968  1.1722  1.1382 -1.8911
 8584TIP3    H249948   1.349   5.256   3.028  1.3859  0.2467 -0.9880
 8585TIP3   OH249949   3.112   1.686   1.915 -0.4163 -0.0082  0.4312
 8585TIP3    H149950   3.207   1.688   1.903 -0.1704 -1.9668  1.5870
 8585TIP3    H249951   3.087   1.777   1.932  1.2315  0.5423  0.0737
 8586TIP3   OH249952   7.110   6.442   1.753  0.3433  0.0628 -0.1728
 8586TIP3    H149953   7.015   6.449   1.760  0.3287  0.4776 -0.7191
 8586TIP3    H249954   7.142   6.529   1.775  0.4487  0.5865 -2.2457
 8587TIP3   OH249955   3.972   1.170   0.662  0.8041  0.5174 -0.4703
 8587TIP3    H149956   4.056   1.149   0.702  0.1292  1.3802  1.5295
 8587TIP3    H249957   3.908   1.120   0.713  0.0734 -0.1608 -1.9893
 8588TIP3   OH249958   3.789   6.037   1.140 -0.4351 -0.3145 -0.1669
 8588TIP3    H149959   3.733   6.068   1.069  1.4380  1.2778 -1.0704
 8588TIP3    H249960   3.822   6.118   1.180  0.3809 -1.1940  0.9855
 8589TIP3   OH249961   2.495   3.759   1.025  0.2179 -0.3636 -0.2484
 8589TIP3    H149962   2.484   3.823   0.955  1.3232  1.2015  0.9112
 8589TIP3    H249963   2.412   3.760   1.072  0.7697  1.7122  0.8489
 8590TIP3   OH249964   3.832   3.729   1.923  0.1880 -0.3915  0.7373
 8590TIP3    H149965   3.852   3.747   1.831 -3.6921  1.7498  0.1271
 8590TIP3    H249966   3.865   3.805   1.970  0.3922 -0.5476  0.8479
 8591TIP3   OH249967   3.315   6.968   1.022 -0.0417  0.1856  0.4011
 8591TIP3    H149968   3.302   7.047   1.075  0.4122  1.1329 -0.8640
 8591TIP3    H249969   3.227   6.930   1.014 -0.1162 -0.0184  1.8517
 8592TIP3   OH249970   5.410   1.880   0.856 -0.3730 -0.4981  0.0635
 8592TIP3    H149971   5.329   1.894   0.808 -0.4215  0.5962  0.4410
 8592TIP3    H249972   5.391   1.808   0.916 -0.7387 -0.9331 -0.5717
 8593TIP3   OH249973   7.004   4.807   2.367  0.4718 -0.1440 -0.0406
 8593TIP3    H149974   7.055   4.789   2.288  2.1763  2.1718  0.4127
 8593TIP3    H249975   7.017   4.901   2.382 -1.1094 -0.2096  2.1150
 8594TIP3   OH249976   6.764   6.140   0.940  0.4727 -0.7420 -0.1811
 8594TIP3    H149977   6.816   6.176   1.012  0.8709  0.6087 -1.1094
 8594TIP3    H249978   6.828   6.101   0.881  0.2694 -0.7406 -0.4060
 8595TIP3   OH249979   1.706   4.513   1.768  0.0884  0.0109  0.1852
 8595TIP3    H149980   1.680   4.495   1.677 -2.2331  0.1611  0.7645
 8595TIP3    H249981   1.644   4.579   1.798  1.3915  0.6269  1.6271
 8596TIP3   OH249982   1.297   4.652   1.218 -0.1828 -0.4057  0.5568
 8596TIP3    H149983   1.258   4.722   1.167  1.8762 -0.1469 -0.7943
 8596TIP3    H249984   1.240   4.643   1.295 -0.9636  2.1519  0.3710
 8597TIP3   OH249985   2.269   2.294   2.251  0.0123  0.2879  0.6420
 8597TIP3    H149986   2.269   2.330   2.162  1.4913  0.0155  0.5110
 8597TIP3    H249987   2.291   2.202   2.240 -2.0672 -0.3289  1.1295
 8598TIP3   OH249988   0.127   1.900   2.701 -0.8996 -0.2297  0.1829
 8598TIP3    H149989   0.207   1.934   2.662 -0.5320 -1.5367 -0.2372
 8598TIP3    H249990   0.102   1.967   2.765 -1.0961  1.5870 -1.6833
 8599TIP3   OH249991   0.136   5.540   2.388 -0.5207  0.3783  0.5357
 8599TIP3    H149992   0.050   5.525   2.427 -0.1260  2.8180  2.6390
 8599TIP3    H249993   0.118   5.584   2.305 -1.3290 -3.6863 -1.7032
 8600TIP3   OH249994   7.217   7.351   1.203 -0.2366 -0.1147  0.2869
 8600TIP3    H149995   7.253   7.400   1.277  0.0109  0.1480 -0.0079
 8600TIP3    H249996   7.219   7.260   1.233  1.0425 -0.1515  0.1316
 8601TIP3   OH249997   6.240   7.361   1.449 -0.1657 -0.2985  0.5233
 8601TIP3    H149998   6.205   7.401   1.370  0.5710 -0.0378  0.3219
 8601TIP3    H249999   6.321   7.319   1.420 -0.2308 -0.7642  1.0098
 8602TIP3   OH250000   6.977   4.419   1.987  0.1381 -0.0116 -0.0352
 8602TIP3    H150001   6.974   4.463   2.072  0.6768 -1.2110  0.6491
 8602TIP3    H250002   6.885   4.400   1.967  0.0956 -1.3424  1.2110
 8603TIP3   OH250003   7.542   2.412   1.446  0.3847  0.0627  0.3749
 8603TIP3    H150004   7.493   2.475   1.498 -0.7816  0.2389 -0.8578
 8603TIP3    H250005   7.480   2.384   1.378  1.9606  0.2629 -1.2483
 8604TIP3   OH250006   3.193   3.305   2.465 -0.0266 -0.4215  0.4689
 8604TIP3    H150007   3.190   3.210   2.479 -1.6386 -0.5951 -0.8103
 8604TIP3    H250008   3.102   3.334   2.477  0.2054  0.7509 -0.4207
 8605TIP3   OH250009   3.974   5.518   1.082  0.0085  0.1832  0.4853
 8605TIP3    H150010   4.061   5.524   1.121 -0.7339 -1.0378  2.5457
 8605TIP3    H250011   3.938   5.606   1.090  1.4212  0.9939 -1.4646
 8606TIP3   OH250012   0.259   0.956   1.183  0.1336 -0.2991  0.0892
 8606TIP3    H150013   0.252   0.883   1.245 -0.4603  0.6110  1.1242
 8606TIP3    H250014   0.171   0.965   1.147 -0.0666  0.6160  0.7951
 8607TIP3   OH250015   2.638   0.383   2.398 -0.5871 -0.1997 -0.4493
 8607TIP3    H150016   2.619   0.414   2.309 -2.0792 -0.5958 -0.2853
 8607TIP3    H250017   2.587   0.440   2.455  1.7236  1.2264  0.3425
 8608TIP3   OH250018   2.735   4.816   1.989 -0.0449  0.4879  0.3459
 8608TIP3    H150019   2.660   4.775   1.946 -1.3811  1.9508  1.1767
 8608TIP3    H250020   2.810   4.790   1.935 -1.0032 -1.6460 -0.0859
 8609TIP3   OH250021   2.936   6.250   1.014  0.0988  0.0290  0.2011
 8609TIP3    H150022   2.968   6.225   1.101  0.3929 -1.9733 -0.4327
 8609TIP3    H250023   3.011   6.238   0.956  0.0102  1.7104 -0.3086
 8610TIP3   OH250024   3.904   4.879   1.770  0.4587  0.1897  0.0790
 8610TIP3    H150025   3.941   4.888   1.682 -0.3797 -0.2131 -0.3184
 8610TIP3    H250026   3.908   4.967   1.807  1.7814  0.1661  0.0389
 8611TIP3   OH250027   5.353   6.984   1.628 -0.3510 -0.1013  0.1147
 8611TIP3    H150028   5.258   6.992   1.633 -0.2771  0.6348  0.4844
 8611TIP3    H250029   5.382   6.982   1.720  0.1750  2.3151  0.0779
 8612TIP3   OH250030   4.007   6.798   2.650 -0.0330  0.4118  0.4091
 8612TIP3    H150031   4.008   6.799   2.554 -0.6528 -3.2317  0.2263
 8612TIP3    H250032   3.924   6.838   2.673 -1.1182 -1.0258 -0.7853
 8613TIP3   OH250033   2.459   0.818   2.400  0.2910 -0.1588 -0.3435
 8613TIP3    H150034   2.426   0.821   2.490  1.2360 -0.4145  0.0185
 8613TIP3    H250035   2.482   0.908   2.380  0.3829 -0.1537 -0.2146
 8614TIP3   OH250036   0.033   0.997   1.465 -0.1175  0.2319  0.1058
 8614TIP3    H150037   0.105   0.939   1.442 -0.0510 -0.4333  1.8421
 8614TIP3    H250038   0.008   0.970   1.553 -1.2012  1.7443  0.2992
 8615TIP3   OH250039   1.471   1.179   0.547  0.0952  0.3805  0.6453
 8615TIP3    H150040   1.494   1.245   0.482 -0.0431 -0.8661 -0.7390
 8615TIP3    H250041   1.395   1.215   0.593 -1.2777  0.3593 -1.4644
 8616TIP3   OH250042   6.689   5.721   3.095 -0.0287 -0.5347  0.3821
 8616TIP3    H150043   6.665   5.630   3.111 -1.3228 -0.3974 -0.6089
 8616TIP3    H250044   6.776   5.730   3.134 -0.4660 -1.7962  1.7753
 8617TIP3   OH250045   1.528   6.632   1.558  0.7551  0.4899  0.0803
 8617TIP3    H150046   1.579   6.587   1.625  1.1494  0.5205 -0.1958
 8617TIP3    H250047   1.569   6.608   1.475 -0.8247 -0.9839 -0.3195
 8618TIP3   OH250048   4.236   4.380   2.698 -0.4116 -0.3733 -0.0727
 8618TIP3    H150049   4.249   4.474   2.689 -0.8894 -0.3692 -0.7906
 8618TIP3    H250050   4.250   4.363   2.791 -2.2111  0.7154  0.4630
 8619TIP3   OH250051   1.659   2.694   2.203  0.2632  0.0294 -0.3406
 8619TIP3    H150052   1.605   2.707   2.126  0.5269  1.2776 -0.3321
 8619TIP3    H250053   1.630   2.762   2.264  0.6659 -0.3821  0.3212
 8620TIP3   OH250054   2.179   5.496   1.669  0.0504  0.6624 -0.0625
 8620TIP3    H150055   2.158   5.429   1.604 -0.4235  0.4284  0.3253
 8620TIP3    H250056   2.274   5.493   1.677 -0.0273 -0.5991  0.6234
 8621TIP3   OH250057   3.344   0.982   0.905 -0.2392  0.4190 -0.5260
 8621TIP3    H150058   3.437   0.994   0.923 -0.3114  0.1720  0.0423
 8621TIP3    H250059   3.321   0.902   0.952 -0.2880 -0.6818 -2.3235
 8622TIP3   OH250060   1.040   4.221   2.629  0.8064 -0.4774  0.1992
 8622TIP3    H150061   0.946   4.224   2.648  0.5138 -2.1375 -0.7876
 8622TIP3    H250062   1.082   4.235   2.714 -0.2738  1.6843  0.4456
 8623TIP3   OH250063   2.338   2.537   1.063 -0.1012 -0.2844  0.0472
 8623TIP3    H150064   2.284   2.555   0.986 -0.3435  0.0129  0.2829
 8623TIP3    H250065   2.299   2.459   1.101 -0.5363  0.0756  0.3612
 8624TIP3   OH250066   6.634   5.374   2.537  0.5295 -0.2524 -0.2419
 8624TIP3    H150067   6.656   5.313   2.467  0.2177  0.6270 -1.1126
 8624TIP3    H250068   6.554   5.416   2.509  0.3062 -0.0035  0.7297
 8625TIP3   OH250069   0.585   1.976   1.838  0.0456  0.2359  0.5223
 8625TIP3    H150070   0.632   2.028   1.773  0.0588  0.6301  0.8388
 8625TIP3    H250071   0.595   1.885   1.809  0.3944  0.3760  0.1995
 8626TIP3   OH250072   1.317   6.482   1.261  0.3803 -0.0603 -0.0383
 8626TIP3    H150073   1.284   6.571   1.277 -2.9364 -0.9714 -1.0390
 8626TIP3    H250074   1.335   6.480   1.167  1.9438 -0.0814  0.2270
 8627TIP3   OH250075   5.664   2.528   2.675  0.3778 -0.4471  0.0605
 8627TIP3    H150076   5.659   2.455   2.736 -0.1628 -1.1172 -0.7658
 8627TIP3    H250077   5.663   2.487   2.588  1.0690  0.4856 -0.4044
 8628TIP3   OH250078   7.389   5.491   2.692 -0.4266  0.1052 -0.3155
 8628TIP3    H150079   7.378   5.438   2.613  2.8547 -0.1102 -0.7776
 8628TIP3    H250080   7.345   5.440   2.761 -0.6896 -1.2644 -1.4413
 8629TIP3   OH250081   7.074   3.306   2.291  0.2057 -0.0579 -0.4902
 8629TIP3    H150082   7.126   3.384   2.311  1.5928 -0.5666 -1.9535
 8629TIP3    H250083   7.068   3.305   2.196 -0.9257 -1.0441 -0.4260
 8630TIP3   OH250084   5.550   5.589   2.809 -0.8876 -0.4769 -0.3152
 8630TIP3    H150085   5.616   5.532   2.849  0.2350 -0.2138 -1.6985
 8630TIP3    H250086   5.588   5.677   2.814 -1.7291 -0.1264  0.0470
 8631TIP3   OH250087   6.321   0.260   0.404 -0.0359 -0.0216 -0.3790
 8631TIP3    H150088   6.335   0.355   0.404  0.2373 -0.0604 -0.4291
 8631TIP3    H250089   6.408   0.224   0.418  0.1413 -0.3070 -1.9921
 8632TIP3   OH250090   3.609   6.321   1.317  0.0023  0.0639 -0.0111
 8632TIP3    H150091   3.653   6.397   1.356 -0.4585  0.6756 -0.6397
 8632TIP3    H250092   3.516   6.343   1.323 -0.0827  0.2407 -1.5226
 8633TIP3   OH250093   2.640   0.219   0.889  0.3569  1.0462 -0.1186
 8633TIP3    H150094   2.658   0.288   0.953  0.6249  0.2277  0.7146
 8633TIP3    H250095   2.670   0.255   0.806  0.5552  1.9066  0.3120
 8634TIP3   OH250096   4.481   0.375   1.020  1.1333  0.1121 -0.4842
 8634TIP3    H150097   4.391   0.352   0.997  1.1704 -0.9138  0.3037
 8634TIP3    H250098   4.474   0.422   1.103  1.1677  1.9738 -1.4850
 8635TIP3   OH250099   6.221   2.966   3.067  0.0448 -0.0267  0.0632
 8635TIP3    H150100   6.129   2.959   3.043 -0.2724  1.5113  0.7206
 8635TIP3    H250101   6.266   2.991   2.987 -0.3247  0.5698  0.0364
 8636TIP3   OH250102   6.267   2.882   2.142 -0.0824 -0.2133  0.0603
 8636TIP3    H150103   6.287   2.836   2.223 -1.5220  0.7335  1.0020
 8636TIP3    H250104   6.339   2.945   2.133  0.3730 -0.6891  0.3007
 8637TIP3   OH250105   2.587   0.079   2.453  0.2378 -0.1722  0.0270
 8637TIP3    H150106   2.527   0.123   2.393 -0.2824 -0.4014  0.3788
 8637TIP3    H250107   2.671   0.078   2.406 -0.1947 -0.4577 -0.7554
 8638TIP3   OH250108   7.476   7.053   2.600  0.1417 -0.0677  0.1462
 8638TIP3    H150109   7.527   7.105   2.537 -0.9093  0.0865 -0.6122
 8638TIP3    H250110   7.415   7.116   2.638  0.4411 -0.2708  0.9706
 8639TIP3   OH250111   3.034   4.942   2.418  0.5802  0.1279 -0.0311
 8639TIP3    H150112   3.118   4.900   2.439  0.6977  0.3854  0.0207
 8639TIP3    H250113   2.970   4.898   2.474  0.9266  0.9701  1.0753
 8640TIP3   OH250114   5.571   5.862   1.110 -0.0365  0.4740 -0.3490
 8640TIP3    H150115   5.480   5.891   1.110  0.1746  1.1892  0.5426
 8640TIP3    H250116   5.577   5.803   1.035 -1.5912 -0.7068  0.3717
 8641TIP3   OH250117   5.478   5.968   0.503  0.3549 -1.0905  0.0204
 8641TIP3    H150118   5.403   5.986   0.447  0.1222 -1.4653  0.2036
 8641TIP3    H250119   5.492   5.874   0.495  0.8229 -1.0194 -0.0310
 8642TIP3   OH250120   7.301   5.365   2.916  0.8749  0.0281 -0.2577
 8642TIP3    H150121   7.323   5.276   2.889  0.1350 -0.2202 -0.0672
 8642TIP3    H250122   7.231   5.354   2.980  1.6222  0.6803  0.7205
 8643TIP3   OH250123   6.853   1.969   1.240  0.0137 -0.1085  0.0363
 8643TIP3    H150124   6.774   1.920   1.263  0.4830 -0.5245  0.8443
 8643TIP3    H250125   6.837   2.001   1.152 -0.0042 -2.4037 -0.8731
 8644TIP3   OH250126   4.459   0.236   1.297  0.0907  0.3535  0.3862
 8644TIP3    H150127   4.470   0.281   1.381  0.5571  0.8412  0.0689
 8644TIP3    H250128   4.397   0.165   1.316 -0.2378  0.7951  1.0156
 8645TIP3   OH250129   6.104   4.177   2.451 -0.0049  0.2348  0.2666
 8645TIP3    H150130   6.021   4.217   2.477 -0.5879 -1.7929  1.8173
 8645TIP3    H250131   6.148   4.159   2.535  1.2118 -0.3145 -0.4673
 8646TIP3   OH250132   2.784   0.253   2.604 -0.2624  0.6166 -0.3495
 8646TIP3    H150133   2.811   0.268   2.695  0.6336  0.7678 -0.6248
 8646TIP3    H250134   2.734   0.331   2.581  0.2644  0.9886 -0.2595
 8647TIP3   OH250135   3.559   1.205   1.232 -0.0344  0.1619 -0.2082
 8647TIP3    H150136   3.652   1.229   1.237 -0.2925  1.5822 -1.5999
 8647TIP3    H250137   3.512   1.287   1.246 -1.1277 -0.5805  0.6988
 8648TIP3   OH250138   4.856   0.846   1.935 -0.2830  0.2140 -0.3326
 8648TIP3    H150139   4.912   0.807   2.002  1.5652  1.6424 -0.9750
 8648TIP3    H250140   4.769   0.812   1.955  0.6573 -1.5326  1.1384
 8649TIP3   OH250141   7.102   0.044   1.017  0.3062  0.1179  0.3048
 8649TIP3    H150142   7.165  -0.026   1.035  0.4359  0.2094  0.2062
 8649TIP3    H250143   7.131   0.081   0.934 -0.1315 -0.1291  0.0361
 8650TIP3   OH250144   5.744   1.024   1.417 -0.2896  0.1827  0.0893
 8650TIP3    H150145   5.669   1.066   1.458 -0.6385  0.1770 -0.5284
 8650TIP3    H250146   5.712   0.996   1.331  0.1049 -0.8174  0.2569
 8651TIP3   OH250147   0.323   1.905   3.258 -0.1751  0.7832  0.2524
 8651TIP3    H150148   0.369   1.937   3.336 -1.9914  1.4205  1.1124
 8651TIP3    H250149   0.368   1.948   3.185 -0.3590  2.6589  1.1665
 8652TIP3   OH250150   7.324   6.676   0.857 -0.1995  0.2180  0.0793
 8652TIP3    H150151   7.391   6.738   0.884  0.9382 -0.8165 -0.2859
 8652TIP3    H250152   7.290   6.640   0.939 -1.2849  1.6976  0.3245
 8653TIP3   OH250153   1.798   2.290   2.400 -0.4256  0.7535  0.5709
 8653TIP3    H150154   1.790   2.209   2.450 -0.2057  0.3940  0.0267
 8653TIP3    H250155   1.780   2.265   2.309  2.4021  0.7172 -0.0809
 8654TIP3   OH250156   5.699   2.424   0.894 -0.6986  0.2060  0.1715
 8654TIP3    H150157   5.613   2.418   0.853 -0.4093  2.2520 -0.8585
 8654TIP3    H250158   5.702   2.351   0.955 -1.1784 -3.0633 -3.3632
 8655TIP3   OH250159   5.297   7.374   2.556  0.0485 -0.2441  0.4310
 8655TIP3    H150160   5.218   7.368   2.610 -0.3048 -0.4435 -0.0966
 8655TIP3    H250161   5.279   7.447   2.496 -0.6187 -1.5818 -1.0755
 8656TIP3   OH250162   2.408   2.774   2.765  0.1462  0.1167  0.2226
 8656TIP3    H150163   2.422   2.792   2.672 -1.8106  1.6634  0.1645
 8656TIP3    H250164   2.415   2.860   2.807 -1.2508 -0.1911  1.1639
 8657TIP3   OH250165   0.152   3.706   1.558  0.3702 -0.8300  0.7425
 8657TIP3    H150166   0.219   3.643   1.586  0.7686 -0.1385  1.3841
 8657TIP3    H250167   0.126   3.750   1.639 -0.4188 -0.6581  0.4023
 8658TIP3   OH250168   5.208   4.111   1.305  0.6070 -0.0516 -0.0943
 8658TIP3    H150169   5.269   4.177   1.339 -0.6754  0.9600  0.3454
 8658TIP3    H250170   5.190   4.139   1.216 -0.6122  0.7561  0.3672
 8659TIP3   OH250171   4.256   3.472   2.215  0.0565 -0.3731 -0.4783
 8659TIP3    H150172   4.205   3.476   2.135 -0.1583 -0.5515 -0.3516
 8659TIP3    H250173   4.194   3.497   2.284  0.5392  0.9779 -0.4961
 8660TIP3   OH250174   0.097   5.077   2.002  0.1767  0.3217 -0.2594
 8660TIP3    H150175   0.104   5.009   2.069  1.6178 -0.5912 -1.2591
 8660TIP3    H250176   0.108   5.159   2.049  0.2904 -0.2460  0.7328
 8661TIP3   OH250177   0.711   1.897   2.555  0.4340  0.3240  0.3230
 8661TIP3    H150178   0.702   1.972   2.614 -1.8932 -0.6168  1.3114
 8661TIP3    H250179   0.665   1.924   2.475  1.3170  0.6535 -0.0783
 8662TIP3   OH250180   6.925   4.250   0.711  0.4788  0.3618  0.0926
 8662TIP3    H150181   6.864   4.183   0.745  0.3913  0.0360 -0.6672
 8662TIP3    H250182   6.886   4.276   0.627  0.9109  0.8208  0.0336
 8663TIP3   OH250183   0.246   0.856   0.695  0.1678 -0.3978  0.0217
 8663TIP3    H150184   0.216   0.875   0.784 -0.1864 -0.6192 -0.0476
 8663TIP3    H250185   0.201   0.921   0.640  1.4176  0.6227  0.1468
 8664TIP3   OH250186   2.894   3.762   2.736 -0.3180  0.6170  0.1254
 8664TIP3    H150187   2.904   3.782   2.643 -0.1081  1.3512  0.3046
 8664TIP3    H250188   2.854   3.674   2.737 -0.9700  0.8898 -0.6587
 8665TIP3   OH250189   1.273   2.150   0.867  0.7694  0.6956  0.5550
 8665TIP3    H150190   1.319   2.074   0.904  1.6215  1.1829  0.5294
 8665TIP3    H250191   1.337   2.190   0.808  0.7825  2.1289  1.5012
 8666TIP3   OH250192   2.669   2.090   1.918  1.3128 -0.1577 -0.7993
 8666TIP3    H150193   2.724   2.150   1.968 -2.7123 -0.8525  5.6979
 8666TIP3    H250194   2.710   2.004   1.930  1.0731 -0.1294  0.3310
 8667TIP3   OH250195   0.019   5.658   2.178 -0.7574  0.2004  0.0166
 8667TIP3    H150196  -0.074   5.675   2.163 -0.6380 -0.0397 -1.0932
 8667TIP3    H250197   0.064   5.728   2.131 -0.3586 -0.4849 -0.6522
 8668TIP3   OH250198   0.164   1.412   0.663  0.1237 -0.1796  0.2502
 8668TIP3    H150199   0.177   1.407   0.758 -1.0686  3.1431  0.7204
 8668TIP3    H250200   0.084   1.362   0.647  0.8188 -1.5304  0.7948
 8669TIP3   OH250201   0.442   3.597   2.267  0.1385  0.8564  0.2563
 8669TIP3    H150202   0.430   3.521   2.323  2.0900  0.4610  0.2098
 8669TIP3    H250203   0.410   3.569   2.181  1.1112 -0.0342  0.1684
 8670TIP3   OH250204   6.587   6.107   3.517  0.2971 -0.3932 -0.4460
 8670TIP3    H150205   6.544   6.193   3.513 -2.6519 -1.7335 -0.1818
 8670TIP3    H250206   6.583   6.074   3.428  1.4053 -0.2982 -0.5413
 8671TIP3   OH250207   1.210   1.585   2.513 -0.3116  0.4456 -0.2078
 8671TIP3    H150208   1.196   1.550   2.425 -1.3954 -0.7762  0.4168
 8671TIP3    H250209   1.125   1.621   2.539 -0.4172 -0.4816  0.8558
 8672TIP3   OH250210   4.091   7.008   0.805 -0.3372 -0.0520 -0.3174
 8672TIP3    H150211   4.085   7.031   0.898 -0.4619  0.3335 -0.4218
 8672TIP3    H250212   4.000   6.990   0.779 -0.2525 -0.5915 -0.2565
 8673TIP3   OH250213   3.750   1.572   0.928  0.4526  0.0117 -0.5167
 8673TIP3    H150214   3.807   1.525   0.867  1.4600 -0.1816  0.5244
 8673TIP3    H250215   3.807   1.638   0.968  0.5417 -1.5073  2.0369
 8674TIP3   OH250216   0.208   6.351   2.329 -0.6461  0.5127 -0.1525
 8674TIP3    H150217   0.181   6.380   2.417  1.9816  0.6204  0.6980
 8674TIP3    H250218   0.219   6.432   2.280 -1.9657  0.4588 -0.5724
 8675TIP3   OH250219   3.289   4.410   1.317 -0.9122  0.1815  0.2448
 8675TIP3    H150220   3.337   4.491   1.301  1.8148 -1.1915  0.7414
 8675TIP3    H250221   3.223   4.406   1.248 -0.8250  2.5742 -0.0383
 8676TIP3   OH250222   7.543   5.703   3.061 -0.1519 -0.0231  0.1089
 8676TIP3    H150223   7.575   5.642   2.993 -2.3282  0.6282 -1.6139
 8676TIP3    H250224   7.526   5.647   3.137  1.6528 -0.8997 -0.0713
 8677TIP3   OH250225   3.882   3.793   2.754  0.1038  0.0674  0.0766
 8677TIP3    H150226   3.831   3.764   2.679  0.1835  1.0607 -0.3759
 8677TIP3    H250227   3.973   3.786   2.726  0.1178  1.0788 -0.1839
 8678TIP3   OH250228   1.410   6.579   2.295  0.3584 -0.5731 -0.2816
 8678TIP3    H150229   1.414   6.499   2.348 -2.9961 -0.1891  0.7651
 8678TIP3    H250230   1.397   6.547   2.206 -2.2598 -1.3567  0.2754
 8679TIP3   OH250231   0.118   6.165   1.195  0.5617  0.5465 -0.1707
 8679TIP3    H150232   0.197   6.121   1.163 -0.1243 -0.0273 -1.1263
 8679TIP3    H250233   0.130   6.171   1.289  1.6990  0.3730 -0.2914
 8680TIP3   OH250234   5.181   6.487   2.137  0.5339 -0.0768  0.3000
 8680TIP3    H150235   5.172   6.519   2.226  0.5113  2.4468 -0.5439
 8680TIP3    H250236   5.093   6.453   2.115  0.7139 -1.3301  1.4072
 8681TIP3   OH250237   2.491   7.529   3.304 -0.2515  0.1329  0.4178
 8681TIP3    H150238   2.551   7.457   3.323 -0.3469  0.0886  0.5549
 8681TIP3    H250239   2.546   7.598   3.267 -0.4548 -0.7594 -1.6637
 8682TIP3   OH250240   1.851   0.556   2.254 -0.0445 -0.2489 -0.1528
 8682TIP3    H150241   1.935   0.555   2.300  0.2563  0.2764 -0.6723
 8682TIP3    H250242   1.788   0.584   2.320  0.5988  1.8901 -0.3790
 8683TIP3   OH250243   0.638   6.227   2.021  0.2011 -0.1012  0.1861
 8683TIP3    H150244   0.597   6.246   1.937 -3.0827  1.2979  1.9235
 8683TIP3    H250245   0.683   6.308   2.045 -0.2804  0.0626  0.5297
 8684TIP3   OH250246   6.070   0.245   0.505 -0.1489 -0.3490 -0.0031
 8684TIP3    H150247   6.151   0.248   0.455 -0.3478 -1.7827 -0.4713
 8684TIP3    H250248   6.082   0.310   0.574  1.1517 -0.1128 -0.4207
 8685TIP3   OH250249   3.370   6.669   1.664  0.0009  0.3348  0.3598
 8685TIP3    H150250   3.279   6.641   1.665 -0.3592  1.2550 -1.7779
 8685TIP3    H250251   3.404   6.642   1.749 -1.7765 -1.5744  0.5571
 8686TIP3   OH250252   3.511   1.696   2.956 -0.8922  0.3780  0.6275
 8686TIP3    H150253   3.523   1.604   2.934 -1.7122  0.5324 -0.5790
 8686TIP3    H250254   3.592   1.721   3.002  0.9204 -0.0330 -2.1364
 8687TIP3   OH250255   5.491   1.147   1.469  0.2240  0.0882  0.0391
 8687TIP3    H150256   5.462   1.234   1.443 -2.0969 -0.6138  0.0285
 8687TIP3    H250257   5.516   1.156   1.561  0.9895  0.9414 -0.2329
 8688TIP3   OH250258   5.233   5.193   0.686 -0.1181  0.1657  0.0267
 8688TIP3    H150259   5.267   5.244   0.760 -0.3026 -1.1364  1.0440
 8688TIP3    H250260   5.145   5.226   0.672  0.2317  1.0306 -0.2135
 8689TIP3   OH250261   2.191   5.954   1.246  0.3687 -0.2725  0.1692
 8689TIP3    H150262   2.166   6.041   1.277  0.3477 -0.8515  1.8767
 8689TIP3    H250263   2.277   5.939   1.284  0.4681 -0.9166 -0.2988
 8690TIP3   OH250264   2.455   5.921   3.271 -0.5148  0.1322  0.6858
 8690TIP3    H150265   2.538   5.890   3.308  0.1586 -1.6740 -1.9968
 8690TIP3    H250266   2.475   6.008   3.236  0.6615 -0.7130 -0.8964
 8691TIP3   OH250267   5.116   2.416   1.266 -0.9016  0.0905  0.1895
 8691TIP3    H150268   5.060   2.485   1.302 -0.3782 -0.1857  1.6002
 8691TIP3    H250269   5.055   2.350   1.233 -1.4070  0.2655  0.7577
 8692TIP3   OH250270   3.375   7.574   1.936  0.4954 -0.1166 -0.9565
 8692TIP3    H150271   3.361   7.489   1.976  0.3100  1.0039  1.5835
 8692TIP3    H250272   3.304   7.584   1.873  0.2580 -1.6171 -0.9587
 8693TIP3   OH250273   4.518   0.719   0.669  0.4261 -0.2051  0.6045
 8693TIP3    H150274   4.551   0.765   0.592 -0.3305 -0.0004  0.3927
 8693TIP3    H250275   4.500   0.788   0.733  0.5571 -0.3293  0.7777
 8694TIP3   OH250276   3.283   3.693   0.926 -0.5379 -0.0031  0.5180
 8694TIP3    H150277   3.333   3.711   1.005 -1.2207  1.5202  0.6381
 8694TIP3    H250278   3.202   3.743   0.937 -0.8541 -0.1586 -0.9299
 8695TIP3   OH250279   2.225   1.798   1.487 -0.2087  0.0840  0.6407
 8695TIP3    H150280   2.197   1.715   1.526  0.7744 -1.4517 -1.7234
 8695TIP3    H250281   2.146   1.833   1.446  0.0834 -1.7246 -1.6901
 8696TIP3   OH250282   5.113   1.431   2.722  0.5133  0.0878 -0.3140
 8696TIP3    H150283   5.053   1.386   2.663  0.0586 -0.4444  0.5413
 8696TIP3    H250284   5.061   1.500   2.763  0.6715  0.0699 -0.0792
 8697TIP3   OH250285   3.364   4.864   0.384 -0.8312  1.1508 -0.3691
 8697TIP3    H150286   3.448   4.826   0.357 -1.2764 -0.1737 -0.0007
 8697TIP3    H250287   3.386   4.949   0.421  0.4035  0.6804  0.0205
 8698TIP3   OH250288   7.345   3.855   3.086 -0.0853 -0.5116 -0.0968
 8698TIP3    H150289   7.349   3.832   3.179  0.1708  0.5966  0.1894
 8698TIP3    H250290   7.252   3.846   3.063 -0.1153 -1.0053  0.2090
 8699TIP3   OH250291   7.557   0.047   1.568  0.2107 -0.1322  0.4861
 8699TIP3    H150292   7.565   0.102   1.490  2.9728 -0.4716  0.4231
 8699TIP3    H250293   7.463   0.032   1.577 -0.4765  2.7290 -0.7632
 8700TIP3   OH250294   2.723   5.765   1.247  0.2818  0.0058 -0.4043
 8700TIP3    H150295   2.663   5.788   1.176 -2.0875  0.6370  1.6527
 8700TIP3    H250296   2.720   5.669   1.250  0.0336 -0.0044 -0.8835
 8701TIP3   OH250297   2.035   6.646   0.627  0.1032 -0.7967  0.4384
 8701TIP3    H150298   2.083   6.704   0.569 -2.3929  1.3311  0.3581
 8701TIP3    H250299   2.099   6.621   0.694  1.5300  1.2952 -0.0550
 8702TIP3   OH250300   7.439   0.629   1.389  0.4970 -0.2932  0.0114
 8702TIP3    H150301   7.422   0.632   1.484 -1.4775 -0.6697 -0.2901
 8702TIP3    H250302   7.433   0.720   1.361 -0.6871 -0.3564  0.0008
 8703TIP3   OH250303   7.303   5.641   1.705 -0.1605  0.3695 -0.1659
 8703TIP3    H150304   7.348   5.681   1.630  0.8961 -1.0242 -0.3172
 8703TIP3    H250305   7.312   5.547   1.690 -0.1165  0.0729  1.6225
 8704TIP3   OH250306   1.096   1.840   3.566 -0.3898  1.3605  0.5069
 8704TIP3    H150307   1.050   1.923   3.553 -1.3052  0.9416  1.0111
 8704TIP3    H250308   1.030   1.780   3.599  0.0043  0.1158 -0.8343
 8705TIP3   OH250309   4.621   2.625   1.137 -0.4496 -0.0106  0.7923
 8705TIP3    H150310   4.631   2.703   1.191 -0.5282  0.2181  0.4813
 8705TIP3    H250311   4.527   2.608   1.137 -0.4134 -0.2191  1.0149
 8706TIP3   OH250312   6.503   1.606   2.248  0.6275  0.0781 -0.0872
 8706TIP3    H150313   6.551   1.603   2.166  0.8852  0.6260  0.0357
 8706TIP3    H250314   6.550   1.547   2.306  1.0182  0.4308 -0.0403
 8707TIP3   OH250315   2.569   2.648   1.191  0.0253 -0.3525  0.6306
 8707TIP3    H150316   2.572   2.587   1.265 -0.1270 -0.8227  0.2546
 8707TIP3    H250317   2.494   2.620   1.139  0.3098 -0.2148  0.1363
 8708TIP3   OH250318   0.234   2.776   2.528 -0.1233  0.1153  0.2665
 8708TIP3    H150319   0.195   2.753   2.613  0.4409  0.9584  0.7697
 8708TIP3    H250320   0.179   2.731   2.464 -1.0609  0.1194  1.0367
 8709TIP3   OH250321   0.758   3.941   3.259  0.2288 -0.3197  0.0881
 8709TIP3    H150322   0.670   3.936   3.220 -0.0299  0.2255  0.5918
 8709TIP3    H250323   0.798   4.016   3.216 -0.2288  0.5784  1.2032
 8710TIP3   OH250324   0.351   6.132   2.264 -0.0592 -0.0080 -0.3567
 8710TIP3    H150325   0.318   6.220   2.285 -0.4127  0.0864 -1.2350
 8710TIP3    H250326   0.446   6.144   2.255 -0.0959  0.2747 -0.3950
 8711TIP3   OH250327   4.038   3.928   1.506 -0.0012  0.1040 -0.2581
 8711TIP3    H150328   4.094   3.857   1.476 -0.6094  0.0028 -1.1853
 8711TIP3    H250329   4.087   3.968   1.578  0.5452 -0.9692 -0.0122
 8712TIP3   OH250330   5.895   5.947   2.184  0.4191 -0.3609  0.1733
 8712TIP3    H150331   5.896   5.998   2.103  1.5116 -0.8096 -0.1235
 8712TIP3    H250332   5.946   5.868   2.163 -0.4984 -1.1656  0.8756
 8713TIP3   OH250333   3.524   0.267   2.316 -0.3056 -0.0314  0.3559
 8713TIP3    H150334   3.460   0.326   2.355  0.7391  1.3317  0.0817
 8713TIP3    H250335   3.541   0.202   2.384  2.2093  2.8243  2.7756
 8714TIP3   OH250336   4.430   3.754   2.043 -0.4601  0.2374 -0.0668
 8714TIP3    H150337   4.458   3.663   2.044 -0.2036  0.3030 -0.8142
 8714TIP3    H250338   4.416   3.775   1.950 -0.5700  0.9380  0.0972
 8715TIP3   OH250339   2.711   0.236   0.629 -0.1508  0.1226  0.0601
 8715TIP3    H150340   2.722   0.317   0.579  2.1800  0.3533  0.8377
 8715TIP3    H250341   2.685   0.171   0.563 -2.3781  1.4745 -0.5276
 8716TIP3   OH250342   4.595   1.114   1.678  0.4351 -0.9903 -0.4574
 8716TIP3    H150343   4.634   1.197   1.704  1.2244 -1.7293  0.8010
 8716TIP3    H250344   4.512   1.110   1.726 -1.0535  0.3088 -2.6841
 8717TIP3   OH250345   6.657   0.979   2.273 -0.4944 -0.1732 -0.0706
 8717TIP3    H150346   6.677   0.886   2.282 -0.2492 -0.2890 -1.6612
 8717TIP3    H250347   6.740   1.020   2.249 -1.1757  0.0022 -2.2991
 8718TIP3   OH250348   1.038   4.686   2.471  0.5311  0.0523 -0.5086
 8718TIP3    H150349   1.009   4.728   2.390  0.3857  0.4337 -0.2617
 8718TIP3    H250350   1.068   4.599   2.443 -0.8745 -0.3803 -0.7851
 8719TIP3   OH250351   2.000   1.915   1.387  0.5571 -0.4685 -0.2926
 8719TIP3    H150352   1.931   1.883   1.328  0.8965  1.2872 -1.7164
 8719TIP3    H250353   1.952   1.949   1.463 -0.0448 -0.7339 -0.5457
 8720TIP3   OH250354   7.599   1.607   1.752  0.6640  0.6018  0.4489
 8720TIP3    H150355   7.522   1.652   1.786 -0.1066  1.3635 -2.0387
 8720TIP3    H250356   7.595   1.519   1.791 -0.2025  1.3247  2.0698
 8721TIP3   OH250357   0.399   0.782   1.867 -0.1072 -0.2447  0.4091
 8721TIP3    H150358   0.400   0.702   1.918  1.6221 -0.0320  0.7456
 8721TIP3    H250359   0.316   0.825   1.891 -1.7638 -2.5197 -0.8340
 8722TIP3   OH250360   2.480   5.889   2.425 -0.2185 -0.2414  0.2463
 8722TIP3    H150361   2.396   5.850   2.449 -1.8283  2.5669 -0.4820
 8722TIP3    H250362   2.501   5.850   2.340 -1.1005 -0.4990  0.1345
 8723TIP3   OH250363   1.872   6.089   1.202 -0.0686 -0.3827 -0.1116
 8723TIP3    H150364   1.784   6.110   1.171 -0.8329 -1.5475  1.1520
 8723TIP3    H250365   1.862   6.006   1.248  1.9636 -1.2257 -1.0809
 8724TIP3   OH250366   4.793   5.937   1.924 -0.2367 -0.5963 -0.2319
 8724TIP3    H150367   4.860   5.900   1.982  0.0100 -1.2463 -0.9242
 8724TIP3    H250368   4.772   6.022   1.964 -1.2047 -1.6575  1.7051
 8725TIP3   OH250369   0.503   2.931   1.891 -0.0418  0.6616  0.2569
 8725TIP3    H150370   0.584   2.978   1.912  1.3609 -1.7084  0.5168
 8725TIP3    H250371   0.525   2.839   1.902 -2.1746 -0.2109 -1.7838
 8726TIP3   OH250372   7.221   2.139   1.491 -0.1465  0.2293 -0.9744
 8726TIP3    H150373   7.194   2.053   1.458 -0.4474  0.1164 -0.4352
 8726TIP3    H250374   7.315   2.129   1.507 -0.1992 -0.0354 -0.8141
 8727TIP3   OH250375   4.683   4.880   1.006 -0.8881 -0.0664 -0.5180
 8727TIP3    H150376   4.629   4.958   0.995  0.2057  0.9012  0.6010
 8727TIP3    H250377   4.621   4.809   1.021 -1.9069  0.5821 -1.4897
 8728TIP3   OH250378   3.191   1.092   0.716  0.1827  0.2920  0.0828
 8728TIP3    H150379   3.237   1.170   0.688 -0.4896  1.3497  1.7378
 8728TIP3    H250380   3.250   1.050   0.779 -0.3122  0.6403  0.7966
 8729TIP3   OH250381   2.717   2.849   1.507  0.7360  0.6045 -0.0894
 8729TIP3    H150382   2.688   2.929   1.550 -3.5689 -0.2557 -0.9553
 8729TIP3    H250383   2.637   2.811   1.470  2.8068 -3.2522 -1.1565
 8730TIP3   OH250384   5.620   4.605   2.868 -0.3920  0.7522  1.1158
 8730TIP3    H150385   5.637   4.512   2.853  0.7784  0.9577  1.0387
 8730TIP3    H250386   5.529   4.618   2.841 -0.0968 -0.0561 -0.3617
 8731TIP3   OH250387   4.179   2.858   1.266 -0.0937  0.1883 -0.2692
 8731TIP3    H150388   4.131   2.932   1.302  0.3909  0.0890  0.6173
 8731TIP3    H250389   4.228   2.822   1.341 -0.4744 -1.1499 -0.6276
 8732TIP3   OH250390   3.347   4.869   3.340  0.0040  0.1227 -0.7183
 8732TIP3    H150391   3.378   4.847   3.428  0.3104 -1.3757 -1.1604
 8732TIP3    H250392   3.251   4.871   3.348  0.0611  1.0701 -0.1387
 8733TIP3   OH250393   2.397   3.196   1.313  0.2331 -0.3275 -0.3082
 8733TIP3    H150394   2.352   3.271   1.273  0.6628 -0.0065 -0.2052
 8733TIP3    H250395   2.480   3.232   1.344  0.9956 -1.1021 -1.3642
 8734TIP3   OH250396   6.301   6.197   0.970  0.1168  0.4141  0.2771
 8734TIP3    H150397   6.316   6.268   0.909  1.0000 -0.2670 -0.3180
 8734TIP3    H250398   6.228   6.148   0.933  0.2634  0.3445  0.0825
 8735TIP3   OH250399   5.070   5.982   1.496 -0.0912 -0.2736 -0.0472
 8735TIP3    H150400   5.041   6.052   1.438  0.0277  1.0190  1.3819
 8735TIP3    H250401   5.057   6.017   1.584  0.9299 -1.6691  0.6979
 8736TIP3   OH250402   5.843   2.722   2.096  0.6257  0.2700  0.4180
 8736TIP3    H150403   5.882   2.639   2.070  1.0442  0.5834  0.0386
 8736TIP3    H250404   5.801   2.703   2.180 -1.1931 -0.8939 -0.6671
 8737TIP3   OH250405   0.181   0.342   1.530 -0.2320 -0.9854  0.4317
 8737TIP3    H150406   0.195   0.251   1.502 -1.8482 -0.3730 -2.9615
 8737TIP3    H250407   0.253   0.391   1.489 -1.0151 -0.4175 -0.3180
 8738TIP3   OH250408   2.525   3.115   3.220  0.0760 -0.2298  0.2652
 8738TIP3    H150409   2.474   3.196   3.223 -0.0138 -0.2690 -0.1629
 8738TIP3    H250410   2.467   3.048   3.257 -0.1853 -0.2743 -0.2203
 8739TIP3   OH250411   6.846   3.932   1.543 -0.1283 -0.0397  0.2206
 8739TIP3    H150412   6.814   3.844   1.520  0.6988 -0.1403 -0.5912
 8739TIP3    H250413   6.894   3.919   1.624  1.1224 -0.6046 -0.5797
 8740TIP3   OH250414   2.667   3.803   0.743 -0.3130 -0.0826  0.2310
 8740TIP3    H150415   2.590   3.838   0.787 -0.2732 -0.1134  0.3258
 8740TIP3    H250416   2.631   3.745   0.675 -0.4373  1.7501 -1.3444
 8741TIP3   OH250417   3.802   6.122   2.766 -0.4491  0.1780 -0.3561
 8741TIP3    H150418   3.875   6.105   2.708  1.2659  0.2483  1.6578
 8741TIP3    H250419   3.771   6.209   2.742 -0.5376 -0.2509 -1.8690
 8742TIP3   OH250420   7.579   1.899   1.411 -0.4059 -0.6516 -0.5597
 8742TIP3    H150421   7.573   1.906   1.506  1.3371 -1.3570 -0.3582
 8742TIP3    H250422   7.665   1.861   1.395 -0.1232  0.6322 -2.4755
 8743TIP3   OH250423   1.849   1.103   0.555 -0.2724 -0.0898 -0.6376
 8743TIP3    H150424   1.877   1.012   0.569  0.5137  0.4145  1.5468
 8743TIP3    H250425   1.930   1.153   0.562 -0.8964  0.9036 -0.4271
 8744TIP3   OH250426   3.879   5.726   0.520  0.3526 -0.3815  0.2150
 8744TIP3    H150427   3.950   5.726   0.585 -0.7091 -1.8162  1.4524
 8744TIP3    H250428   3.820   5.796   0.549  0.4025 -0.3303  0.1924
 8745TIP3   OH250429   7.057   6.514   3.457  0.4754 -0.2028  0.3688
 8745TIP3    H150430   7.142   6.471   3.449  0.3610 -0.2009 -1.2884
 8745TIP3    H250431   6.994   6.450   3.423 -0.2247 -0.2765  1.7420
 8746TIP3   OH250432   1.831   3.851   1.356  0.3393 -0.9362  0.2848
 8746TIP3    H150433   1.738   3.838   1.335 -0.2499 -0.9798  2.6926
 8746TIP3    H250434   1.837   3.835   1.450  2.3522  1.3130  0.6360
 8747TIP3   OH250435   2.930   3.900   2.977  0.0211  0.4167  0.3773
 8747TIP3    H150436   2.852   3.946   2.947 -0.1418 -0.0213  0.1131
 8747TIP3    H250437   2.957   3.846   2.902  0.8309  0.8878  0.3127
 8748TIP3   OH250438   7.559   5.940   0.976 -0.0788  0.5244  0.0016
 8748TIP3    H150439   7.562   5.947   1.071 -1.4339  0.8160  0.0434
 8748TIP3    H250440   7.485   5.881   0.958  0.8098 -0.3700 -0.8511
 8749TIP3   OH250441   5.847   1.321   1.411  0.5752  0.7191  0.0748
 8749TIP3    H150442   5.879   1.409   1.391 -0.9561  1.3064  0.0662
 8749TIP3    H250443   5.771   1.336   1.468  0.3185 -0.6047  0.1021
 8750TIP3   OH250444   5.387   6.719   1.955 -0.0885 -0.2926 -0.5643
 8750TIP3    H150445   5.435   6.749   2.032 -0.4193 -0.2063 -0.3885
 8750TIP3    H250446   5.313   6.670   1.990  1.3979 -2.9313 -0.8501
 8751TIP3   OH250447   1.614   2.809   3.402 -0.2869 -0.4983  0.0173
 8751TIP3    H150448   1.660   2.755   3.466  2.8501  1.2652 -0.5554
 8751TIP3    H250449   1.627   2.764   3.318 -1.9701 -1.3253  0.1445
 8752TIP3   OH250450   3.232   4.429   0.612  0.3791 -0.0610 -0.3087
 8752TIP3    H150451   3.309   4.466   0.569  0.1109 -0.5575 -1.2472
 8752TIP3    H250452   3.265   4.397   0.696  0.8542  1.2002  0.0029
 8753TIP3   OH250453   0.586   3.268   1.285  0.1210  0.3551  0.1511
 8753TIP3    H150454   0.508   3.279   1.339  0.5027  1.5527  0.5010
 8753TIP3    H250455   0.584   3.177   1.257 -1.6257  0.4756 -0.1957
 8754TIP3   OH250456   6.224   0.304   1.936  0.3110  0.0793 -0.2944
 8754TIP3    H150457   6.131   0.303   1.913  0.0177 -1.1254  0.8199
 8754TIP3    H250458   6.246   0.397   1.947 -0.8067  0.3609 -0.3726
 8755TIP3   OH250459   7.115   4.582   2.751  0.0372 -0.2876  0.2395
 8755TIP3    H150460   7.184   4.554   2.690 -0.6479 -0.7460 -0.3334
 8755TIP3    H250461   7.125   4.677   2.756 -0.0844 -0.2060 -0.8310
 8756TIP3   OH250462   6.586   7.514   1.606 -0.4421 -0.0110 -0.4710
 8756TIP3    H150463   6.563   7.504   1.698 -1.6771  2.9624 -0.3287
 8756TIP3    H250464   6.503   7.530   1.562  0.3336  0.8001 -1.7166
 8757TIP3   OH250465   1.528   6.422   1.757 -0.3627  0.0264 -0.1441
 8757TIP3    H150466   1.452   6.470   1.790 -1.9320 -0.3774 -2.8185
 8757TIP3    H250467   1.494   6.334   1.738  1.2610 -0.7276  0.3145
 8758TIP3   OH250468   1.344   5.100   2.439  0.5485  0.0700  0.0210
 8758TIP3    H150469   1.361   5.103   2.534 -0.9504 -1.1787  0.3778
 8758TIP3    H250470   1.291   5.021   2.427  0.4430  0.3824 -1.8309
 8759TIP3   OH250471   5.840   5.685   2.267  0.2184  0.2409 -0.3438
 8759TIP3    H150472   5.845   5.633   2.187  2.1674 -3.2524  1.7910
 8759TIP3    H250473   5.752   5.667   2.301  0.6336 -1.1968  0.0274
 8760TIP3   OH250474   2.008   7.010   1.827 -0.0419  0.2638  0.1048
 8760TIP3    H150475   2.041   6.958   1.753 -1.6848  1.2662 -1.4135
 8760TIP3    H250476   2.017   6.952   1.902  1.8119 -0.7612 -0.8350
 8761TIP3   OH250477   6.918   0.269   2.698 -0.0479 -0.0198 -0.2265
 8761TIP3    H150478   6.961   0.194   2.740  1.1265  1.2215  0.8833
 8761TIP3    H250479   6.935   0.342   2.758 -1.4886  1.0637 -1.0911
 8762TIP3   OH250480   5.819   5.853   3.470  0.3008  0.2112 -0.2658
 8762TIP3    H150481   5.770   5.793   3.413  0.1532  0.7907 -0.7669
 8762TIP3    H250482   5.911   5.829   3.457  0.1988 -0.3360  0.0383
 8763TIP3   OH250483   2.955   2.757   1.431  0.0606  0.2607 -0.3263
 8763TIP3    H150484   2.928   2.679   1.383 -0.4608  0.6863 -0.7489
 8763TIP3    H250485   2.872   2.799   1.457  0.3357  0.5241  0.1307
 8764TIP3   OH250486   3.150   2.134   8.882 -0.0730  0.5070 -0.4724
 8764TIP3    H150487   3.208   2.065   8.915 -0.2401  0.8476  0.5781
 8764TIP3    H250488   3.132   2.188   8.958 -2.3433  0.0175 -0.5967
 8765TIP3   OH250489   0.772   5.449   0.918  0.0552  0.3458  0.2126
 8765TIP3    H150490   0.729   5.405   0.845 -2.0942  1.2629  0.8462
 8765TIP3    H250491   0.861   5.466   0.886 -0.6572  0.3005 -2.0033
 8766TIP3   OH250492   3.880   2.468   1.192 -0.4155  0.1977 -0.2176
 8766TIP3    H150493   3.900   2.550   1.237 -2.3782  0.4874  0.2196
 8766TIP3    H250494   3.786   2.474   1.172  0.1809 -0.1195 -3.8942
 8767TIP3   OH250495   0.154   0.891   2.484  0.5449 -0.3412  0.2530
 8767TIP3    H150496   0.118   0.950   2.418  1.6138 -2.2338 -2.2007
 8767TIP3    H250497   0.171   0.947   2.560 -0.4968  2.0222 -1.1399
 8768TIP3   OH250498   1.197   3.806   0.581 -0.0791  0.7560  0.0416
 8768TIP3    H150499   1.238   3.833   0.663 -0.9699  0.2617  0.6630
 8768TIP3    H250500   1.203   3.710   0.582 -0.1970  0.7413 -0.4212
 8769TIP3   OH250501   6.825   5.558   0.715  0.2098  0.2530  0.1077
 8769TIP3    H150502   6.765   5.534   0.786  0.0033 -0.1380 -0.1961
 8769TIP3    H250503   6.789   5.639   0.680  0.5838  0.7118  0.7593
 8770TIP3   OH250504   1.804   7.642   1.962  0.2365  0.6904  0.5705
 8770TIP3    H150505   1.818   7.576   2.029 -1.7860  1.7223  2.1409
 8770TIP3    H250506   1.810   7.725   2.009 -1.7888  1.4217 -0.3292
 8771TIP3   OH250507   3.164   3.640   1.638 -0.1872  0.6259 -0.5068
 8771TIP3    H150508   3.069   3.630   1.631 -0.1697  0.0762 -0.0590
 8771TIP3    H250509   3.197   3.614   1.552 -0.4506  0.9149 -0.6958
 8772TIP3   OH250510   6.958   2.335   1.376 -0.2728 -0.3572 -0.1562
 8772TIP3    H150511   6.872   2.303   1.348 -1.2697  1.5104  0.5773
 8772TIP3    H250512   6.952   2.337   1.472  0.6057 -0.2210 -0.1011
 8773TIP3   OH250513   0.144   5.758   3.094  0.0973 -0.2096  0.1219
 8773TIP3    H150514   0.052   5.731   3.093 -0.5934  2.0085  0.0681
 8773TIP3    H250515   0.166   5.763   3.187  0.7984 -2.5283  0.1612
 8774TIP3   OH250516   6.847   0.388   1.348 -0.3734 -0.3648 -0.3414
 8774TIP3    H150517   6.892   0.318   1.300 -0.1671 -0.4152 -0.0764
 8774TIP3    H250518   6.858   0.465   1.292 -2.2425 -0.9259 -1.5747
 8775TIP3   OH250519   3.517   0.589   1.008  0.3300  0.0081  0.5562
 8775TIP3    H150520   3.459   0.626   0.941  0.8977  1.0911  0.6325
 8775TIP3    H250521   3.604   0.593   0.970  0.4978 -0.5876  0.8655
 8776TIP3   OH250522   6.663   3.961   6.417  0.6055  0.6563  0.9119
 8776TIP3    H150523   6.607   3.972   6.494 -0.4200  1.3499  0.0954
 8776TIP3    H250524   6.660   3.868   6.398  1.8238  0.2763  2.3839
 8777TIP3   OH250525   5.583   3.450   2.409 -0.1053 -0.0828  0.6294
 8777TIP3    H150526   5.616   3.441   2.499  1.2116 -1.5107  0.0519
 8777TIP3    H250527   5.541   3.366   2.391 -0.8704  0.4094  0.0895
 8778TIP3   OH250528   0.813   4.392   2.999  0.0947 -0.0546  0.5317
 8778TIP3    H150529   0.757   4.343   3.059 -1.6857  2.2988  0.9383
 8778TIP3    H250530   0.899   4.391   3.041 -0.5968 -0.2831  2.0263
 8779TIP3   OH250531   3.427   1.519   2.138 -0.0960  0.2842  0.4676
 8779TIP3    H150532   3.383   1.440   2.107 -1.0563  0.9952 -0.0164
 8779TIP3    H250533   3.365   1.559   2.199  0.8589  0.0851  1.6162
 8780TIP3   OH250534   0.150   7.668   1.673  1.1539  0.2492  0.8740
 8780TIP3    H150535   0.145   7.697   1.582  1.9409  1.0064  1.0562
 8780TIP3    H250536   0.123   7.576   1.670  0.4134  0.4749  0.0006
 8781TIP3   OH250537   4.080   2.140   0.950 -0.4966 -0.2386  0.1675
 8781TIP3    H150538   4.126   2.124   1.032 -0.5658 -0.0853  0.2376
 8781TIP3    H250539   3.993   2.171   0.977  0.1408  1.7779  0.0593
 8782TIP3   OH250540   4.107   3.093   1.077 -0.2359  0.3733  0.1622
 8782TIP3    H150541   4.032   3.104   1.135 -0.8403 -0.2392 -0.4774
 8782TIP3    H250542   4.092   3.009   1.034  1.1950 -0.1254  0.5594
 8783TIP3   OH250543   6.215   4.428   3.564 -0.1874  0.3469  0.0084
 8783TIP3    H150544   6.177   4.429   3.651 -0.0142  0.0794  0.0888
 8783TIP3    H250545   6.156   4.481   3.511  0.7545  2.2077  0.7237
 8784TIP3   OH250546   5.118   6.305   2.960 -0.1527 -0.3519 -0.9899
 8784TIP3    H150547   5.097   6.273   3.048 -0.4883  0.2403 -0.8530
 8784TIP3    H250548   5.190   6.366   2.974 -2.3381  2.3209 -0.6688
 8785TIP3   OH250549   6.830   6.713   1.579 -0.3284  0.3083  0.6909
 8785TIP3    H150550   6.840   6.724   1.485  3.9421 -1.8979  0.6084
 8785TIP3    H250551   6.847   6.800   1.616 -2.9427  1.3969 -0.4744
 8786TIP3   OH250552   7.243   0.066   1.866  0.6921  0.1519 -0.3482
 8786TIP3    H150553   7.221   0.150   1.906 -1.8320 -0.9642  0.8421
 8786TIP3    H250554   7.161   0.035   1.828  1.8014 -1.3200 -1.6610
 8787TIP3   OH250555   4.233   7.163   2.016 -0.4535  0.6578  0.0037
 8787TIP3    H150556   4.256   7.114   1.938 -1.9657 -1.6945  0.9270
 8787TIP3    H250557   4.153   7.211   1.992 -1.5184 -0.8718  0.3210
 8788TIP3   OH250558   3.880   6.348   2.949  0.1138 -0.0840  0.1465
 8788TIP3    H150559   3.869   6.434   2.909  0.0638 -0.9080 -1.7033
 8788TIP3    H250560   3.812   6.293   2.909  0.9992 -1.3167  0.2583
 8789TIP3   OH250561   6.056   4.464   3.085  0.2607  0.0722 -0.1424
 8789TIP3    H150562   6.119   4.496   3.020 -0.4197 -0.5646 -1.1238
 8789TIP3    H250563   5.982   4.524   3.077  0.7257  0.8288  1.0217
 8790TIP3   OH250564   3.681   7.411   0.440 -0.0452 -0.0812 -0.0544
 8790TIP3    H150565   3.776   7.411   0.450 -0.0707  0.5116  0.2377
 8790TIP3    H250566   3.658   7.320   0.424  0.8057  0.0591 -2.4989
 8791TIP3   OH250567   2.898   7.342   2.296  0.0485  0.5214  0.0625
 8791TIP3    H150568   2.844   7.265   2.277  1.6300 -1.0760  1.6500
 8791TIP3    H250569   2.954   7.351   2.219 -1.5063  1.4046 -1.0271
 8792TIP3   OH250570   2.341   6.864   1.365 -0.2073 -0.4855  0.5059
 8792TIP3    H150571   2.365   6.951   1.334  1.3531 -0.3822  1.8702
 8792TIP3    H250572   2.396   6.804   1.314 -0.3439 -0.5833  0.4720
 8793TIP3   OH250573   2.483   2.313   1.629  0.6231 -0.0080 -0.0787
 8793TIP3    H150574   2.474   2.221   1.605  0.6757 -0.2887  0.9421
 8793TIP3    H250575   2.569   2.338   1.594  0.2288 -0.0742 -1.1492
 8794TIP3   OH250576   6.365   4.185   1.890 -0.4602  0.1891 -0.1045
 8794TIP3    H150577   6.302   4.114   1.899 -1.0479  0.8242  1.0944
 8794TIP3    H250578   6.349   4.220   1.802  0.3842 -1.6281 -1.0309
 8795TIP3   OH250579   3.527   6.997   1.356 -0.2385  0.1772 -0.7468
 8795TIP3    H150580   3.558   6.970   1.443 -0.2853  1.6065 -0.2638
 8795TIP3    H250581   3.593   7.058   1.325 -1.4709  1.6210 -0.6201
 8796TIP3   OH250582   4.308   4.259   1.737 -0.8200 -0.3982 -0.5149
 8796TIP3    H150583   4.320   4.349   1.707  0.1381 -1.5512 -4.0408
 8796TIP3    H250584   4.370   4.249   1.810  0.2380  1.3239 -1.1236
 8797TIP3   OH250585   3.611   2.291   2.296 -0.2440  0.6641 -0.6921
 8797TIP3    H150586   3.677   2.223   2.283 -0.8172  0.0358 -0.3567
 8797TIP3    H250587   3.618   2.347   2.219  0.3703  0.3382 -0.8737
 8798TIP3   OH250588   6.830   1.642   1.736 -0.1443  0.0638  0.1813
 8798TIP3    H150589   6.863   1.710   1.678  1.2632  0.0195  0.8862
 8798TIP3    H250590   6.782   1.583   1.678  0.9581  0.1796 -0.9083
 8799TIP3   OH250591   1.448   4.174   2.441  0.2462  0.0010  0.8251
 8799TIP3    H150592   1.430   4.153   2.350 -0.3356 -0.4770  1.0420
 8799TIP3    H250593   1.529   4.225   2.439 -0.2289  0.7618 -0.0370
 8800TIP3   OH250594   1.014   3.063   1.553 -0.4193 -0.5184 -0.1795
 8800TIP3    H150595   0.976   3.061   1.641  0.1551 -1.3561  0.0531
 8800TIP3    H250596   0.986   2.981   1.513 -0.4863 -0.2445 -0.7062
 8801TIP3   OH250597   4.477   5.233   2.757 -0.1023  0.0231  0.2224
 8801TIP3    H150598   4.421   5.274   2.822  0.0585  1.1694 -0.3406
 8801TIP3    H250599   4.518   5.306   2.711  2.1857 -0.7492  0.8813
 8802TIP3   OH250600   2.328   1.832   2.496 -0.5265 -0.6128 -0.4442
 8802TIP3    H150601   2.327   1.737   2.483 -1.9811 -0.5991 -0.6223
 8802TIP3    H250602   2.246   1.851   2.541  0.2580  0.4485  0.5989
 8803TIP3   OH250603   2.805   5.954   1.427  0.2844  0.2110 -0.4209
 8803TIP3    H150604   2.900   5.957   1.442  0.4931  0.3190 -1.7109
 8803TIP3    H250605   2.788   5.866   1.394  0.0782  0.4816 -1.0530
 8804TIP3   OH250606   4.711   2.393   0.628  0.2164 -0.4690  0.1169
 8804TIP3    H150607   4.642   2.407   0.563 -0.3730 -2.1465  0.3338
 8804TIP3    H250608   4.666   2.394   0.712  0.3090 -2.1661  0.2271
 8805TIP3   OH250609   2.656   6.359   2.427 -0.6584 -0.3022 -0.0152
 8805TIP3    H150610   2.703   6.442   2.436 -0.4740 -0.1326 -2.0049
 8805TIP3    H250611   2.702   6.299   2.487 -0.2949  0.8069  0.8547
 8806TIP3   OH250612   7.560   4.730   2.837 -0.2202  0.7431  0.2182
 8806TIP3    H150613   7.537   4.746   2.929  2.5562  1.4054  0.8798
 8806TIP3    H250614   7.516   4.801   2.789 -2.3343 -0.0466  0.8460
 8807TIP3   OH250615   1.585   0.935   0.526  0.0070 -0.2036  0.3816
 8807TIP3    H150616   1.532   1.011   0.502  0.7622 -0.0112 -0.7535
 8807TIP3    H250617   1.675   0.966   0.525  0.2779 -0.9522  0.5197
 8808TIP3   OH250618   1.082   6.405   1.894 -0.7313  0.4289 -0.3241
 8808TIP3    H150619   1.101   6.428   1.803  0.2778 -0.6911 -0.4098
 8808TIP3    H250620   0.988   6.423   1.903 -1.0248 -0.2135 -1.8267
 8809TIP3   OH250621   4.503   3.762   0.625 -0.2546 -0.5790  0.2308
 8809TIP3    H150622   4.409   3.768   0.641 -0.1497  1.3995  0.3722
 8809TIP3    H250623   4.544   3.782   0.710  0.3124 -1.3539  0.1568
 8810TIP3   OH250624   0.945   0.011   0.523 -0.6186 -0.1385 -0.0552
 8810TIP3    H150625   0.955  -0.017   0.614  0.3136 -2.6769 -0.8522
 8810TIP3    H250626   1.016  -0.033   0.477 -1.1894  0.9383 -2.0564
 8811TIP3   OH250627   2.750   0.630   1.883  0.9238  0.1616  0.0517
 8811TIP3    H150628   2.794   0.557   1.928 -1.5778 -0.6758  1.3828
 8811TIP3    H250629   2.726   0.594   1.798 -0.0731 -0.5808  0.6054
 8812TIP3   OH250630   0.947   2.828   1.766 -0.0516  0.9314 -0.1658
 8812TIP3    H150631   1.025   2.792   1.724 -0.8928 -1.3288  0.0946
 8812TIP3    H250632   0.956   2.803   1.858 -0.1869  2.3203  0.2455
 8813TIP3   OH250633   7.264   0.133   1.523 -0.2439  0.2650  0.7774
 8813TIP3    H150634   7.177   0.169   1.538 -1.2575 -0.4928 -2.4155
 8813TIP3    H250635   7.248   0.046   1.486  1.5909  1.3024 -3.0203
 8814TIP3   OH250636   3.774   4.741   2.556 -0.9097  0.2986 -0.0462
 8814TIP3    H150637   3.746   4.651   2.574 -0.1720  0.3272  1.3992
 8814TIP3    H250638   3.749   4.790   2.635 -2.7767  1.7463 -1.4305
 8815TIP3   OH250639   0.608   6.181   1.174 -0.0418  0.2796 -0.0992
 8815TIP3    H150640   0.549   6.143   1.109 -1.2632  1.8926 -0.0034
 8815TIP3    H250641   0.683   6.212   1.122  0.7310 -1.6652 -0.2366
 8816TIP3   OH250642   3.020   6.299   2.747 -0.2419 -0.0335 -0.0786
 8816TIP3    H150643   3.056   6.383   2.777  0.1471 -0.9106  2.0532
 8816TIP3    H250644   3.086   6.264   2.688  0.7583  0.0075  1.0013
 8817TIP3   OH250645   5.271   5.431   1.162 -0.4617 -0.6520 -0.2695
 8817TIP3    H150646   5.193   5.376   1.151 -1.6118  0.5227  1.3055
 8817TIP3    H250647   5.310   5.400   1.244 -0.8497  0.5010  0.3765
 8818TIP3   OH250648   7.550   0.094   0.758  0.0955 -0.0097 -0.6130
 8818TIP3    H150649   7.512   0.083   0.845 -1.4268  1.2063 -1.0725
 8818TIP3    H250650   7.598   0.012   0.742 -1.0193 -0.9583  0.6638
 8819TIP3   OH250651   4.703   2.357   1.118  0.1366  0.5049  0.1178
 8819TIP3    H150652   4.673   2.445   1.138 -3.1157 -0.4594  0.1599
 8819TIP3    H250653   4.661   2.302   1.185  1.2743 -1.1874 -0.4874
 8820TIP3   OH250654   5.537   3.415   0.469 -0.1531  0.0363 -0.1037
 8820TIP3    H150655   5.450   3.451   0.485  0.0864  0.1780  0.9795
 8820TIP3    H250656   5.540   3.335   0.521 -0.0102 -0.5421 -0.9858
 8821TIP3   OH250657   4.838   1.994   0.808 -0.7157 -0.4521  0.6713
 8821TIP3    H150658   4.763   2.053   0.816  0.9809  1.6408  2.4520
 8821TIP3    H250659   4.885   2.026   0.731 -0.8729 -0.8169  0.4233
 8822TIP3   OH250660   4.241   6.147   2.013 -0.4133 -0.0782  0.0947
 8822TIP3    H150661   4.244   6.239   1.986 -0.5761  1.0676  3.5384
 8822TIP3    H250662   4.327   6.113   1.989 -0.4468  0.8317 -1.5177
 8823TIP3   OH250663   4.935   7.428   2.054  0.3146 -0.0898 -0.7401
 8823TIP3    H150664   4.981   7.467   2.128  0.2640 -0.1742 -0.6645
 8823TIP3    H250665   4.843   7.433   2.078  0.3901 -2.1410  0.2091
 8824TIP3   OH250666   1.247   6.960   2.225  0.4938 -0.3682 -0.1537
 8824TIP3    H150667   1.336   6.935   2.199  1.4957  2.0072  0.7404
 8824TIP3    H250668   1.233   6.912   2.307  0.3063 -1.9467 -1.0734
 8825TIP3   OH250669   3.558   2.687   1.948  0.1461  0.5648  0.1826
 8825TIP3    H150670   3.490   2.747   1.979  1.0437  2.1240 -0.7443
 8825TIP3    H250671   3.576   2.715   1.859  0.3816 -1.3312 -0.4101
 8826TIP3   OH250672   1.194   6.267   2.223 -0.3134  0.1263 -0.0422
 8826TIP3    H150673   1.102   6.245   2.237 -0.6361  1.7260  0.6528
 8826TIP3    H250674   1.234   6.260   2.310 -0.5845  2.7095  0.3661
 8827TIP3   OH250675   4.777   7.309   0.377  0.0021 -0.4003 -0.0021
 8827TIP3    H150676   4.735   7.365   0.312 -0.2822 -0.7537 -0.1260
 8827TIP3    H250677   4.822   7.370   0.436  0.2129 -0.0760 -0.4900
 8828TIP3   OH250678   7.614   1.186   0.389  0.1856  0.2844  0.5767
 8828TIP3    H150679   7.581   1.244   0.458  0.8428  0.9414  0.3456
 8828TIP3    H250680   7.594   1.231   0.307 -2.2135 -1.3104  0.1860
 8829TIP3   OH250681   2.921   6.488   2.209 -0.2987 -0.0283  0.4685
 8829TIP3    H150682   2.977   6.475   2.286  0.0419  0.5223  0.3217
 8829TIP3    H250683   2.880   6.403   2.194  1.0016 -0.6264  0.1819
 8830TIP3   OH250684   2.323   3.256   0.898 -0.4535 -0.5549  0.2203
 8830TIP3    H150685   2.406   3.211   0.885 -0.9481 -1.1431 -1.1918
 8830TIP3    H250686   2.336   3.310   0.976  1.4492 -0.1071 -0.3620
 8831TIP3   OH250687   6.144   3.232   2.465  0.4016 -0.7628 -0.2978
 8831TIP3    H150688   6.179   3.189   2.543 -0.1840  0.0107  0.4085
 8831TIP3    H250689   6.065   3.276   2.495  0.7552  0.4506 -1.0813
 8832TIP3   OH250690   3.883   4.126   1.413  0.5833 -0.6064  0.6774
 8832TIP3    H150691   3.820   4.157   1.478  0.5419 -1.9285  1.3004
 8832TIP3    H250692   3.933   4.057   1.458  0.3386 -1.7932 -0.7696
 8833TIP3   OH250693   5.526   6.407   1.417  0.4594  0.2011  0.1911
 8833TIP3    H150694   5.494   6.423   1.328  1.6955 -2.3415 -0.8222
 8833TIP3    H250695   5.614   6.444   1.419  1.1411 -1.2999 -0.3118
 8834TIP3   OH250696   5.780   3.940   0.602 -0.0719 -0.4828 -0.1323
 8834TIP3    H150697   5.857   3.888   0.580 -0.2009 -1.1087  0.8534
 8834TIP3    H250698   5.709   3.877   0.610 -0.3482 -0.0918  0.5343
 8835TIP3   OH250699   1.106   2.406   2.513  0.3209 -0.0321 -0.6949
 8835TIP3    H150700   1.050   2.330   2.529  0.7821 -0.0407  1.0816
 8835TIP3    H250701   1.162   2.411   2.591  0.6107  1.8688 -0.9924
 8836TIP3   OH250702   1.331   0.814   3.295  0.0879  0.2617  0.1948
 8836TIP3    H150703   1.399   0.749   3.305 -0.2622 -0.2597 -0.7047
 8836TIP3    H250704   1.377   0.893   3.266  0.6070  0.6664  1.9915
 8837TIP3   OH250705   2.583   5.025   2.512 -0.4650 -0.1223  0.0728
 8837TIP3    H150706   2.511   5.088   2.521  1.0065  2.2882 -2.9975
 8837TIP3    H250707   2.585   5.005   2.418  2.0406 -1.0914  0.2627
 8838TIP3   OH250708   6.892   4.256   2.375  0.6475  0.3716  0.2102
 8838TIP3    H150709   6.964   4.309   2.408  0.6044  0.2816  0.4479
 8838TIP3    H250710   6.816   4.313   2.381  0.4162 -0.0465  1.4045
 8839TIP3   OH250711   4.919   4.719   2.938  0.1133  0.3929  0.0244
 8839TIP3    H150712   4.850   4.741   3.001 -0.8246  1.7221 -1.4132
 8839TIP3    H250713   4.924   4.623   2.942 -2.4207  0.1553 -0.3896
 8840TIP3   OH250714   1.689   1.559   1.211  0.3279 -0.1963  0.0924
 8840TIP3    H150715   1.643   1.634   1.171 -0.5125  0.0465  1.4586
 8840TIP3    H250716   1.633   1.484   1.189  0.5601 -0.2574 -0.2952
 8841TIP3   OH250717   0.286   4.544   1.753 -0.1083  0.3209  0.2977
 8841TIP3    H150718   0.270   4.634   1.780 -0.5947  0.1556  0.5764
 8841TIP3    H250719   0.350   4.510   1.816 -0.1819  0.3654  0.3950
 8842TIP3   OH250720   0.936   5.358   2.966 -0.1767  0.1963  0.2462
 8842TIP3    H150721   0.981   5.274   2.964  0.8877  0.7052  1.4383
 8842TIP3    H250722   0.913   5.370   3.058  0.0210  1.3753  0.1596
 8843TIP3   OH250723   7.091   2.732   2.557 -0.6301 -0.3714 -0.5454
 8843TIP3    H150724   7.031   2.737   2.631  0.8342  0.9539  0.6148
 8843TIP3    H250725   7.163   2.677   2.588  0.6042  1.2151 -0.4845
 8844TIP3   OH250726   3.401   6.565   2.647  0.2500 -0.2675 -0.5806
 8844TIP3    H150727   3.335   6.594   2.710  1.4871  0.4441  0.4376
 8844TIP3    H250728   3.422   6.475   2.673  0.0979 -0.2958 -0.5559
 8845TIP3   OH250729   1.095   4.971   1.785  0.4374  0.2162  0.3371
 8845TIP3    H150730   1.063   4.997   1.699  0.4411  0.7661  0.4941
 8845TIP3    H250731   1.182   5.010   1.791 -0.1210  1.4169  1.1424
 8846TIP3   OH250732   7.378   7.017   1.847 -0.6810 -0.3674 -0.7351
 8846TIP3    H150733   7.425   7.067   1.781  0.0414 -0.0762 -0.0116
 8846TIP3    H250734   7.446   6.972   1.896 -1.2570 -1.1641 -0.6472
 8847TIP3   OH250735   5.402   2.573   2.319  0.5072 -0.0384 -0.5641
 8847TIP3    H150736   5.347   2.495   2.324 -0.5854  0.5832 -2.0462
 8847TIP3    H250737   5.480   2.543   2.272  0.4005 -0.4115 -0.5091
 8848TIP3   OH250738   5.725   3.765   1.000 -0.0289 -0.3691 -0.0154
 8848TIP3    H150739   5.725   3.822   1.077 -1.5501 -0.2034 -0.0933
 8848TIP3    H250740   5.782   3.692   1.023 -1.0859 -0.7335  1.6236
 8849TIP3   OH250741   5.722   2.254   1.485  0.5023 -0.1003  0.1129
 8849TIP3    H150742   5.765   2.334   1.515  0.8786 -0.7416  1.3534
 8849TIP3    H250743   5.755   2.185   1.543 -1.0877 -0.8683  0.1705
 8850TIP3   OH250744   0.930   1.906   1.556 -0.0128  0.2042  0.0835
 8850TIP3    H150745   0.889   1.894   1.641 -0.4928 -0.8780 -0.2857
 8850TIP3    H250746   0.917   1.823   1.510 -0.7035  1.1029 -1.4514
 8851TIP3   OH250747   7.039   3.605   0.769  0.3799  0.3011 -0.0421
 8851TIP3    H150748   6.954   3.584   0.810  0.5853 -1.0423 -0.2549
 8851TIP3    H250749   7.094   3.635   0.842  0.2024 -0.3646  0.3723
 8852TIP3   OH250750   7.282   3.614   0.984  0.4035  0.0306  0.4744
 8852TIP3    H150751   7.360   3.567   1.013 -0.4527 -0.7960  1.4932
 8852TIP3    H250752   7.314   3.673   0.915  1.7476 -0.9851  0.1908
 8853TIP3   OH250753   5.378   3.045   2.848  0.6564  0.1328  0.6493
 8853TIP3    H150754   5.302   3.102   2.858 -0.0241 -0.6846  0.2653
 8853TIP3    H250755   5.345   2.968   2.803  1.7971 -0.0903  0.1545
 8854TIP3   OH250756   0.474   4.274   2.312 -0.0322 -0.6425  0.5761
 8854TIP3    H150757   0.495   4.231   2.229 -0.4005 -1.5251  0.9327
 8854TIP3    H250758   0.529   4.353   2.312  1.0031 -1.3287  0.1148
 8855TIP3   OH250759   1.934   4.008   3.262  0.1017 -0.5736 -0.1161
 8855TIP3    H150760   1.876   4.071   3.305  0.3702 -0.9602  0.8415
 8855TIP3    H250761   1.876   3.939   3.230 -0.0963 -0.3189 -0.2992
 8856TIP3   OH250762   5.672   0.987   2.802 -0.0128 -0.3172 -0.8802
 8856TIP3    H150763   5.578   0.985   2.819  0.0711 -1.7031 -0.4252
 8856TIP3    H250764   5.712   0.953   2.882  0.8377 -0.3137 -1.2870
 8857TIP3   OH250765   6.877   0.306   2.154 -0.6145 -0.1375  0.0203
 8857TIP3    H150766   6.808   0.247   2.121 -2.0010  0.6374  1.4247
 8857TIP3    H250767   6.939   0.312   2.081 -1.0285 -2.3706 -0.6061
 8858TIP3   OH250768   7.597   4.654   2.155  0.1459  0.1133  0.8533
 8858TIP3    H150769   7.684   4.643   2.118 -0.5792  0.3166 -0.9993
 8858TIP3    H250770   7.608   4.720   2.223  1.2077  1.0613 -0.2017
 8859TIP3   OH250771   6.305   2.717   1.236  0.6138  0.4221 -0.3468
 8859TIP3    H150772   6.388   2.691   1.277  0.9036  1.4943 -0.2194
 8859TIP3    H250773   6.275   2.639   1.191  1.9393  0.1425 -0.8021
 8860TIP3   OH250774   7.035   1.045   0.609 -0.1530  0.0937 -0.6779
 8860TIP3    H150775   7.024   0.957   0.572 -1.2775 -0.1396  0.1445
 8860TIP3    H250776   6.948   1.068   0.641  0.9230 -0.2416  2.8946
 8861TIP3   OH250777   3.708   0.531   1.421 -0.1273 -0.0995  0.4362
 8861TIP3    H150778   3.674   0.443   1.404  3.3950 -1.4549 -0.6212
 8861TIP3    H250779   3.759   0.521   1.501  0.2265  1.0120  0.3580
 8862TIP3   OH250780   4.895   4.264   2.293 -0.5128 -0.3640  0.3273
 8862TIP3    H150781   4.956   4.261   2.219 -1.4763  0.1210 -0.5047
 8862TIP3    H250782   4.950   4.284   2.368  0.5923 -1.5269 -0.1256
 8863TIP3   OH250783   3.766   1.306   2.066  0.5391 -0.2328  0.4719
 8863TIP3    H150784   3.731   1.260   1.989 -2.4900  0.8966  1.0283
 8863TIP3    H250785   3.827   1.245   2.105 -1.0537 -2.5788 -0.4885
 8864TIP3   OH250786   1.076   5.879   1.294  1.2250  0.2884  0.2717
 8864TIP3    H150787   1.159   5.921   1.269 -0.2070  3.2691  0.0836
 8864TIP3    H250788   1.067   5.897   1.388  1.1545 -0.7848  0.4880
 8865TIP3   OH250789   3.430   5.738   2.222  0.4077 -0.6125  0.3592
 8865TIP3    H150790   3.463   5.737   2.132  2.5267 -0.8750  1.0713
 8865TIP3    H250791   3.415   5.645   2.243 -0.0813 -0.5516  0.2972
 8866TIP3   OH250792   1.930   2.040   0.706  0.4497 -0.0098 -0.1979
 8866TIP3    H150793   1.861   2.094   0.746 -0.8925 -1.0493 -0.9962
 8866TIP3    H250794   2.009   2.093   0.712 -0.4505  1.3116  0.5945
 8867TIP3   OH250795   1.120   2.708   1.978 -0.2252  0.5288 -0.5243
 8867TIP3    H150796   1.166   2.642   1.925  2.4689  1.1263  0.8899
 8867TIP3    H250797   1.070   2.658   2.042 -1.0123 -0.1416 -1.6283
 8868TIP3   OH250798   2.694   3.070   1.658  0.2838  0.2977 -0.1099
 8868TIP3    H150799   2.636   3.085   1.732  0.9388  0.3433  0.4030
 8868TIP3    H250800   2.759   3.141   1.663  0.6529 -0.0108 -0.4049
 8869TIP3   OH250801   6.844   6.450   1.659  0.7698 -0.0584 -0.5819
 8869TIP3    H150802   6.815   6.538   1.634  0.0650 -0.1915 -0.2752
 8869TIP3    H250803   6.763   6.399   1.663  1.4404 -1.7153 -4.4092
 8870TIP3   OH250804   0.838   0.893   3.074  0.2947  0.3146 -0.0688
 8870TIP3    H150805   0.825   0.912   2.981 -0.7290 -1.2297 -0.2681
 8870TIP3    H250806   0.932   0.880   3.083  0.2482 -0.9797 -1.2087
 8871TIP3   OH250807   4.579   3.421   0.581  0.3988 -0.4013  0.9668
 8871TIP3    H150808   4.571   3.491   0.646  1.6451  1.3017 -0.6071
 8871TIP3    H250809   4.491   3.384   0.575 -0.4955  1.5324  1.3427
 8872TIP3   OH250810   3.247   0.985   1.351  0.3937 -0.0823 -0.1111
 8872TIP3    H150811   3.154   1.002   1.363  0.4378 -0.1524  0.3526
 8872TIP3    H250812   3.263   0.902   1.396  1.1345  1.0883  1.9326
 8873TIP3   OH250813   1.592   3.287   0.792 -0.3536  0.0156 -0.1492
 8873TIP3    H150814   1.554   3.374   0.779  0.7410  0.4091 -0.8695
 8873TIP3    H250815   1.542   3.229   0.735 -1.0521  0.1775  0.2910
 8874TIP3   OH250816   5.146   2.454   2.129 -0.3917  0.2307 -0.2964
 8874TIP3    H150817   5.198   2.471   2.051 -1.5217 -0.8405 -1.3100
 8874TIP3    H250818   5.203   2.401   2.185 -0.4407 -1.1382 -1.4962
 8875TIP3   OH250819   4.057   6.503   2.167 -0.1699 -0.4591 -0.3555
 8875TIP3    H150820   3.994   6.433   2.149  0.1002 -0.6429 -0.5980
 8875TIP3    H250821   4.135   6.477   2.120  0.5370 -0.9024  1.0030
 8876TIP3   OH250822   6.114   7.473   1.233 -0.1838  0.1088  0.2730
 8876TIP3    H150823   6.019   7.477   1.219  0.0354  1.3725 -1.0242
 8876TIP3    H250824   6.151   7.519   1.158  1.4553  0.0205  1.0014
 8877TIP3   OH250825   1.155   2.084   1.639 -0.5087 -0.5218  0.1348
 8877TIP3    H150826   1.083   2.038   1.595 -0.3892 -2.3406  1.6862
 8877TIP3    H250827   1.163   2.040   1.724  0.2410  1.8665  1.3822
 8878TIP3   OH250828   4.377   2.441   0.976 -0.7223  0.1923 -0.2600
 8878TIP3    H150829   4.287   2.466   0.998 -0.4534  1.2846 -0.3282
 8878TIP3    H250830   4.370   2.353   0.939 -2.2100  1.4714 -3.3666
 8879TIP3   OH250831   0.048   1.537   1.513 -0.3426  0.2149  0.2901
 8879TIP3    H150832  -0.013   1.579   1.574 -0.6362  0.6228 -0.2744
 8879TIP3    H250833   0.024   1.444   1.515  0.5891 -0.0139  1.8685
 8880TIP3   OH250834   4.920   2.190   0.571 -0.0893  0.1497 -0.5015
 8880TIP3    H150835   4.885   2.137   0.499 -1.3754  1.7020 -1.0474
 8880TIP3    H250836   4.848   2.246   0.597  1.2676  1.7432 -0.0312
 8881TIP3   OH250837   4.940   1.404   2.495 -0.0403 -0.6246 -0.0001
 8881TIP3    H150838   4.950   1.309   2.505 -2.4133 -1.0398 -0.9380
 8881TIP3    H250839   4.870   1.427   2.556 -0.1876  0.3578 -0.5216
 8882TIP3   OH250840   5.201   1.717   1.927 -0.5098 -0.0569 -0.7637
 8882TIP3    H150841   5.198   1.720   2.023 -0.3621 -0.2717 -0.7526
 8882TIP3    H250842   5.226   1.627   1.907  4.5195  1.0724 -0.8940
 8883TIP3   OH250843   5.073   1.727   1.025 -0.1291 -0.0940  0.5519
 8883TIP3    H150844   5.009   1.798   1.029 -0.0933 -0.0748  0.8443
 8883TIP3    H250845   5.072   1.688   1.113 -1.6899 -1.8477 -0.1868
 8884TIP3   OH250846   0.866   2.094   3.021 -0.1358  0.0752  0.1655
 8884TIP3    H150847   0.845   2.062   3.109  1.2956  0.4660  0.6651
 8884TIP3    H250848   0.925   2.027   2.985 -1.0321 -0.2901 -0.6740
 8885TIP3   OH250849   2.204   2.907   2.599 -0.1295 -0.4350  0.1848
 8885TIP3    H150850   2.196   2.823   2.555 -3.2209  0.1534 -0.6107
 8885TIP3    H250851   2.127   2.912   2.656 -0.5530  2.2136 -0.4945
 8886TIP3   OH250852   0.920   0.702   0.798 -0.0635  0.4598 -0.1431
 8886TIP3    H150853   0.982   0.700   0.725  0.2001  1.4494  0.0344
 8886TIP3    H250854   0.844   0.750   0.764 -0.4643 -0.1714 -0.1525
 8887TIP3   OH250855   2.994   3.232   3.074  0.0783 -0.5504  0.3386
 8887TIP3    H150856   2.975   3.259   3.164  3.0446 -0.8460  1.1963
 8887TIP3    H250857   3.015   3.313   3.028  0.5372 -0.5739  0.4997
 8888TIP3   OH250858   6.635   6.601   2.901 -0.3462 -0.1749 -0.2079
 8888TIP3    H150859   6.646   6.542   2.827 -0.1895  1.3995 -1.4909
 8888TIP3    H250860   6.551   6.645   2.885  0.4541  1.3878 -0.3793
 8889TIP3   OH250861   2.302   6.776   2.069 -1.0185  0.5247 -0.1350
 8889TIP3    H150862   2.369   6.842   2.089 -2.0478  1.4022  0.5027
 8889TIP3    H250863   2.273   6.745   2.155 -0.1786 -1.1832 -0.4217
 8890TIP3   OH250864   7.073   3.319   2.031  0.2358 -0.0128 -0.6732
 8890TIP3    H150865   7.096   3.404   1.993  0.6561 -0.5900 -1.7792
 8890TIP3    H250866   7.035   3.270   1.958  0.5635 -0.9800 -0.2105
 8891TIP3   OH250867   3.720   7.127   1.564  0.2929  0.1048 -0.0460
 8891TIP3    H150868   3.741   7.156   1.475  0.1915  2.0257  0.5173
 8891TIP3    H250869   3.658   7.192   1.596 -0.3220 -1.0408  1.1433
 8892TIP3   OH250870   0.926   2.464   2.943  0.6381 -0.0676 -0.2603
 8892TIP3    H150871   0.945   2.495   2.855  0.9819  0.5234  0.0148
 8892TIP3    H250872   1.006   2.418   2.970  1.1816  1.1528  0.3406
 8893TIP3   OH250873   0.632   5.022   1.454  0.6325 -0.0125 -0.0900
 8893TIP3    H150874   0.570   5.090   1.478  1.3949  0.5742  0.2517
 8893TIP3    H250875   0.614   5.005   1.361  0.8752  1.1390 -0.3644
 8894TIP3   OH250876   4.884   5.348   2.260  0.3656 -0.1226 -0.0095
 8894TIP3    H150877   4.895   5.427   2.207  1.8884 -0.1442  0.2502
 8894TIP3    H250878   4.971   5.328   2.293 -0.3876 -0.5784  1.8491
 8895TIP3   OH250879   6.770   7.678   1.188 -0.2228  0.0230 -0.7278
 8895TIP3    H150880   6.757   7.640   1.101  1.3649 -0.3165 -0.8380
 8895TIP3    H250881   6.833   7.621   1.231  1.7657  2.0958 -0.6700
 8896TIP3   OH250882   3.770   4.991   2.097  0.1752 -0.1369  0.5821
 8896TIP3    H150883   3.751   5.061   2.160  1.5848 -0.4635  1.4165
 8896TIP3    H250884   3.799   5.038   2.018 -3.3913  0.3566 -0.6132
 8897TIP3   OH250885   2.651   0.713   0.951 -0.2621  0.1170  0.1987
 8897TIP3    H150886   2.652   0.753   1.038  0.3646  0.3456  0.0897
 8897TIP3    H250887   2.674   0.784   0.891 -0.4370 -0.0998 -0.1323
 8898TIP3   OH250888   3.541   7.354   1.647 -0.1751  0.2234 -0.1476
 8898TIP3    H150889   3.548   7.357   1.743  0.9621 -0.1950 -0.1953
 8898TIP3    H250890   3.472   7.416   1.625 -0.5979  0.1640  0.9626
 8899TIP3   OH250891   5.070   2.156   2.389  0.1410 -0.4219  0.1732
 8899TIP3    H150892   5.159   2.121   2.386  1.1016  1.9114 -1.4383
 8899TIP3    H250893   5.022   2.106   2.323 -0.1093 -2.3941  1.7539
 8900TIP3   OH250894   3.129   5.407   0.452  0.4126 -0.2115  0.1976
 8900TIP3    H150895   3.225   5.403   0.453  0.3804 -1.0931  0.4074
 8900TIP3    H250896   3.107   5.447   0.537  0.6719  3.0899 -1.1280
 8901TIP3   OH250897   3.489   1.070   1.941 -0.3063  0.3772 -0.2661
 8901TIP3    H150898   3.458   1.136   1.880  2.6594  1.6358 -0.5729
 8901TIP3    H250899   3.432   1.078   2.018  0.1823  3.6284 -0.1272
 8902TIP3   OH250900   3.384   0.450   2.070  0.1447 -0.3341  0.3519
 8902TIP3    H150901   3.350   0.363   2.091  0.3937 -0.9687 -1.6660
 8902TIP3    H250902   3.472   0.434   2.036  0.9473  0.9123  1.7471
 8903TIP3   OH250903   5.941   5.710   1.095  0.2899  0.2624 -0.0516
 8903TIP3    H150904   5.902   5.721   1.008 -0.9396  2.2962  0.6719
 8903TIP3    H250905   6.016   5.653   1.081  0.0763  0.4590 -2.4336
 8904TIP3   OH250906   0.486   7.220   2.072 -0.5794 -0.0430  1.0112
 8904TIP3    H150907   0.509   7.133   2.038 -0.1305  0.7083 -0.7075
 8904TIP3    H250908   0.415   7.250   2.016  1.0971  1.8090 -0.2663
 8905TIP3   OH250909   7.575   2.983   0.976  0.7278  0.1690 -0.1127
 8905TIP3    H150910   7.531   3.023   0.901 -0.4010 -0.3603  0.2485
 8905TIP3    H250911   7.668   2.992   0.956  0.4594  0.1532 -1.5255
 8906TIP3   OH250912   3.256   3.721   2.961 -0.0341  0.8998 -0.0931
 8906TIP3    H150913   3.341   3.742   2.921  0.0374  1.5404  0.3690
 8906TIP3    H250914   3.196   3.715   2.887  0.6177 -0.6793 -0.5211
 8907TIP3   OH250915   2.486   4.336   2.172  0.3271 -0.1854 -0.5125
 8907TIP3    H150916   2.577   4.318   2.197  0.6788  0.3803 -1.3733
 8907TIP3    H250917   2.458   4.256   2.128  0.6882 -0.0455 -1.0049
 8908TIP3   OH250918   4.843   1.420   0.665 -0.0550  0.1540 -0.8793
 8908TIP3    H150919   4.871   1.508   0.690 -1.0702 -0.2707  2.1228
 8908TIP3    H250920   4.750   1.429   0.644 -0.8201 -0.5101  1.8694
 8909TIP3   OH250921   0.945   3.891   1.049  0.3070  0.4851 -0.2215
 8909TIP3    H150922   0.934   3.810   1.099  1.4499  0.7258  0.4598
 8909TIP3    H250923   0.872   3.892   0.987 -2.6680  1.3868  3.0212
 8910TIP3   OH250924   1.052   5.474   2.532  0.4778  0.0193  0.0972
 8910TIP3    H150925   1.089   5.412   2.596 -0.6353 -0.4840  0.2807
 8910TIP3    H250926   0.995   5.420   2.478  0.1322  0.7516 -0.2737
 8911TIP3   OH250927   3.780   2.134   2.128  1.0278 -0.1574  0.3082
 8911TIP3    H150928   3.848   2.198   2.150 -0.6033  0.9105  2.8152
 8911TIP3    H250929   3.779   2.074   2.203  0.5134 -1.2939 -0.5925
 8912TIP3   OH250930   7.341   7.340   0.480 -0.4883 -0.4456 -0.4351
 8912TIP3    H150931   7.287   7.320   0.403 -2.3079  1.5848  0.2264
 8912TIP3    H250932   7.293   7.301   0.553  0.7748 -1.5931 -0.1841
 8913TIP3   OH250933   6.734   5.036   3.252 -0.5407  0.7670  0.2588
 8913TIP3    H150934   6.772   4.949   3.236 -1.0889  0.6410 -0.3787
 8913TIP3    H250935   6.701   5.064   3.167 -0.6731  1.4588  0.5326
 8914TIP3   OH250936   5.848   1.207   1.154  0.2808 -0.0768  0.8597
 8914TIP3    H150937   5.849   1.229   1.248 -1.2242 -1.3038  1.2138
 8914TIP3    H250938   5.756   1.220   1.128  0.9303  1.6115 -0.8263
 8915TIP3   OH250939   0.310   4.474   2.806  0.2898 -0.3889  0.0577
 8915TIP3    H150940   0.335   4.436   2.721  0.4619 -0.7436  0.2640
 8915TIP3    H250941   0.215   4.472   2.806  0.2272  1.0842 -0.7859
 8916TIP3   OH250942   6.214   5.586   2.248  0.1909  0.4326  0.6477
 8916TIP3    H150943   6.217   5.622   2.160  1.6612  0.6173  0.7549
 8916TIP3    H250944   6.163   5.650   2.298 -1.0245  0.1113 -0.1425
 8917TIP3   OH250945   5.015   4.812   0.486  0.4177  0.7985  0.3225
 8917TIP3    H150946   5.091   4.869   0.501  2.0331 -0.8074 -1.2308
 8917TIP3    H250947   4.953   4.868   0.439  0.9957  1.9037  0.8343
 8918TIP3   OH250948   7.033   3.870   2.266 -0.0914 -0.1126  0.5864
 8918TIP3    H150949   7.109   3.815   2.246  0.8439  1.6029 -0.8012
 8918TIP3    H250950   7.012   3.848   2.357  1.4705 -1.3142  0.7127
 8919TIP3   OH250951   4.007   5.457   0.569  0.0247  0.3063  0.2016
 8919TIP3    H150952   3.921   5.486   0.600 -1.0260  0.1909 -2.2931
 8919TIP3    H250953   4.021   5.507   0.488  1.8360 -0.4332  0.0182
 8920TIP3   OH250954   2.546   2.589   1.995 -0.3727  0.5706  0.2888
 8920TIP3    H150955   2.473   2.625   1.945  0.2832 -0.4162 -1.4849
 8920TIP3    H250956   2.527   2.495   2.000  0.2202  0.4741  0.7705
 8921TIP3   OH250957   2.606   5.360   1.010 -0.5183  0.4043 -0.1489
 8921TIP3    H150958   2.546   5.432   1.030 -0.5412  0.2596  0.3336
 8921TIP3    H250959   2.552   5.297   0.962  0.2683  2.0868 -3.5364
 8922TIP3   OH250960   5.214   1.529   0.863  0.5881  0.2920  0.4736
 8922TIP3    H150961   5.172   1.603   0.905 -0.1000  1.0881 -1.4849
 8922TIP3    H250962   5.174   1.452   0.904 -0.6006  1.0279  0.7535
 8923TIP3   OH250963   0.343   1.869   2.436 -0.2868 -0.1422  0.5393
 8923TIP3    H150964   0.366   1.783   2.471 -0.2940 -0.0723  0.7166
 8923TIP3    H250965   0.345   1.927   2.512  0.3670  0.1419  0.3095
 8924TIP3   OH250966   5.511   2.145   2.041  0.2534 -0.5481  0.3942
 8924TIP3    H150967   5.563   2.174   2.116  0.8486 -0.7211  0.0560
 8924TIP3    H250968   5.566   2.079   1.998 -0.7949 -1.6952  0.7695
 8925TIP3   OH250969   7.118   2.323   2.741 -0.8413  0.6646 -0.0556
 8925TIP3    H150970   7.070   2.289   2.816  0.7516  0.5501  0.9643
 8925TIP3    H250971   7.202   2.352   2.777  0.4500 -0.4451 -1.9545
 8926TIP3   OH250972   6.744   5.729   2.391 -0.2608  0.1715  0.6962
 8926TIP3    H150973   6.768   5.786   2.318 -0.7347  1.7186  1.7107
 8926TIP3    H250974   6.652   5.708   2.375 -0.7529  1.6086  1.5245
 8927TIP3   OH250975   2.405   4.491   2.454 -0.0783  0.0917  0.3055
 8927TIP3    H150976   2.379   4.582   2.470  1.3140  0.3642  1.1578
 8927TIP3    H250977   2.455   4.494   2.373 -0.3876  0.0164  0.1118
 8928TIP3   OH250978   0.634   3.411   0.485  0.7344  0.1745 -0.1230
 8928TIP3    H150979   0.562   3.461   0.523 -0.4112 -0.5810 -1.2274
 8928TIP3    H250980   0.692   3.478   0.448 -0.8541  0.7296 -1.7206
 8929TIP3   OH250981   2.216   5.529   2.346  0.4242  0.1201 -0.8176
 8929TIP3    H150982   2.130   5.487   2.342  0.4969 -0.1671  0.2571
 8929TIP3    H250983   2.278   5.457   2.337  0.5835  0.4243 -2.4980
 8930TIP3   OH250984   1.450   1.176   2.781 -0.0340  0.0979 -0.2325
 8930TIP3    H150985   1.407   1.245   2.731  0.5229  0.1913 -0.5990
 8930TIP3    H250986   1.524   1.220   2.824 -1.2234  0.2939  1.7301
 8931TIP3   OH250987   3.551   3.368   0.861  0.0862 -0.3361 -0.2668
 8931TIP3    H150988   3.641   3.381   0.831  0.2378 -1.0072 -0.1284
 8931TIP3    H250989   3.537   3.273   0.852 -0.5657 -0.2478 -0.1805
 8932TIP3   OH250990   3.947   3.298   2.103 -0.2115 -0.3861  0.2147
 8932TIP3    H150991   3.853   3.314   2.102 -0.1564 -0.0846 -0.0557
 8932TIP3    H250992   3.982   3.365   2.162 -0.2858 -1.1582  1.1600
 8933TIP3   OH250993   1.291   2.732   1.130 -0.4834  0.5820 -0.0459
 8933TIP3    H150994   1.243   2.665   1.081  0.3091  1.0323 -1.5081
 8933TIP3    H250995   1.299   2.805   1.068  2.5152  0.3298 -0.1058
 8934TIP3   OH250996   4.170   6.619   1.151 -0.5693 -0.2372  0.4412
 8934TIP3    H150997   4.179   6.601   1.057 -2.2014  0.3050  0.1576
 8934TIP3    H250998   4.250   6.582   1.190 -0.1727 -1.0511 -1.0681
 8935TIP3   OH250999   7.214   3.658   1.933 -0.1664  0.2390  0.0806
 8935TIP3    H151000   7.200   3.675   1.840 -1.1802  2.6529  0.6092
 8935TIP3    H251001   7.180   3.736   1.978 -0.4183 -1.1735  2.5388
 8936TIP3   OH251002   5.969   3.319   2.156  0.2328  0.2962 -0.0421
 8936TIP3    H151003   5.897   3.266   2.121  0.1402 -0.8284  1.7144
 8936TIP3    H251004   5.927   3.401   2.184 -0.4802 -0.5131  1.3493
 8937TIP3   OH251005   5.893   4.966   1.053  0.2043 -0.6960  0.3110
 8937TIP3    H151006   5.929   5.054   1.060 -0.6170 -0.2909 -0.3462
 8937TIP3    H251007   5.912   4.939   0.963  0.8058 -1.3631  0.6223
 8938TIP3   OH251008   5.238   4.535   3.171 -0.1178  0.4377 -0.1154
 8938TIP3    H151009   5.211   4.620   3.205  0.8371  0.5055  0.5146
 8938TIP3    H251010   5.333   4.532   3.186 -0.3158 -1.2228  0.9829
 8939TIP3   OH251011   5.140   3.253   1.297 -0.2538 -0.4779  0.2221
 8939TIP3    H151012   5.137   3.182   1.361 -1.4557  0.3264  1.0877
 8939TIP3    H251013   5.113   3.331   1.345 -0.5462  0.2801 -1.1044
 8940TIP3   OH251014   0.669   4.955   0.922 -0.0729  0.2743 -0.4407
 8940TIP3    H151015   0.611   4.965   0.847 -0.3459  0.2488 -0.2338
 8940TIP3    H251016   0.661   4.862   0.946 -0.9266  0.5509  0.3769
 8941TIP3   OH251017   6.869   0.592   2.323 -0.2145 -0.1426  0.2723
 8941TIP3    H151018   6.867   0.591   2.419  0.9350  0.4021  0.3130
 8941TIP3    H251019   6.779   0.612   2.298 -0.4394  0.1480  1.2528
 8942TIP3   OH251020   7.462   6.706   1.417 -0.0784  0.0540  0.0972
 8942TIP3    H151021   7.439   6.634   1.358  2.5162 -1.2607  0.5592
 8942TIP3    H251022   7.556   6.717   1.407  0.0408  1.4945  2.1304
 8943TIP3   OH251023   3.798   3.855   1.666 -0.3691  0.0558 -0.0210
 8943TIP3    H151024   3.717   3.890   1.703 -0.3300 -0.4139  0.5323
 8943TIP3    H251025   3.858   3.929   1.664 -1.3403  0.8503 -2.0998
 8944TIP3   OH251026   1.114   3.843   1.694 -0.9992 -0.2629 -0.1518
 8944TIP3    H151027   1.096   3.888   1.612 -0.3177  0.1650 -0.0704
 8944TIP3    H251028   1.028   3.812   1.723 -1.7613  2.2700  0.5572
 8945TIP3   OH251029   5.603   4.391   1.006 -0.0189  0.2324  0.5518
 8945TIP3    H151030   5.572   4.327   1.070 -0.5467  1.0367  1.1023
 8945TIP3    H251031   5.696   4.369   0.993 -0.6829 -2.1227 -1.0077
 8946TIP3   OH251032   6.143   2.034   1.318 -0.7042  0.5797  0.3106
 8946TIP3    H151033   6.151   2.037   1.414 -0.0629 -1.2706  0.3506
 8946TIP3    H251034   6.224   1.994   1.289 -1.5266 -0.2667 -0.8913
 8947TIP3   OH251035   7.564   6.372   2.870  0.1720  0.1019  0.0995
 8947TIP3    H151036   7.578   6.356   2.963  0.6776  1.6203  0.3155
 8947TIP3    H251037   7.638   6.426   2.843  0.1217 -0.4324 -1.2366
 8948TIP3   OH251038   3.530   0.667   1.274 -0.1529 -0.2713  0.2486
 8948TIP3    H151039   3.551   0.641   1.184  2.4468  2.8415 -0.2204
 8948TIP3    H251040   3.582   0.607   1.328  0.4502 -0.4003 -0.4518
 8949TIP3   OH251041   5.032   5.557   2.812 -0.1023  0.4688  0.1426
 8949TIP3    H151042   5.107   5.605   2.777  0.7581 -1.6037 -1.0799
 8949TIP3    H251043   4.958   5.586   2.758  0.6515 -0.4386 -1.4695
 8950TIP3   OH251044   5.620   3.661   1.584 -0.3330  0.1430 -0.1273
 8950TIP3    H151045   5.620   3.572   1.618 -0.4508 -0.7249 -2.2380
 8950TIP3    H251046   5.707   3.695   1.604  0.1192 -0.8710 -0.3046
 8951TIP3   OH251047   6.553   6.165   1.958  0.2535 -0.3575  0.1172
 8951TIP3    H151048   6.554   6.088   2.016 -0.5936 -0.7353 -0.3482
 8951TIP3    H251049   6.466   6.202   1.969  0.8117  0.8341  0.6896
 8952TIP3   OH251050   0.774   3.683   0.830 -0.5032  0.1048  0.1019
 8952TIP3    H151051   0.805   3.773   0.831  1.4789 -0.4823 -1.8957
 8952TIP3    H251052   0.679   3.691   0.823 -0.4477  1.9951  0.8091
 8953TIP3   OH251053   5.846   4.141   1.129 -0.0459 -0.2680 -0.3438
 8953TIP3    H151054   5.916   4.075   1.130 -2.0217 -2.5677 -1.4944
 8953TIP3    H251055   5.775   4.101   1.179 -0.6184  1.9800  0.7673
 8954TIP3   OH251056   4.715   3.840   0.448 -0.1765  0.2549 -0.0520
 8954TIP3    H151057   4.694   3.933   0.456  0.0503  0.2925  0.1013
 8954TIP3    H251058   4.641   3.795   0.488 -0.0381  0.3831  0.3466
 8955TIP3   OH251059   1.611   3.075   1.581 -0.0487 -0.3132 -0.5776
 8955TIP3    H151060   1.634   3.002   1.523 -1.4765 -1.1215 -0.1853
 8955TIP3    H251061   1.533   3.044   1.627 -0.6828  1.4736 -0.3978
 8956TIP3   OH251062   4.411   4.279   2.294 -0.0478  0.1311  0.0581
 8956TIP3    H151063   4.317   4.263   2.306 -0.8593  3.0806 -1.4026
 8956TIP3    H251064   4.438   4.214   2.230 -1.1041 -0.6826  0.4025
 8957TIP3   OH251065   5.931   6.226   1.271 -0.0569 -0.5600  0.5177
 8957TIP3    H151066   5.910   6.214   1.179  3.9164  0.4931 -0.7237
 8957TIP3    H251067   5.992   6.155   1.292 -0.3788 -0.4022  2.1751
 8958TIP3   OH251068   6.066   6.422   1.930 -0.0226  0.3188  0.2172
 8958TIP3    H151069   6.069   6.411   1.835  0.9141 -0.2744  0.3018
 8958TIP3    H251070   6.060   6.517   1.943  1.7955  0.5673 -0.4261
 8959TIP3   OH251071   0.531   1.402   1.786  0.3809  0.5465 -0.0244
 8959TIP3    H151072   0.512   1.487   1.825  1.2457  0.3536  0.8542
 8959TIP3    H251073   0.466   1.343   1.823  1.1327  0.3868  1.0773
 8960TIP3   OH251074   2.049   6.973   2.107 -0.1788 -0.8523  0.5375
 8960TIP3    H151075   2.119   6.907   2.105 -0.2617 -0.9360 -1.6184
 8960TIP3    H251076   2.061   7.018   2.191  1.4968 -1.8769  0.8980
 8961TIP3   OH251077   4.880   3.643   2.003  0.5669  0.2173  0.2365
 8961TIP3    H151078   4.849   3.627   2.092  1.0207 -0.2981  0.3064
 8961TIP3    H251079   4.858   3.562   1.956  1.8600 -0.1926  0.3025
 8962TIP3   OH251080   3.394   6.230   2.126 -0.3914 -0.1995  0.3751
 8962TIP3    H151081   3.384   6.140   2.093  1.3900 -0.4951  0.5763
 8962TIP3    H251082   3.452   6.222   2.202  0.7105  1.2405 -0.2746
 8963TIP3   OH251083   0.148   2.034   0.497 -0.1015  0.1702  0.1829
 8963TIP3    H151084   0.180   2.089   0.568  0.1153 -0.7275  0.8000
 8963TIP3    H251085   0.091   2.091   0.446  1.6492  1.5278 -0.3486
 8964TIP3   OH251086   3.500   4.657   2.266  0.1549  0.3006 -0.3901
 8964TIP3    H151087   3.470   4.596   2.334 -1.6291  1.0329 -0.4492
 8964TIP3    H251088   3.429   4.722   2.260  0.5086  0.5477 -2.5852
 8965TIP3   OH251089   7.660   6.183   2.435 -0.2529 -0.6439 -0.0890
 8965TIP3    H151090   7.701   6.201   2.351  0.1304  0.0305  0.2363
 8965TIP3    H251091   7.656   6.268   2.479 -0.0510 -1.0618  0.7562
 8966TIP3   OH251092   5.375   7.340   2.001  0.9219 -0.2304  0.0784
 8966TIP3    H151093   5.454   7.372   1.956 -0.7825  2.0352 -1.5453
 8966TIP3    H251094   5.347   7.413   2.055 -0.4823 -0.6963  0.0252
 8967TIP3   OH251095   3.316   6.903   0.694 -0.1446  0.4999 -0.3044
 8967TIP3    H151096   3.252   6.936   0.758 -0.2480  0.8063 -0.5633
 8967TIP3    H251097   3.382   6.973   0.689  1.0599 -0.4618  1.1322
 8968TIP3   OH251098   7.138   2.951   2.141 -0.0401 -0.7322 -0.6493
 8968TIP3    H151099   7.189   2.976   2.065 -1.3759 -3.0406 -2.4447
 8968TIP3    H251100   7.169   2.863   2.163 -0.2898 -0.4538  0.9345
 8969TIP3   OH251101   1.285   2.046   0.453  0.1740 -0.1202  0.0778
 8969TIP3    H151102   1.356   2.102   0.422  0.0933 -0.4295 -0.6993
 8969TIP3    H251103   1.212   2.105   0.468 -0.0207 -0.0510 -1.0751
 8970TIP3   OH251104   0.246   1.627   0.504  0.0165  0.4238 -0.0188
 8970TIP3    H151105   0.186   1.555   0.521  0.0309  0.6689  1.0981
 8970TIP3    H251106   0.333   1.588   0.510  0.0294  0.5735  0.7807
 8971TIP3   OH251107   4.607   3.596   1.199 -0.4274 -0.0208 -0.6851
 8971TIP3    H151108   4.561   3.563   1.121  0.7544 -1.5792 -0.7684
 8971TIP3    H251109   4.699   3.573   1.184  0.0097  0.8020  0.6083
 8972TIP3   OH251110   2.207   6.293   2.288  0.0422  0.1276 -0.4023
 8972TIP3    H151111   2.206   6.212   2.237 -0.6849 -0.3672  0.3801
 8972TIP3    H251112   2.249   6.357   2.230 -0.8658 -0.3808 -1.6695
 8973TIP3   OH251113   6.333   2.530   2.241  0.0008  0.4616  0.4243
 8973TIP3    H151114   6.343   2.611   2.291 -0.1423  0.2773  0.7536
 8973TIP3    H251115   6.247   2.538   2.198 -0.3917  0.1252  1.1265
 8974TIP3   OH251116   2.474   2.376   2.897 -0.1584  0.2237  0.1892
 8974TIP3    H151117   2.454   2.284   2.916  0.6606  0.1860  0.9238
 8974TIP3    H251118   2.528   2.405   2.971  0.6206  0.9561 -0.6504
 8975TIP3   OH251119   5.334   5.089   1.941 -0.6278  0.1965  0.3711
 8975TIP3    H151120   5.314   5.121   1.853 -1.7357 -1.4794 -0.0364
 8975TIP3    H251121   5.390   5.012   1.928 -2.8203 -1.6104  0.8918
 8976TIP3   OH251122   2.662   4.713   2.470 -0.4574 -0.1301  0.5875
 8976TIP3    H151123   2.582   4.763   2.450  0.2449  0.9337  0.3128
 8976TIP3    H251124   2.724   4.741   2.402  0.2528 -0.6924  0.9988
 8977TIP3   OH251125   4.806   6.667   0.595  0.4709 -0.2819  0.1503
 8977TIP3    H151126   4.768   6.753   0.615 -0.1493 -0.6622  0.6549
 8977TIP3    H251127   4.732   6.616   0.562  0.6679 -0.8486  0.5740
 8978TIP3   OH251128   5.874   1.915   2.258  0.4058 -0.8270  0.6141
 8978TIP3    H151129   5.952   1.965   2.235  0.8615 -1.4868  0.6916
 8978TIP3    H251130   5.902   1.858   2.329 -0.6152  0.1665  1.8534
 8979TIP3   OH251131   5.222   1.650   2.225  0.0457 -0.1150  0.3675
 8979TIP3    H151132   5.158   1.616   2.288 -0.8741 -1.0673 -0.9992
 8979TIP3    H251133   5.258   1.728   2.267 -1.5337  0.0776  1.4812
 8980TIP3   OH251134   3.054   3.171   1.586  0.2060 -0.0221 -0.0590
 8980TIP3    H151135   3.034   3.155   1.493 -1.2060 -1.0503  0.3956
 8980TIP3    H251136   2.991   3.238   1.613  3.0083  3.1752 -0.7100
 8981TIP3   OH251137   6.940   2.781   2.763  0.5890  0.3049 -0.2508
 8981TIP3    H151138   6.972   2.697   2.797 -0.9885 -0.9329 -1.6255
 8981TIP3    H251139   6.895   2.820   2.838  1.3018 -0.0893  0.4012
 8982TIP3   OH251140   1.975   4.655   1.866  1.1327  0.0381  0.4714
 8982TIP3    H151141   1.942   4.572   1.831 -1.1082  0.1798  2.0643
 8982TIP3    H251142   1.906   4.718   1.847  1.1558  0.7330  2.4537
 8983TIP3   OH251143   0.101   1.844   1.750 -1.2401  0.0566  0.3401
 8983TIP3    H151144   0.166   1.864   1.818  1.0362  0.2232 -1.7394
 8983TIP3    H251145   0.082   1.751   1.763 -0.1984 -0.1268  0.7315
 8984TIP3   OH251146   5.009   7.275   1.848 -0.3586 -0.1786  0.2568
 8984TIP3    H151147   4.982   7.323   1.926 -1.5986  0.0072 -0.2714
 8984TIP3    H251148   4.930   7.230   1.819  0.1494 -0.4418 -0.7533
 8985TIP3   OH251149   1.106   7.454   2.468  0.1927  0.0459  0.4908
 8985TIP3    H151150   1.062   7.530   2.507 -0.3117 -0.5994  1.2182
 8985TIP3    H251151   1.075   7.451   2.378  0.8333  1.1624  0.2241
 8986TIP3   OH251152   4.740   1.309   2.094 -0.0198  0.2840  0.1669
 8986TIP3    H151153   4.702   1.288   2.179  0.7046  1.5230  0.8264
 8986TIP3    H251154   4.831   1.282   2.101  0.3076  1.3285  0.1733
 8987TIP3   OH251155   2.241   4.823   1.238  0.2203  0.9558  0.9604
 8987TIP3    H151156   2.265   4.907   1.278  1.2084  1.3809 -0.4337
 8987TIP3    H251157   2.163   4.843   1.186 -0.4955  0.6194  1.8707
 8988TIP3   OH251158   3.658   7.118   0.342  0.8958 -0.1130  0.3901
 8988TIP3    H151159   3.750   7.103   0.364  0.9854 -2.6042 -1.2737
 8988TIP3    H251160   3.646   7.072   0.259 -1.5599  1.2697 -0.0929
 8989TIP3   OH251161   2.108   2.163   1.374 -0.2168 -0.7341  0.0645
 8989TIP3    H151162   2.062   2.079   1.382 -0.9791 -0.2556  0.8240
 8989TIP3    H251163   2.088   2.209   1.455 -0.9646  0.7710 -0.9476
 8990TIP3   OH251164   2.159   3.985   1.880  0.1809 -0.2009  0.0434
 8990TIP3    H151165   2.215   4.037   1.823 -0.8595 -0.6334 -1.4461
 8990TIP3    H251166   2.217   3.922   1.921  1.1835  1.0381  0.5797
 8991TIP3   OH251167   1.168   6.481   2.494  0.1359 -0.4660  0.3685
 8991TIP3    H151168   1.224   6.404   2.488 -1.4212 -1.6780  0.7435
 8991TIP3    H251169   1.094   6.462   2.437  1.0540  2.0412 -1.8729
 8992TIP3   OH251170   3.121   5.892   0.870  0.3374  0.6822  0.2738
 8992TIP3    H151171   3.088   5.831   0.935 -3.0159  0.8329 -1.0803
 8992TIP3    H251172   3.126   5.841   0.789  0.0360  1.5579 -0.3168
 8993TIP3   OH251173   7.220   0.746   2.238 -0.3204  0.5856  0.2294
 8993TIP3    H151174   7.134   0.781   2.215 -1.5688 -2.0981  0.5533
 8993TIP3    H251175   7.208   0.708   2.325  1.3825  0.7348  0.5563
 8994TIP3   OH251176   6.964   6.680   1.861  0.6018 -0.0781  0.1274
 8994TIP3    H151177   6.905   6.650   1.793  0.4180 -2.1857  1.1014
 8994TIP3    H251178   7.023   6.741   1.818  0.1763 -0.9638 -1.8022
 8995TIP3   OH251179   5.183   3.555   1.030 -0.2989 -0.4287 -0.0393
 8995TIP3    H151180   5.169   3.557   1.124  0.1992  0.9355  0.0291
 8995TIP3    H251181   5.271   3.590   1.018 -0.1543 -1.0805 -0.9819
 8996TIP3   OH251182   0.518   4.065   1.117  0.1085  0.1955  0.6113
 8996TIP3    H151183   0.440   4.114   1.089  0.8280  1.8906  1.4488
 8996TIP3    H251184   0.488   4.017   1.194 -0.0145  1.2355  1.2359
 8997TIP3   OH251185   0.322   1.168   1.857  0.2460  0.0445 -0.0368
 8997TIP3    H151186   0.271   1.220   1.795  0.2240  0.5065  0.3636
 8997TIP3    H251187   0.257   1.126   1.913  0.3018  0.8134  0.6177
 8998TIP3   OH251188   2.069   5.140   1.849 -0.2220 -0.3041 -0.2456
 8998TIP3    H151189   2.079   5.233   1.869 -0.0029  0.3664 -3.0433
 8998TIP3    H251190   1.974   5.125   1.854 -0.1332 -0.4126  1.8827
 8999TIP3   OH251191   3.331   0.226   3.036 -0.2827  0.2119 -0.3230
 8999TIP3    H151192   3.419   0.197   3.012 -0.3642 -0.1526 -0.1793
 8999TIP3    H251193   3.333   0.321   3.022  0.3032  0.2867  0.2082
 9000TIP3   OH251194   5.389   4.109   0.824 -0.4549 -0.0627 -0.1687
 9000TIP3    H151195   5.357   4.086   0.737  0.8763  0.2426 -0.7735
 9000TIP3    H251196   5.478   4.072   0.827 -0.1743  0.6463  0.7393
 9001TIP3   OH251197   6.048   5.026   2.979  0.1027 -0.2783 -0.0264
 9001TIP3    H151198   6.016   5.094   2.920 -0.2110 -2.2028 -2.2134
 9001TIP3    H251199   6.104   4.970   2.924  0.8415 -1.4720  1.8159
 9002TIP3   OH251200   3.067   3.224   0.840 -0.1744  0.0800  0.4768
 9002TIP3    H151201   3.130   3.292   0.816  1.1278 -1.2821 -0.1351
 9002TIP3    H251202   3.093   3.198   0.929 -1.7364  1.5107  1.4021
 9003TIP3   OH251203   5.716   4.910   3.555  0.4369 -0.0805 -0.2410
 9003TIP3    H151204   5.767   4.840   3.513 -1.9911 -1.8283 -0.5441
 9003TIP3    H251205   5.646   4.863   3.601 -0.0878  2.0946  1.3092
 9004TIP3   OH251206   3.702   0.654   1.713 -0.1264 -0.0270 -0.2428
 9004TIP3    H151207   3.745   0.586   1.661  0.5601  0.8204 -0.8129
 9004TIP3    H251208   3.727   0.635   1.804  2.1849  0.8883 -0.6081
 9005TIP3   OH251209   6.931   6.607   2.123  0.6103 -0.2728 -0.4665
 9005TIP3    H151210   6.981   6.621   2.043  0.2279 -0.2603 -0.7073
 9005TIP3    H251211   6.879   6.528   2.105  1.1562 -0.7677  0.0871
 9006TIP3   OH251212   1.320   2.742   2.344  0.5271 -0.6325 -0.1300
 9006TIP3    H151213   1.379   2.766   2.415 -1.9523  1.8161  1.2819
 9006TIP3    H251214   1.349   2.794   2.269  1.6651 -1.3912 -0.2372
 9007TIP3   OH251215   1.829   1.043   1.807 -0.1345  0.7999 -0.5701
 9007TIP3    H151216   1.853   1.135   1.798  0.1056  0.6871 -1.1419
 9007TIP3    H251217   1.811   1.031   1.900 -0.5011  1.5060 -0.5470
 9008TIP3   OH251218   2.169   0.244   1.329 -0.3495 -0.0767  0.1925
 9008TIP3    H151219   2.252   0.277   1.363  0.6698 -1.9157 -0.3947
 9008TIP3    H251220   2.187   0.223   1.237 -1.3403 -0.9091  0.1717
 9009TIP3   OH251221   5.495   0.537   0.960  0.1219  0.4443 -0.1011
 9009TIP3    H151222   5.457   0.449   0.954  0.1671  0.3440  0.9736
 9009TIP3    H251223   5.580   0.529   0.917 -0.1515  0.1332 -0.5995
 9010TIP3   OH251224   0.063   7.208   2.187 -0.0949  0.2364 -0.5476
 9010TIP3    H151225   0.068   7.179   2.096  0.7279 -1.3946 -0.0291
 9010TIP3    H251226   0.139   7.166   2.230 -0.2636  1.2444  0.8088
 9011TIP3   OH251227   5.799   5.052   1.382 -0.0171  0.3445 -0.1810
 9011TIP3    H151228   5.889   5.044   1.351 -0.2353  2.5674 -1.6523
 9011TIP3    H251229   5.749   4.990   1.329  0.7327 -1.8165  1.4901
 9012TIP3   OH251230   7.546   6.232   3.129  0.0190  0.2672 -0.2862
 9012TIP3    H151231   7.454   6.251   3.150 -0.1807 -0.1279 -0.7910
 9012TIP3    H251232   7.560   6.143   3.160 -0.4088 -0.5073 -2.1478
 9013TIP3   OH251233   3.633   3.053   1.937  0.8644 -0.4874  0.4910
 9013TIP3    H151234   3.619   3.099   2.020 -1.3862  1.4738 -0.8364
 9013TIP3    H251235   3.697   3.106   1.890 -0.9359  0.8229 -0.6091
 9014TIP3   OH251236   5.514   6.833   3.161  0.2096 -0.0414  0.1205
 9014TIP3    H151237   5.504   6.901   3.227 -0.7082  1.4203 -1.4426
 9014TIP3    H251238   5.555   6.760   3.208 -2.0073  0.2266  2.7283
 9015TIP3   OH251239   0.571   1.683   2.363  0.1342  0.1015 -0.5279
 9015TIP3    H151240   0.646   1.740   2.345  0.9626 -1.3631 -1.9706
 9015TIP3    H251241   0.554   1.639   2.280  0.0232 -2.3254  0.7109
 9016TIP3   OH251242   0.359   6.982   1.712 -0.0647  0.3957 -0.1351
 9016TIP3    H151243   0.430   6.930   1.674 -1.4231 -1.2980 -0.4779
 9016TIP3    H251244   0.319   7.026   1.638  0.0415  0.6014 -0.0699
 9017TIP3   OH251245   2.073   7.543   1.058  0.1571 -0.3353 -0.2864
 9017TIP3    H151246   1.979   7.522   1.064  0.4065 -1.9099 -1.3494
 9017TIP3    H251247   2.086   7.570   0.968  0.6946  0.0964 -0.0828
 9018TIP3   OH251248   0.158   3.001   0.871  0.3796  0.1261 -0.0010
 9018TIP3    H151249   0.175   3.027   0.962  0.0194 -0.8785  0.3708
 9018TIP3    H251250   0.245   2.981   0.836  0.5857  1.1323 -0.0792
 9019TIP3   OH251251   5.010   5.547   2.113  0.5519 -0.7107 -0.4020
 9019TIP3    H151252   5.096   5.569   2.079  0.7897 -0.8258  0.1209
 9019TIP3    H251253   4.949   5.578   2.046  0.9981 -0.6845 -0.8008
 9020TIP3   OH251254   5.449   7.606   1.462  0.4896  0.2568 -0.0049
 9020TIP3    H151255   5.398   7.525   1.463 -0.6029  0.9137  0.1303
 9020TIP3    H251256   5.456   7.631   1.554 -1.0806  1.4131 -0.1419
 9021TIP3   OH251257   2.311   2.116   1.779 -0.0647 -0.1498  0.3236
 9021TIP3    H151258   2.236   2.143   1.833 -0.8519 -0.3370 -0.6347
 9021TIP3    H251259   2.278   2.122   1.689  0.9300 -0.6957 -0.0867
 9022TIP3   OH251260   6.929   0.847   1.991  0.3080 -0.0677 -0.2660
 9022TIP3    H151261   6.916   0.939   2.014  1.8823  0.2677 -0.5267
 9022TIP3    H251262   6.916   0.845   1.896  2.9065  0.5037 -0.7169
 9023TIP3   OH251263   6.927   6.292   3.353 -0.1345  0.1948 -0.3306
 9023TIP3    H151264   6.923   6.214   3.298  1.2622  0.4474 -0.8368
 9023TIP3    H251265   6.891   6.265   3.438  0.0222 -0.8848 -0.6049
 9024TIP3   OH251266   6.364   1.950   1.202  0.2523  0.3183  0.1378
 9024TIP3    H151267   6.362   1.954   1.106 -0.3268  0.9298  0.1651
 9024TIP3    H251268   6.447   1.907   1.222  0.9778  1.2922 -0.6235
 9025TIP3   OH251269   1.182   4.089   2.445  0.3294 -0.3306  0.1643
 9025TIP3    H151270   1.141   4.122   2.525 -0.2970 -0.9596  0.1151
 9025TIP3    H251271   1.257   4.147   2.430 -0.5371  0.8576  0.2609
 9026TIP3   OH251272   1.020   3.521   2.165 -0.3056  0.0678  0.7452
 9026TIP3    H151273   0.958   3.452   2.141  0.6947 -0.5704 -0.1257
 9026TIP3    H251274   1.087   3.477   2.216  0.8058  0.1746 -0.5555
 9027TIP3   OH251275   2.145   1.517   2.169 -0.0283  0.3585 -0.1859
 9027TIP3    H151276   2.137   1.423   2.154 -0.5466  0.4098 -0.2304
 9027TIP3    H251277   2.233   1.528   2.206 -0.8057 -0.4247  2.0684
 9028TIP3   OH251278   1.845   5.743   2.047  0.4215 -0.1561  0.4518
 9028TIP3    H151279   1.889   5.660   2.066 -0.4832 -1.2359 -1.8650
 9028TIP3    H251280   1.891   5.807   2.102  0.3461 -2.3304  3.2694
 9029TIP3   OH251281   3.457   5.558   2.699 -0.3190  0.0033 -0.2537
 9029TIP3    H151282   3.452   5.493   2.769  1.2434  0.5110  0.3702
 9029TIP3    H251283   3.418   5.637   2.736 -0.2770  0.0292 -0.2650
 9030TIP3   OH251284   2.405   4.724   1.947  0.3689  0.3932 -0.1184
 9030TIP3    H151285   2.325   4.722   2.000 -0.6966 -0.2241 -1.6843
 9030TIP3    H251286   2.375   4.710   1.857  2.3674 -1.2596 -0.6071
 9031TIP3   OH251287   5.429   1.596   1.596  0.6692  0.4261  0.3330
 9031TIP3    H151288   5.516   1.593   1.637  2.3853  2.1239 -2.8112
 9031TIP3    H251289   5.417   1.688   1.572 -0.9296 -0.1757 -1.3943
 9032TIP3   OH251290   6.243   0.920   0.903 -0.0717  0.0119  0.3835
 9032TIP3    H151291   6.187   0.871   0.963  0.1448  0.2441  0.7805
 9032TIP3    H251292   6.330   0.917   0.943  0.1812 -0.2411 -0.1619
 9033TIP3   OH251293   6.042   6.107   2.726 -0.1828  0.1451  0.0202
 9033TIP3    H151294   5.947   6.108   2.714 -0.1243  0.1851 -0.4329
 9033TIP3    H251295   6.065   6.014   2.721 -0.5357 -0.1844  2.8456
 9034TIP3   OH251296   5.709   0.054   2.404 -0.0358  0.5526  0.2313
 9034TIP3    H151297   5.619   0.056   2.372 -1.0564  1.1030  2.8695
 9034TIP3    H251298   5.749   0.132   2.366 -0.5800  0.2090 -1.1127
 9035TIP3   OH251299   5.598   1.270   1.689 -0.1825  0.8354 -0.2920
 9035TIP3    H151300   5.539   1.256   1.763 -1.4135  0.8373 -1.2243
 9035TIP3    H251301   5.614   1.364   1.687  0.7809  0.7086  0.6250
 9036TIP3   OH251302   0.465   0.310   2.198  0.1739 -0.6868  0.7301
 9036TIP3    H151303   0.401   0.257   2.149 -0.9558 -0.0901  1.5089
 9036TIP3    H251304   0.427   0.317   2.286  1.7485 -1.0340  1.4632
 9037TIP3   OH251305   0.101   2.557   2.939  0.0769 -0.4567 -0.2971
 9037TIP3    H151306   0.151   2.489   2.893  0.3669  0.0298 -0.7100
 9037TIP3    H251307   0.011   2.523   2.941  0.3231 -1.0965 -0.0153
 9038TIP3   OH251308   4.324   4.035   2.379  0.4517  0.8526  0.1264
 9038TIP3    H151309   4.240   4.070   2.407 -0.4643 -0.5702 -0.6769
 9038TIP3    H251310   4.384   4.053   2.451 -0.8738  0.7080  1.2953
 9039TIP3   OH251311   2.908   0.629   0.597 -0.0485  0.5504 -0.3050
 9039TIP3    H151312   2.936   0.578   0.521 -0.3920  0.9199 -0.6807
 9039TIP3    H251313   2.989   0.648   0.644 -0.0283 -1.5739  0.6343
 9040TIP3   OH251314   6.860   3.122   2.112  0.5135  0.3722  0.1098
 9040TIP3    H151315   6.880   3.132   2.206  1.2925 -2.5513  0.3571
 9040TIP3    H251316   6.929   3.065   2.079 -1.2814 -0.9522 -1.6020
 9041TIP3   OH251317   2.281   7.661   3.071 -0.0480  0.2638  0.0660
 9041TIP3    H151318   2.349   7.712   3.027  2.6709 -2.2197  1.0823
 9041TIP3    H251319   2.300   7.672   3.164 -2.1537  0.8598  0.4714
 9042TIP3   OH251320   1.620   3.191   1.930  0.5911  0.2230 -0.2616
 9042TIP3    H151321   1.572   3.114   1.898 -0.1129 -0.4247  2.1449
 9042TIP3    H251322   1.707   3.181   1.894  0.5629 -1.8477  0.1071
 9043TIP3   OH251323   1.161   1.622   0.848 -0.7050 -0.4610 -0.0921
 9043TIP3    H151324   1.196   1.655   0.765  1.5965 -0.7135  0.6902
 9043TIP3    H251325   1.079   1.670   0.860  0.7196  2.3758 -0.7516
 9044TIP3   OH251326   0.106   2.474   1.587 -0.2305  1.0020 -0.1397
 9044TIP3    H151327   0.031   2.456   1.530 -0.5681  1.1374  0.2577
 9044TIP3    H251328   0.086   2.426   1.667 -0.3304  1.7820  0.3069
 9045TIP3   OH251329   7.557   5.039   0.765 -0.2704 -0.2297 -0.5945
 9045TIP3    H151330   7.502   4.976   0.812  0.1911 -0.8360 -0.8604
 9045TIP3    H251331   7.537   5.123   0.807 -0.2695 -0.6739  0.3359
 9046TIP3   OH251332   4.987   6.238   2.745 -0.2963  0.1240 -0.0116
 9046TIP3    H151333   5.001   6.260   2.837  0.2207 -0.7438  0.1278
 9046TIP3    H251334   5.073   6.209   2.714 -0.4590  0.4459 -0.7792
 9047TIP3   OH251335   3.814   3.198   1.717  0.4034  0.5707 -0.1496
 9047TIP3    H151336   3.800   3.289   1.691  0.2049  0.5100 -0.2591
 9047TIP3    H251337   3.773   3.147   1.647  0.9521  0.3916 -0.3438
 9048TIP3   OH251338   3.594   2.536   3.281  0.0812 -0.1026  0.0270
 9048TIP3    H151339   3.576   2.482   3.204  1.3127 -0.4468 -0.0414
 9048TIP3    H251340   3.551   2.490   3.353 -2.2567  0.9183 -0.5998
 9049TIP3   OH251341   2.330   0.068   1.538  0.4703 -0.7239 -0.6920
 9049TIP3    H151342   2.372   0.004   1.480  0.0002 -1.6125 -0.0728
 9049TIP3    H251343   2.243   0.032   1.554 -0.6859  1.2050 -2.1737
 9050TIP3   OH251344   3.925   0.585   1.972  0.3049 -0.6335 -0.4169
 9050TIP3    H151345   3.926   0.490   1.962  1.7305 -0.5337 -1.5246
 9050TIP3    H251346   3.973   0.601   2.053 -2.4893 -0.9509  1.4171
 9051TIP3   OH251347   1.111   0.629   0.616 -0.0580  0.3573 -0.4114
 9051TIP3    H151348   1.199   0.638   0.653 -0.3311 -0.3099  0.4362
 9051TIP3    H251349   1.123   0.579   0.536  0.2832 -0.1411 -0.0549
 9052TIP3   OH251350   2.496   4.772   1.478 -0.4978 -0.3035 -0.7989
 9052TIP3    H151351   2.585   4.807   1.474 -0.2810 -0.6461  0.5491
 9052TIP3    H251352   2.445   4.832   1.424  0.6258 -0.4145 -2.0564
 9053TIP3   OH251353   6.439   7.289   1.211  0.6704  0.0751 -0.1158
 9053TIP3    H151354   6.455   7.384   1.208  1.9386 -0.1097  0.2629
 9053TIP3    H251355   6.526   7.251   1.226  0.1539 -1.1441 -0.1614
 9054TIP3   OH251356   6.560   7.496   2.505 -0.2849  0.1685  0.0746
 9054TIP3    H151357   6.496   7.521   2.439 -0.9781 -1.8555 -0.0874
 9054TIP3    H251358   6.571   7.401   2.493  2.2014  0.3159  0.5673
 9055TIP3   OH251359   6.998   1.763   0.831 -0.2189 -0.1852  0.3876
 9055TIP3    H151360   7.004   1.698   0.760  0.2699 -1.0324  1.1813
 9055TIP3    H251361   7.088   1.772   0.863 -0.1978  1.2737 -0.0320
 9056TIP3   OH251362   6.865   1.044   2.814 -0.6741 -0.0914  0.5032
 9056TIP3    H151363   6.805   1.112   2.846 -1.1110 -0.7358  1.0892
 9056TIP3    H251364   6.855   1.045   2.719 -1.2783  0.1147  0.5665
 9057TIP3   OH251365   6.600   5.878   2.631  0.7650 -0.3080 -0.5941
 9057TIP3    H151366   6.607   5.967   2.598  0.7622 -1.1469 -3.0831
 9057TIP3    H251367   6.539   5.835   2.571 -0.0652 -1.7451  1.1572
 9058TIP3   OH251368   5.443   3.234   2.282  0.6029  0.5988 -0.0246
 9058TIP3    H151369   5.400   3.186   2.353  0.7572  1.5028  0.7056
 9058TIP3    H251370   5.400   3.204   2.202 -1.0030  1.0730  0.6369
 9059TIP3   OH251371   3.270   4.848   2.511  0.3133 -0.2308  0.2249
 9059TIP3    H151372   3.364   4.866   2.514  0.1250  0.7900  0.4294
 9059TIP3    H251373   3.260   4.765   2.557  0.8167  1.0001  2.6962
 9060TIP3   OH251374   7.495   3.901   2.202  0.0068  0.0613  0.7060
 9060TIP3    H151375   7.497   3.972   2.266 -0.0643  0.2077  0.5477
 9060TIP3    H251376   7.404   3.872   2.200  0.0845 -0.2000  0.9496
 9061TIP3   OH251377   5.261   1.605   2.538 -0.3461 -0.2391 -0.1959
 9061TIP3    H151378   5.186   1.665   2.537 -1.7576 -1.9286 -0.6694
 9061TIP3    H251379   5.231   1.530   2.589  0.9370 -1.0731 -0.6219
 9062TIP3   OH251380   4.708   2.265   2.871  0.2059  0.4141  0.0981
 9062TIP3    H151381   4.632   2.238   2.923 -0.7124  0.6066 -1.1018
 9062TIP3    H251382   4.741   2.184   2.832 -0.5573  0.5513 -0.8825
 9063TIP3   OH251383   6.556   6.002   0.662  0.0214  0.0091 -0.1629
 9063TIP3    H151384   6.578   5.947   0.738 -0.4251  0.8271  0.5788
 9063TIP3    H251385   6.576   5.948   0.586  1.1350 -0.5878  0.5323
 9064TIP3   OH251386   6.524   6.729   1.361 -0.4066 -0.2656 -0.9921
 9064TIP3    H151387   6.605   6.778   1.369  0.0515 -1.1806  0.5446
 9064TIP3    H251388   6.520   6.703   1.269  0.2999  0.9993 -1.3967
 9065TIP3   OH251389   4.615   3.018   2.092  0.1022 -0.5496 -0.0271
 9065TIP3    H151390   4.535   2.966   2.090 -0.6937  0.5433  1.4564
 9065TIP3    H251391   4.681   2.963   2.049 -1.4262 -1.4480 -1.3269
 9066TIP3   OH251392   6.066   1.684   1.653  0.3712 -0.0230 -0.3127
 9066TIP3    H151393   6.106   1.601   1.624 -2.1185 -1.5360  0.2610
 9066TIP3    H251394   6.007   1.708   1.582  1.3003  1.5173 -0.6168
 9067TIP3   OH251395   5.530   2.729   1.071 -0.0502  0.9203  0.1488
 9067TIP3    H151396   5.440   2.699   1.078 -0.1745  1.4297  0.8454
 9067TIP3    H251397   5.583   2.653   1.097 -0.1828  0.0899 -1.8222
 9068TIP3   OH251398   6.088   1.649   1.239  0.4094 -1.0406 -0.0292
 9068TIP3    H151399   6.127   1.566   1.264  1.1306 -0.1732  1.9165
 9068TIP3    H251400   6.143   1.681   1.167  1.7907 -1.0192  1.0015
 9069TIP3   OH251401   5.563   4.815   3.127 -0.2672 -0.4598  0.3213
 9069TIP3    H151402   5.658   4.826   3.119 -0.1126 -2.4946 -1.5547
 9069TIP3    H251403   5.551   4.762   3.206  0.4073 -2.3532 -0.7963
 9070TIP3   OH251404   5.141   0.073   2.127  0.2032  0.0413 -0.8254
 9070TIP3    H151405   5.057   0.055   2.169  0.2238  0.8402 -0.4159
 9070TIP3    H251406   5.196   0.107   2.197  0.5766  0.3866 -1.2769
 9071TIP3   OH251407   0.873   0.697   1.774  0.4816  0.7852  0.2263
 9071TIP3    H151408   0.865   0.608   1.738 -0.6122  1.6319 -1.8390
 9071TIP3    H251409   0.897   0.684   1.865  1.1643 -1.6118 -0.2189
 9072TIP3   OH251410   1.251   3.447   2.301  0.0252  0.3359 -0.3445
 9072TIP3    H151411   1.233   3.436   2.394 -1.1568  1.8318 -0.3638
 9072TIP3    H251412   1.342   3.477   2.297  0.4602 -0.8782  0.2291
 9073TIP3   OH251413   4.510   6.008   1.348 -0.0331  0.7839  0.7995
 9073TIP3    H151414   4.491   5.984   1.439 -0.9539  0.3133  0.4882
 9073TIP3    H251415   4.445   5.961   1.296  0.3217  1.2512 -0.0894
 9074TIP3   OH251416   2.011   5.020   0.749  0.2236 -0.9491  0.2394
 9074TIP3    H151417   1.921   5.050   0.763  0.3533 -0.3695 -0.1597
 9074TIP3    H251418   2.028   5.037   0.656  1.5373  1.1221  0.8015
 9075TIP3   OH251419   2.699   2.212   1.414  0.1223  0.2444 -0.2543
 9075TIP3    H151420   2.732   2.248   1.496  0.3960  0.5123 -0.4790
 9075TIP3    H251421   2.640   2.280   1.381 -0.7254 -0.2671  0.1867
 9076TIP3   OH251422   7.184   1.092   1.645 -0.1314  0.0739  0.4208
 9076TIP3    H151423   7.191   1.004   1.610  0.9520  0.1441  0.4071
 9076TIP3    H251424   7.239   1.091   1.724  2.1731  1.4045 -1.0173
 9077TIP3   OH251425   3.080   4.833   0.399 -0.5110 -0.2474  0.2602
 9077TIP3    H151426   3.173   4.853   0.384 -0.0767 -1.8056  0.7487
 9077TIP3    H251427   3.080   4.767   0.468 -1.9403 -0.9179 -0.3416
 9078TIP3   OH251428   1.086   7.552   1.968  0.0814 -0.1397  0.3203
 9078TIP3    H151429   1.000   7.579   1.935 -0.8281 -0.9827  1.8927
 9078TIP3    H251430   1.148   7.596   1.910 -1.3963  0.4311 -0.9107
 9079TIP3   OH251431   4.442   4.379   1.350  0.3266  0.2818 -0.0566
 9079TIP3    H151432   4.483   4.435   1.284  0.5443  0.1361 -0.0476
 9079TIP3    H251433   4.515   4.349   1.405  0.0966  0.7128  0.4850
 9080TIP3   OH251434   3.268   1.898   2.508 -0.2303 -0.0780  0.0911
 9080TIP3    H151435   3.308   1.846   2.578  1.6614  1.0340 -0.1001
 9080TIP3    H251436   3.341   1.921   2.451 -1.0206  2.5013 -0.0003
 9081TIP3   OH251437   6.851   4.879   1.610 -0.2870 -0.2650 -0.5874
 9081TIP3    H151438   6.757   4.874   1.597 -0.2922  0.1805 -0.7312
 9081TIP3    H251439   6.885   4.915   1.528 -0.1381  0.8515 -0.0486
 9082TIP3   OH251440   5.959   7.078   3.661 -0.0467  0.1831 -0.3980
 9082TIP3    H151441   5.961   7.024   3.582  0.2752  0.2127 -0.4130
 9082TIP3    H251442   5.878   7.127   3.655  0.5119  1.0238 -1.2731
 9083TIP3   OH251443   3.410   1.429   1.359 -0.1753 -0.0824  0.6254
 9083TIP3    H151444   3.355   1.380   1.421  1.0967 -1.6266  0.5861
 9083TIP3    H251445   3.484   1.459   1.412  0.9939 -1.5300 -0.1138
 9084TIP3   OH251446   1.193   0.379   0.493 -0.4095 -0.1520 -0.0425
 9084TIP3    H151447   1.277   0.390   0.536  0.0589 -0.4583 -0.8679
 9084TIP3    H251448   1.132   0.357   0.564  0.1968  0.0790  0.5546
 9085TIP3   OH251449   2.495   2.317   1.918 -0.3992  0.3780 -0.9954
 9085TIP3    H151450   2.454   2.306   1.832 -0.9724 -2.0501 -0.5058
 9085TIP3    H251451   2.553   2.241   1.925  1.0773  1.5520  0.0295
 9086TIP3   OH251452   6.652   3.239   1.886 -0.6832  0.5457 -0.1261
 9086TIP3    H151453   6.685   3.182   1.816  1.7567  2.7795 -0.9366
 9086TIP3    H251454   6.655   3.184   1.965 -2.1607 -1.5934 -1.4546
 9087TIP3   OH251455   2.824   2.108   0.804 -0.2461  0.0880  0.1807
 9087TIP3    H151456   2.902   2.162   0.816 -0.4905  0.4605  0.1144
 9087TIP3    H251457   2.835   2.070   0.716  0.3376 -0.6618  0.5580
 9088TIP3   OH251458   2.159   0.640   2.590  0.4675  0.8406  0.2232
 9088TIP3    H151459   2.177   0.719   2.540 -1.5103  1.5192  0.4865
 9088TIP3    H251460   2.228   0.637   2.657  0.5169  2.4102  0.2733
 9089TIP3   OH251461   5.257   6.700   1.011  0.6775  0.0587  0.4867
 9089TIP3    H151462   5.218   6.761   0.949  0.2736  0.6256  1.2759
 9089TIP3    H251463   5.319   6.649   0.959 -1.2247 -1.0292 -0.8823
 9090TIP3   OH251464   6.071   4.657   2.366  0.3697 -0.1110 -0.5489
 9090TIP3    H151465   6.102   4.576   2.325  1.0146 -0.5865  0.8035
 9090TIP3    H251466   6.049   4.631   2.456 -0.7776  0.9337 -0.5124
 9091TIP3   OH251467   5.012   3.035   2.061 -0.5033  0.4329 -0.2511
 9091TIP3    H151468   4.986   3.005   2.148 -0.3148  0.3596 -0.2193
 9091TIP3    H251469   4.952   2.989   2.001  0.3005 -0.6425 -0.2625
 9092TIP3   OH251470   0.586   6.824   2.155 -0.3442  0.0354 -0.1975
 9092TIP3    H151471   0.632   6.869   2.227  1.8110 -1.1474 -0.7548
 9092TIP3    H251472   0.607   6.876   2.078  0.6359 -0.8531 -0.5530
 9093TIP3   OH251473   0.274   6.107   1.672 -0.2950  0.3715  1.1057
 9093TIP3    H151474   0.314   6.023   1.698  1.7091  1.5690  2.1197
 9093TIP3    H251475   0.268   6.157   1.753 -1.7824  1.1133  0.5677
 9094TIP3   OH251476   5.639   6.453   0.901 -0.3375 -0.5150 -0.0872
 9094TIP3    H151477   5.712   6.512   0.881  0.4343 -0.9387  1.3516
 9094TIP3    H251478   5.625   6.403   0.821  0.4466  0.0904 -0.6163
 9095TIP3   OH251479   2.285   5.198   0.519  0.1902  0.1039 -0.1801
 9095TIP3    H151480   2.257   5.274   0.570 -0.3470  0.2966 -0.7466
 9095TIP3    H251481   2.208   5.140   0.521  0.7935 -0.6928  0.7414
 9096TIP3   OH251482   7.415   1.417   1.301  0.2179  0.7564 -0.0251
 9096TIP3    H151483   7.493   1.363   1.315 -0.0928 -0.2408 -1.8152
 9096TIP3    H251484   7.343   1.365   1.336  0.1422  0.8520 -0.0373
 9097TIP3   OH251485   6.649   0.416   1.553  0.0996  0.1334 -0.2032
 9097TIP3    H151486   6.584   0.485   1.541 -1.3169 -0.9706  0.6587
 9097TIP3    H251487   6.715   0.432   1.486 -1.4586  0.8810 -1.6271
 9098TIP3   OH251488   3.092   7.568   0.760  0.0679 -0.6051 -0.0607
 9098TIP3    H151489   3.021   7.632   0.762  0.0296 -0.5803 -1.4140
 9098TIP3    H251490   3.170   7.620   0.738  0.1755 -0.8937 -0.3763
 9099TIP3   OH251491   4.453   6.760   1.283  0.3004 -0.5982  0.3939
 9099TIP3    H151492   4.477   6.675   1.246  0.9691  0.3151 -1.3594
 9099TIP3    H251493   4.359   6.753   1.299  0.6068 -2.1967  1.8290
 9100TIP3   OH251494   4.864   3.225   1.604 -0.1774 -0.5073 -0.0048
 9100TIP3    H151495   4.841   3.204   1.514  2.0617 -0.6132 -0.6042
 9100TIP3    H251496   4.924   3.299   1.598  0.4931 -0.8927  1.3325
 9101TIP3   OH251497   5.996   3.315   0.515  0.2367 -0.3888 -0.1457
 9101TIP3    H151498   5.929   3.369   0.474 -0.5001 -0.7730  0.5298
 9101TIP3    H251499   6.048   3.281   0.442 -0.5277 -0.3764 -0.6990
 9102TIP3   OH251500   6.285   0.189   1.621 -0.5697 -0.6352  0.0673
 9102TIP3    H151501   6.239   0.241   1.555 -0.9256 -2.0593 -0.8467
 9102TIP3    H251502   6.257   0.227   1.705 -1.4349  0.1225 -0.5433
 9103TIP3   OH251503   5.307   4.396   1.966 -0.1297  0.2700 -0.0697
 9103TIP3    H151504   5.345   4.484   1.964 -0.7405  0.5583  0.4407
 9103TIP3    H251505   5.323   4.364   2.054 -1.3837  0.5591  0.2872
 9104TIP3   OH251506   4.290   2.229   1.784 -0.4243  0.4468 -0.3035
 9104TIP3    H151507   4.316   2.267   1.868  1.1462 -0.2444 -0.4349
 9104TIP3    H251508   4.353   2.158   1.770 -1.8769 -0.7068 -1.1449
 9105TIP3   OH251509   1.854   3.017   0.552  0.3395 -0.3027  0.0051
 9105TIP3    H151510   1.814   2.951   0.608 -0.8350  0.6877  0.3786
 9105TIP3    H251511   1.831   2.990   0.463  0.5860 -0.8400  0.0986
 9106TIP3   OH251512   4.485   5.993   1.901 -0.4936  0.3531 -0.0838
 9106TIP3    H151513   4.432   5.919   1.871 -0.6445  0.8068 -0.9795
 9106TIP3    H251514   4.574   5.959   1.907 -0.5748  0.0817 -0.4310
 9107TIP3   OH251515   4.846   7.506   1.523 -0.0151  0.7073  0.2843
 9107TIP3    H151516   4.800   7.459   1.592  0.3990 -0.8872 -0.4839
 9107TIP3    H251517   4.936   7.514   1.555  0.6507 -1.7031 -0.7884
 9108TIP3   OH251518   1.055   3.911   2.648  0.2035 -0.2543 -0.1192
 9108TIP3    H151519   1.067   4.001   2.620  0.0868 -0.9611 -2.6144
 9108TIP3    H251520   0.961   3.902   2.663  0.2454  0.0723  0.3760
 9109TIP3   OH251521   1.626   7.137   0.695 -0.1128 -0.0341 -0.5117
 9109TIP3    H151522   1.631   7.183   0.611  1.6307  2.2999  0.7369
 9109TIP3    H251523   1.715   7.143   0.730 -0.7909 -0.9627  1.4996
 9110TIP3   OH251524   1.047   3.099   2.041  0.7092  0.4015  0.2054
 9110TIP3    H151525   1.093   3.083   1.959 -0.1088  0.5396 -0.2852
 9110TIP3    H251526   1.000   3.017   2.058  0.1885  0.6739  0.0831
 9111TIP3   OH251527   6.472   7.205   0.880 -0.0876 -0.5346  0.1285
 9111TIP3    H151528   6.436   7.252   0.955  2.7642  1.7409  0.2584
 9111TIP3    H251529   6.536   7.145   0.918  0.3700 -0.3757 -0.3844
 9112TIP3   OH251530   7.442   1.208   0.854 -0.8084 -0.1463  0.1277
 9112TIP3    H151531   7.368   1.150   0.837 -0.1381 -0.5813 -1.5166
 9112TIP3    H251532   7.504   1.155   0.903 -0.3121 -0.7637 -1.1374
 9113TIP3   OH251533   0.230   4.771   1.476  0.0814 -0.0857  0.2308
 9113TIP3    H151534   0.304   4.729   1.432 -0.3048  0.4163 -0.9276
 9113TIP3    H251535   0.230   4.733   1.564  1.2320 -0.6715 -0.0038
 9114TIP3   OH251536   7.014   3.193   1.683  0.4702  0.0456 -0.0812
 9114TIP3    H151537   6.970   3.108   1.686  1.7998 -0.7309 -1.2618
 9114TIP3    H251538   7.086   3.180   1.621  0.3762  2.1930 -0.7037
 9115TIP3   OH251539   6.251   2.630   1.497  0.4564  0.2200 -0.4253
 9115TIP3    H151540   6.321   2.578   1.457  0.9266  0.4600  0.0611
 9115TIP3    H251541   6.195   2.656   1.424  1.7945  1.4267 -1.0710
 9116TIP3   OH251542   6.986   0.002   1.826  0.1317  0.3022 -0.8793
 9116TIP3    H151543   6.910   0.008   1.884 -0.6748  0.3285 -1.8908
 9116TIP3    H251544   6.948  -0.005   1.738  1.2573  3.0796 -1.7211
 9117TIP3   OH251545   2.688   0.078   3.640  0.2609  0.0237  0.0834
 9117TIP3    H151546   2.724   0.143   3.700 -0.4536 -0.7954  1.4574
 9117TIP3    H251547   2.691  -0.004   3.689 -1.1591 -0.5163 -0.6702
 9118TIP3   OH251548   2.430   1.065   1.304 -0.3049 -0.1480 -0.4222
 9118TIP3    H151549   2.516   1.077   1.264  1.0870  0.4252  2.5006
 9118TIP3    H251550   2.428   1.128   1.376 -2.3116 -1.6036  0.8957
 9119TIP3   OH251551   0.820   7.010   1.796 -0.2019  0.6925  0.2624
 9119TIP3    H151552   0.836   7.105   1.797 -1.3767  0.9082  1.0032
 9119TIP3    H251553   0.903   6.972   1.770  0.7738  1.8304  1.5623
 9120TIP3   OH251554   5.832   3.791   2.290 -0.0662 -0.2939 -0.4657
 9120TIP3    H151555   5.884   3.818   2.366  0.9938 -1.0096 -0.9170
 9120TIP3    H251556   5.743   3.780   2.324  0.6201 -1.7782  0.9493
 9121TIP3   OH251557   0.704   0.448   1.765 -0.7322  0.1618 -0.6886
 9121TIP3    H151558   0.649   0.372   1.746  0.2408 -0.9333  0.6286
 9121TIP3    H251559   0.642   0.520   1.780 -1.8101 -0.9136  0.2854
 9122TIP3   OH251560   7.659   3.250   1.601 -0.0003  0.2283 -0.1652
 9122TIP3    H151561   7.663   3.176   1.662  2.5765  0.3597 -0.0339
 9122TIP3    H251562   7.607   3.218   1.528  1.1457 -1.8364 -0.1734
 9123TIP3   OH251563   0.589   5.550   2.099 -0.2100  0.2174  0.5788
 9123TIP3    H151564   0.590   5.472   2.155 -0.4264 -0.5523 -0.4539
 9123TIP3    H251565   0.680   5.562   2.074 -0.4523 -1.1727 -1.1821
 9124TIP3   OH251566   7.080   5.934   1.143  0.1544  0.0967  0.2492
 9124TIP3    H151567   7.062   5.865   1.207  0.9377  1.2377  1.7527
 9124TIP3    H251568   7.019   5.917   1.072 -0.0980 -1.7752  0.8637
 9125TIP3   OH251569   0.692   7.247   1.825  0.2520  0.0260 -0.4672
 9125TIP3    H151570   0.638   7.176   1.859  1.8710 -1.3160 -0.5974
 9125TIP3    H251571   0.635   7.324   1.830 -0.9113 -0.8804  1.4677
 9126TIP3   OH251572   3.187   3.865   1.791  0.1320  0.0960 -0.1120
 9126TIP3    H151573   3.266   3.823   1.825 -0.3738 -0.5754  0.2482
 9126TIP3    H251574   3.158   3.807   1.720 -1.1973 -0.7946  1.1180
 9127TIP3   OH251575   3.272   5.393   2.014  0.2051 -0.0206 -0.3256
 9127TIP3    H151576   3.341   5.422   1.956  2.5402  2.4012  3.2451
 9127TIP3    H251577   3.290   5.300   2.029  1.6460  0.1646 -0.7989
 9128TIP3   OH251578   3.434   5.817   0.627  0.6411  0.3923 -0.0166
 9128TIP3    H151579   3.411   5.910   0.636  1.2207  0.5846 -0.4496
 9128TIP3    H251580   3.360   5.780   0.578 -0.1704  0.3596  1.1949
 9129TIP3   OH251581   0.343   5.142   3.111  0.2630  0.0931 -0.2351
 9129TIP3    H151582   0.303   5.227   3.094 -0.4158 -0.2510 -0.4002
 9129TIP3    H251583   0.359   5.142   3.205  0.5687  0.5297 -0.2838
 9130TIP3   OH251584   5.567   7.033   1.265 -0.2369  0.5054  0.3424
 9130TIP3    H151585   5.497   6.974   1.237 -0.8162 -0.1445  2.9535
 9130TIP3    H251586   5.648   6.983   1.251 -0.5872 -0.1935  0.7603
 9131TIP3   OH251587   2.628   2.621   0.662 -0.2630  0.1397 -0.0294
 9131TIP3    H151588   2.688   2.696   0.664  0.5860 -0.5236  0.3916
 9131TIP3    H251589   2.570   2.638   0.588  0.1888  0.9983 -0.2021
 9132TIP3   OH251590   1.399   7.392   0.562 -0.3122 -0.3931  0.7336
 9132TIP3    H151591   1.420   7.426   0.649 -0.3168 -1.3166  1.0983
 9132TIP3    H251592   1.484   7.365   0.526  0.2527  2.9629 -0.8993
 9133TIP3   OH251593   2.507   1.433   3.166 -0.5707  0.2076  0.0699
 9133TIP3    H151594   2.483   1.525   3.155 -1.0984 -0.0818 -1.4151
 9133TIP3    H251595   2.602   1.432   3.161 -0.5227  0.7558  0.8218
 9134TIP3   OH251596   2.925   5.619   2.855 -0.1492  0.5938  0.2985
 9134TIP3    H151597   2.867   5.678   2.904  1.1269  1.3625  0.9249
 9134TIP3    H251598   2.874   5.595   2.777 -2.2339 -0.6361  1.9148
 9135TIP3   OH251599   3.424   0.667   1.687 -0.2933 -0.2139 -0.3567
 9135TIP3    H151600   3.410   0.760   1.707 -1.8085 -0.4437 -0.1817
 9135TIP3    H251601   3.519   0.656   1.684 -0.0941  1.2384  0.1070
 9136TIP3   OH251602   6.771   2.899   0.341  0.4514  0.4454 -0.0830
 9136TIP3    H151603   6.755   2.830   0.406 -0.8042  0.3058 -0.4977
 9136TIP3    H251604   6.766   2.853   0.257 -4.5090  1.4959 -0.6711
 9137TIP3   OH251605   5.165   7.103   0.907 -0.1453  0.0092  0.2960
 9137TIP3    H151606   5.082   7.144   0.931 -0.4902 -0.5705  0.1170
 9137TIP3    H251607   5.224   7.126   0.978 -0.6665 -0.1801  0.8005
 9138TIP3   OH251608   0.033   0.688   0.823 -0.0531 -0.4918 -0.1695
 9138TIP3    H151609  -0.026   0.616   0.803 -0.0299 -1.1521  1.8532
 9138TIP3    H251610   0.120   0.649   0.819 -0.0020 -0.4337  0.3213
 9139TIP3   OH251611   0.161   0.074   1.409 -0.5783  0.5938  0.1206
 9139TIP3    H151612   0.142   0.022   1.330 -0.3276  1.0363 -0.2319
 9139TIP3    H251613   0.243   0.118   1.389 -0.0217 -0.0265  1.0036
 9140TIP3   OH251614   7.317   4.853   2.461 -0.3276 -0.2816  0.4680
 9140TIP3    H151615   7.295   4.866   2.553  2.5454  0.8562  1.0873
 9140TIP3    H251616   7.251   4.905   2.414  0.3592  2.2846  2.1158
 9141TIP3   OH251617   0.143   2.787   2.804 -0.4075 -0.2503  0.7167
 9141TIP3    H151618   0.116   2.709   2.852 -0.0976 -1.4148 -0.9154
 9141TIP3    H251619   0.181   2.844   2.871 -2.7833 -0.4419  2.3436
 9142TIP3   OH251620   1.673   6.189   1.540  0.3963  0.2747  0.7092
 9142TIP3    H151621   1.599   6.165   1.595  0.1233 -1.2850 -0.2877
 9142TIP3    H251622   1.637   6.249   1.474 -0.2472 -1.2891 -0.4088
 9143TIP3   OH251623   5.835   2.095   1.282  0.0812 -0.1896 -0.2094
 9143TIP3    H151624   5.794   2.112   1.367 -1.0165  0.7812 -0.9028
 9143TIP3    H251625   5.916   2.146   1.284 -1.3947  2.3695 -0.8394
 9144TIP3   OH251626   3.446   5.369   1.470 -0.3723  0.1678  0.6461
 9144TIP3    H151627   3.499   5.343   1.394 -1.0899 -0.3591  0.3192
 9144TIP3    H251628   3.490   5.447   1.504  1.6234 -1.1790  1.3933
 9145TIP3   OH251629   3.971   6.226   1.224  0.4899  0.1846  0.0343
 9145TIP3    H151630   4.036   6.195   1.162  0.3789  1.5591 -0.8064
 9145TIP3    H251631   3.953   6.316   1.198 -0.8924  0.2189  0.9555
 9146TIP3   OH251632   0.733   4.378   1.164 -0.1309  0.0764 -0.3880
 9146TIP3    H151633   0.661   4.357   1.223 -0.3176  1.0163 -0.2649
 9146TIP3    H251634   0.753   4.470   1.183  3.3838 -1.0043  2.0166
 9147TIP3   OH251635   2.609   1.553   1.396 -0.0783 -0.6283 -0.1121
 9147TIP3    H151636   2.584   1.521   1.483 -1.6626  0.7485 -0.0290
 9147TIP3    H251637   2.695   1.593   1.409 -1.0949  1.2683  1.2917
 9148TIP3   OH251638   5.699   3.433   1.736  0.2814  0.4642 -0.2472
 9148TIP3    H151639   5.622   3.387   1.769 -0.9036  2.0437 -0.6934
 9148TIP3    H251640   5.757   3.440   1.811 -0.6543  0.5213  0.4886
 9149TIP3   OH251641   2.873   6.991   1.699 -0.4045  0.9839  0.2332
 9149TIP3    H151642   2.819   6.969   1.622  0.5783 -1.4011  0.1334
 9149TIP3    H251643   2.895   7.083   1.687 -1.5783  1.0972 -1.5182
 9150TIP3   OH251644   2.054   4.776   2.356 -0.0925 -1.0912 -0.5685
 9150TIP3    H151645   2.129   4.748   2.408  0.8280 -1.4807 -2.0547
 9150TIP3    H251646   2.028   4.698   2.307 -1.0918 -0.7943 -0.5408
 9151TIP3   OH251647   2.847   6.599   3.650 -0.1440 -0.4235 -0.2388
 9151TIP3    H151648   2.832   6.691   3.630 -0.6860 -0.3501  0.4462
 9151TIP3    H251649   2.789   6.551   3.591 -2.1322 -0.1935  1.4231
 9152TIP3   OH251650   3.099   1.982   3.212  0.2412 -0.3811 -0.1812
 9152TIP3    H151651   3.071   1.975   3.303  0.5466 -1.6367 -0.1702
 9152TIP3    H251652   3.127   1.894   3.189 -0.9922 -0.3713 -1.8728
 9153TIP3   OH251653   1.423   6.838   1.058 -0.0698 -0.3783  0.1861
 9153TIP3    H151654   1.445   6.841   0.965 -0.3749 -0.4503  0.1122
 9153TIP3    H251655   1.504   6.864   1.103 -0.4282  1.4724 -0.1528
 9154TIP3   OH251656   0.218   2.346   2.764  0.4227 -0.3329  0.6209
 9154TIP3    H151657   0.255   2.349   2.675  1.2983 -1.7492  0.8977
 9154TIP3    H251658   0.272   2.282   2.810  0.2064  0.6329  2.3038
 9155TIP3   OH251659   0.691   1.362   2.449  0.7091 -0.1492 -0.3967
 9155TIP3    H151660   0.653   1.374   2.362  0.8208  0.2897 -0.3891
 9155TIP3    H251661   0.782   1.339   2.433  0.4452 -1.2073 -0.4149
 9156TIP3   OH251662   0.434   1.096   2.193  0.2632 -0.3747 -0.9764
 9156TIP3    H151663   0.416   1.112   2.285 -2.0836 -0.6304 -1.3410
 9156TIP3    H251664   0.462   1.004   2.189 -1.8123 -1.0625 -0.7341
 9157TIP3   OH251665   5.583   6.281   2.842  0.1571 -0.2304  0.4971
 9157TIP3    H151666   5.518   6.213   2.822 -2.1338  0.8005  3.6591
 9157TIP3    H251667   5.549   6.360   2.801  0.3608 -0.0435  0.6865
 9158TIP3   OH251668   0.371   0.385   2.447  0.1666  0.1628 -0.2312
 9158TIP3    H151669   0.450   0.364   2.498  0.2257 -0.0154 -0.3932
 9158TIP3    H251670   0.335   0.463   2.489  0.1783 -0.0193  0.1217
 9159TIP3   OH251671   4.599   1.947   2.146  0.3037 -0.0742  0.1417
 9159TIP3    H151672   4.514   1.924   2.184  1.1511 -1.9137  1.0477
 9159TIP3    H251673   4.590   2.039   2.122 -2.3967 -0.5521 -1.0892
 9160TIP3   OH251674   3.565   5.422   2.225  0.2655  0.0752  0.2721
 9160TIP3    H151675   3.553   5.331   2.252  0.8612 -0.2961 -0.6540
 9160TIP3    H251676   3.617   5.461   2.296  2.0829 -0.9683 -0.3992
 9161TIP3   OH251677   4.851   6.950   1.245 -0.1984 -0.3825 -0.1325
 9161TIP3    H151678   4.777   7.009   1.260 -0.8281 -0.6355 -2.0194
 9161TIP3    H251679   4.853   6.937   1.150  2.3002 -0.3659 -0.1468
 9162TIP3   OH251680   0.063   1.999   2.161 -0.1819 -0.4470  0.0171
 9162TIP3    H151681  -0.012   2.056   2.175  1.2939  1.3188  1.2783
 9162TIP3    H251682   0.053   1.929   2.225 -0.0631  0.5666  1.1799
 9163TIP3   OH251683   1.223   4.911   1.203  0.1647  0.0314  0.0066
 9163TIP3    H151684   1.249   4.996   1.168 -0.3858  0.2435  0.0960
 9163TIP3    H251685   1.135   4.926   1.240  0.3161 -0.4261  0.5689
 9164TIP3   OH251686   4.714   3.633   0.848  0.0183 -0.0386  0.7687
 9164TIP3    H151687   4.794   3.677   0.877 -0.5421  0.5638  1.4633
 9164TIP3    H251688   4.744   3.550   0.810  0.8737 -0.4483  2.2556
 9165TIP3   OH251689   3.436   2.730   0.885  0.2891 -0.2311 -1.0317
 9165TIP3    H151690   3.352   2.683   0.883  0.2672 -0.3199  0.3992
 9165TIP3    H251691   3.414   2.820   0.859 -0.4879  0.0289  0.4087
 9166TIP3   OH251692   5.073   3.258   2.235  0.2444 -0.7467 -0.2784
 9166TIP3    H151693   5.092   3.222   2.322  1.2292 -1.2301 -0.6811
 9166TIP3    H251694   5.061   3.180   2.180  0.3129 -0.4439 -0.7208
 9167TIP3   OH251695   6.309   3.295   1.195 -0.4120 -0.4352 -0.6317
 9167TIP3    H151696   6.293   3.325   1.106 -2.3948  1.7751  0.3827
 9167TIP3    H251697   6.355   3.367   1.237  0.1016 -1.2665  0.2846
 9168TIP3   OH251698   6.113   5.834   2.735 -0.1165  0.1365 -0.0107
 9168TIP3    H151699   6.151   5.878   2.811 -1.1035  0.4461  0.3245
 9168TIP3    H251700   6.166   5.756   2.722  0.2350  0.2345  0.8248
 9169TIP3   OH251701   5.449   5.297   2.134 -0.3954  0.2061 -0.1302
 9169TIP3    H151702   5.448   5.212   2.089  2.5274 -1.4619  2.6001
 9169TIP3    H251703   5.514   5.348   2.087  0.3932 -0.3939  0.2847
 9170TIP3   OH251704   7.506   0.815   2.924  0.0780 -0.0766  0.3048
 9170TIP3    H151705   7.587   0.864   2.935  0.5881 -0.0574 -2.6764
 9170TIP3    H251706   7.533   0.723   2.927  0.3742 -0.0712 -1.2216
 9171TIP3   OH251707   3.621   2.137   0.957  0.2630  0.2429  0.5148
 9171TIP3    H151708   3.577   2.053   0.973  0.5561 -0.0191 -0.0135
 9171TIP3    H251709   3.550   2.198   0.940  0.0916 -0.1770 -0.3217
 9172TIP3   OH251710   3.865   0.929   0.858  0.0547  0.1591 -0.1800
 9172TIP3    H151711   3.879   0.846   0.812  0.4923  0.4860 -0.6536
 9172TIP3    H251712   3.816   0.905   0.936 -0.1338 -0.4988 -0.4903
 9173TIP3   OH251713   6.868   4.097   1.902  0.4871  0.3526 -0.1530
 9173TIP3    H151714   6.826   4.179   1.881  0.5318  0.4105 -0.0190
 9173TIP3    H251715   6.882   4.100   1.997 -1.4555 -0.7188  0.2258
 9174TIP3   OH251716   5.725   4.580   0.781 -0.1165 -0.1492  0.0399
 9174TIP3    H151717   5.771   4.508   0.824 -1.1924  0.5523  2.5814
 9174TIP3    H251718   5.662   4.537   0.723  0.5593 -1.1988  0.0651
 9175TIP3   OH251719   3.489   3.363   2.845 -0.3081  0.3943  0.3805
 9175TIP3    H151720   3.533   3.335   2.765 -0.8280 -0.2909  0.3276
 9175TIP3    H251721   3.539   3.439   2.874  0.3708  0.1659 -0.1575
 9176TIP3   OH251722   4.178   2.821   1.808 -0.4067 -0.2958  0.1506
 9176TIP3    H151723   4.241   2.781   1.748  0.4609 -1.2042  1.6066
 9176TIP3    H251724   4.221   2.902   1.837  0.9961 -1.7535  2.4919
 9177TIP3   OH251725   1.231   7.452   1.578 -0.6045 -0.2193 -0.1449
 9177TIP3    H151726   1.229   7.359   1.555  0.1293  0.1036 -1.6956
 9177TIP3    H251727   1.229   7.497   1.493 -1.5617  1.1994  0.5981
 9178TIP3   OH251728   4.928   7.208   2.377  0.1606  0.3373 -0.4629
 9178TIP3    H151729   4.862   7.187   2.312  1.5402  0.0906 -1.8586
 9178TIP3    H251730   4.881   7.255   2.446 -1.7836 -1.3718 -0.5075
 9179TIP3   OH251731   3.366   0.374   1.071 -0.8367  0.3786 -0.3238
 9179TIP3    H151732   3.420   0.453   1.078 -0.3230  0.0028  0.0572
 9179TIP3    H251733   3.425   0.302   1.096 -1.4792 -0.0527 -0.0022
 9180TIP3   OH251734   6.555   1.770   1.571 -0.3405 -0.4227  0.5241
 9180TIP3    H151735   6.604   1.805   1.646 -0.9100  0.9037  0.3011
 9180TIP3    H251736   6.466   1.757   1.605 -0.5260 -0.1030  0.1651
 9181TIP3   OH251737   4.058   4.574   0.706 -0.5924  0.3546  0.1267
 9181TIP3    H151738   4.149   4.599   0.718 -0.5173  0.6226 -0.9116
 9181TIP3    H251739   4.061   4.498   0.647 -0.9332 -0.9398  1.6968
 9182TIP3   OH251740   0.062   6.365   1.445 -0.7481  0.4498  0.7263
 9182TIP3    H151741   0.094   6.403   1.363 -1.0581  1.8170  1.2182
 9182TIP3    H251742   0.026   6.280   1.419 -2.1018  1.4253 -0.8141
 9183TIP3   OH251743   5.554   2.067   0.716 -0.2972  0.0606 -0.2534
 9183TIP3    H151744   5.515   2.004   0.777 -0.0119  1.4271  1.4236
 9183TIP3    H251745   5.514   2.151   0.739  2.3829  1.2478  0.4994
 9184TIP3   OH251746   6.553   4.814   2.470 -0.5797  0.2189 -0.3896
 9184TIP3    H151747   6.550   4.898   2.423 -0.0010  0.6021  0.2323
 9184TIP3    H251748   6.533   4.749   2.404 -2.6860  0.9576 -0.5562
 9185TIP3   OH251749   3.399   1.762   1.468  0.3969 -0.1640  0.3272
 9185TIP3    H151750   3.465   1.694   1.479  1.5847  0.8814 -0.1280
 9185TIP3    H251751   3.316   1.718   1.488  1.1701 -1.6115  0.4988
 9186TIP3   OH251752   5.704   4.110   2.842 -0.1189 -0.1355 -0.4997
 9186TIP3    H151753   5.724   4.090   2.934  0.3641 -0.8907 -0.7557
 9186TIP3    H251754   5.661   4.195   2.845  0.2411  0.0317  0.3936
 9187TIP3   OH251755   4.951   2.549   0.663 -0.5267  0.6797 -0.6267
 9187TIP3    H151756   4.898   2.473   0.638 -1.0862  0.4512  1.1332
 9187TIP3    H251757   4.909   2.623   0.619 -0.7336  0.1433 -1.3501
 9188TIP3   OH251758   2.523   6.388   1.226 -0.3144 -0.4088  0.0808
 9188TIP3    H151759   2.492   6.456   1.166 -0.7477  0.0554  0.8175
 9188TIP3    H251760   2.598   6.349   1.181 -0.4868  0.0855 -0.6575
 9189TIP3   OH251761   3.715   3.120   0.909 -0.0633  0.6766 -0.0407
 9189TIP3    H151762   3.784   3.183   0.929 -0.7882  1.9699 -1.4389
 9189TIP3    H251763   3.728   3.098   0.817 -0.3203 -0.5991  0.2105
 9190TIP3   OH251764   0.282   1.308   1.603  0.0331 -0.0626  0.2533
 9190TIP3    H151765   0.268   1.382   1.543 -0.7566  0.9982  1.6826
 9190TIP3    H251766   0.198   1.263   1.605 -0.5010  0.9302  1.8420
 9191TIP3   OH251767   0.537   3.915   1.352 -0.0380  0.3001 -0.2872
 9191TIP3    H151768   0.564   3.963   1.430 -1.9021  1.6657 -0.4137
 9191TIP3    H251769   0.606   3.850   1.338  1.6550  1.7552  0.9498
 9192TIP3   OH251770   6.004   4.354   1.725 -0.5914  0.1486  0.3662
 9192TIP3    H151771   5.954   4.312   1.655 -0.3740  0.2768  0.1280
 9192TIP3    H251772   5.970   4.443   1.729  0.1290  0.4732 -0.3254
 9193TIP3   OH251773   2.203   2.973   2.206  0.5962 -0.3166 -0.0771
 9193TIP3    H151774   2.180   2.899   2.150 -0.7364  0.8910 -1.1886
 9193TIP3    H251775   2.135   2.975   2.273  1.4394 -0.9394  0.8306
 9194TIP3   OH251776   3.235   0.304   1.808  0.1821  0.1876  0.1777
 9194TIP3    H151777   3.222   0.259   1.891 -2.5567 -0.5019 -0.5268
 9194TIP3    H251778   3.159   0.280   1.755  0.0203  3.3459 -1.2932
 9195TIP3   OH251779   0.335   4.804   1.811  0.0220 -0.4107 -0.1718
 9195TIP3    H151780   0.394   4.810   1.736  0.6711  0.6439  0.4025
 9195TIP3    H251781   0.357   4.880   1.865 -0.1740 -1.3432  1.2701
 9196TIP3   OH251782   4.365   7.036   2.679  0.2496  0.0333 -0.1109
 9196TIP3    H151783   4.415   7.097   2.624  0.2269  0.6940  0.5813
 9196TIP3    H251784   4.404   7.045   2.766 -2.4750  2.3208  1.0508
 9197TIP3   OH251785   4.599   2.235   2.100  0.4371  0.0096 -0.0353
 9197TIP3    H151786   4.620   2.318   2.142  1.0828  0.6593 -1.5607
 9197TIP3    H251787   4.522   2.253   2.047  0.9233 -0.1849 -0.8332
 9198TIP3   OH251788   0.330   4.684   0.560 -0.3855  0.6466 -0.5074
 9198TIP3    H151789   0.317   4.740   0.484 -0.4195 -1.1094 -1.8456
 9198TIP3    H251790   0.248   4.690   0.608 -0.3245  1.8581 -0.5079
 9199TIP3   OH251791   3.383   5.693   1.027  0.4143 -0.3540 -0.3568
 9199TIP3    H151792   3.344   5.768   1.071  2.4988  0.4264  0.3151
 9199TIP3    H251793   3.457   5.730   0.978  0.2874 -1.7081 -1.6247
 9200TIP3   OH251794   1.088   0.804   1.667  0.2513  0.5532  0.2715
 9200TIP3    H151795   1.027   0.745   1.710 -1.4667  2.3188  0.3823
 9200TIP3    H251796   1.098   0.767   1.579 -0.5039 -0.0960  0.4391
 9201TIP3   OH251797   6.400   0.864   1.581 -0.2007 -0.5371 -0.1344
 9201TIP3    H151798   6.426   0.798   1.645 -0.6196 -0.1343  0.4557
 9201TIP3    H251799   6.317   0.898   1.613  1.1523  2.0222  0.9414
 9202TIP3   OH251800   3.380   4.404   2.385 -0.5458  0.2147 -0.7825
 9202TIP3    H151801   3.373   4.397   2.480 -0.2014  1.9973 -0.5964
 9202TIP3    H251802   3.290   4.404   2.354 -0.6751  0.2683 -0.4109
 9203TIP3   OH251803   0.715   2.768   1.551  0.0471  0.1289 -0.3325
 9203TIP3    H151804   0.800   2.800   1.522  0.0548 -1.2976 -2.0529
 9203TIP3    H251805   0.704   2.804   1.639  1.9882  1.1182 -0.4537
 9204TIP3   OH251806   0.812   4.874   2.549  0.5050 -0.0988  0.6403
 9204TIP3    H151807   0.899   4.903   2.520  0.2726 -0.8529 -0.9264
 9204TIP3    H251808   0.752   4.906   2.482 -0.5948  1.1640  2.1393
 9205TIP3   OH251809   2.002   0.846   0.631  0.6361 -0.4066  0.1485
 9205TIP3    H151810   1.962   0.800   0.704 -0.6150  1.5563  0.7795
 9205TIP3    H251811   2.090   0.868   0.661 -0.0108  0.7617  1.2814
 9206TIP3   OH251812   0.724   2.016   1.014  0.8709  0.1297 -0.0123
 9206TIP3    H151813   0.666   2.071   0.960  2.2997  1.5999 -0.1414
 9206TIP3    H251814   0.672   1.938   1.034 -0.0659  0.0090 -2.6323
 9207TIP3   OH251815   3.614   7.073   3.348 -0.0011 -0.5994  0.3769
 9207TIP3    H151816   3.578   7.158   3.375  1.2817 -0.1715  0.8303
 9207TIP3    H251817   3.708   7.088   3.343  0.1534 -1.7498 -0.5193
 9208TIP3   OH251818   1.223   2.775   2.964 -0.7580 -0.3228 -0.5100
 9208TIP3    H151819   1.239   2.760   2.871 -0.1295 -0.2503 -0.4176
 9208TIP3    H251820   1.285   2.844   2.988 -0.8798 -0.3800 -0.0284
 9209TIP3   OH251821   3.897   5.681   1.656 -0.0551 -0.1985 -0.5123
 9209TIP3    H151822   3.927   5.723   1.736  0.7850  0.1446 -0.9823
 9209TIP3    H251823   3.867   5.753   1.601 -0.6786 -0.4362 -0.4832
 9210TIP3   OH251824   3.697   3.798   2.492 -0.1394  0.8037 -0.4301
 9210TIP3    H151825   3.650   3.715   2.484  1.7830 -0.3768  0.0392
 9210TIP3    H251826   3.636   3.855   2.539 -0.2324 -1.4628  2.4682
 9211TIP3   OH251827   6.151   5.509   1.562 -0.6618 -0.1462  0.0897
 9211TIP3    H151828   6.225   5.449   1.552  0.2111  0.5800  1.7303
 9211TIP3    H251829   6.181   5.590   1.519  0.0307  0.5270  1.7451
 9212TIP3   OH251830   6.086   4.946   0.803  0.0624 -0.5005 -0.8843
 9212TIP3    H151831   6.104   5.028   0.757  0.8229 -0.9293 -1.3607
 9212TIP3    H251832   6.154   4.940   0.869 -0.3333 -0.4763 -0.4663
 9213TIP3   OH251833   5.530   0.734   1.827  0.4434  0.6058 -0.0648
 9213TIP3    H151834   5.496   0.702   1.744 -0.0970  0.9932 -0.0013
 9213TIP3    H251835   5.602   0.675   1.848  0.2989  0.2357 -0.5873
 9214TIP3   OH251836   5.326   5.663   0.963  0.6504 -0.2868 -0.3756
 9214TIP3    H151837   5.273   5.732   1.003 -1.7826 -1.1924 -1.8677
 9214TIP3    H251838   5.328   5.594   1.029 -1.8659 -1.0738 -1.0327
 9215TIP3   OH251839   0.363   2.514   1.461  0.2501 -0.1188 -0.1375
 9215TIP3    H151840   0.410   2.482   1.538 -0.8248 -1.4169  0.0108
 9215TIP3    H251841   0.271   2.506   1.485 -0.0794  0.4164 -1.2007
 9216TIP3   OH251842   5.694   5.522   1.023 -0.5206  0.2495 -0.1081
 9216TIP3    H151843   5.663   5.432   1.009 -1.5431  0.6483 -0.4766
 9216TIP3    H251844   5.696   5.561   0.936  0.3855  0.4491 -0.0080
 9217TIP3   OH251845   4.105   1.429   2.340 -0.0629  0.1281  0.5063
 9217TIP3    H151846   4.015   1.396   2.335 -0.2603  0.7525 -0.2343
 9217TIP3    H251847   4.147   1.374   2.406 -0.2230 -1.9488 -1.0241
 9218TIP3   OH251848   4.547   4.454   0.916 -0.1429  0.1292  0.4101
 9218TIP3    H151849   4.632   4.452   0.874 -0.0098  0.3128  0.6714
 9218TIP3    H251850   4.531   4.364   0.943 -0.1140  0.0612  0.2034
 9219TIP3   OH251851   2.215   7.153   2.900 -0.0985  0.5369 -0.1352
 9219TIP3    H151852   2.234   7.063   2.926 -0.4441  0.8508  1.2692
 9219TIP3    H251853   2.288   7.204   2.935  0.3968  0.7544 -1.4178
 9220TIP3   OH251854   6.868   5.773   1.016 -0.0775 -0.0201  0.1909
 9220TIP3    H151855   6.929   5.750   0.946 -0.2314  0.2133 -0.0215
 9220TIP3    H251856   6.877   5.702   1.080  0.2390 -0.1104  0.0491
 9221TIP3   OH251857   3.269   4.861   0.655  0.0991 -0.3243 -0.1250
 9221TIP3    H151858   3.190   4.808   0.654 -2.4021  2.9950  1.1993
 9221TIP3    H251859   3.274   4.899   0.567 -0.8947  0.7924  0.2644
 9222TIP3   OH251860   3.728   3.016   1.514 -0.7402 -0.0463  0.5572
 9222TIP3    H151861   3.675   2.961   1.572  1.3978 -2.5784  0.3070
 9222TIP3    H251862   3.747   2.960   1.439  2.0916  0.7773  0.5652
 9223TIP3   OH251863   6.179   1.392   1.216 -0.5337 -0.6340 -0.0452
 9223TIP3    H151864   6.273   1.393   1.236 -0.3452 -0.1677 -0.9008
 9223TIP3    H251865   6.175   1.366   1.124 -1.1386  0.9826 -0.5106
 9224TIP3   OH251866   5.815   3.513   2.253 -0.6327 -0.1212 -0.4156
 9224TIP3    H151867   5.824   3.608   2.267  0.8292 -0.2398 -0.4403
 9224TIP3    H251868   5.742   3.488   2.311  0.2883  0.6950  1.1751
 9225TIP3   OH251869   2.457   0.436   0.699  0.2832  0.6965  0.1477
 9225TIP3    H151870   2.541   0.427   0.654  0.1268  0.5743 -0.1223
 9225TIP3    H251871   2.393   0.402   0.637  0.1683 -0.4055  0.8438
 9226TIP3   OH251872   5.284   7.535   2.143  0.0346 -0.0396  0.5135
 9226TIP3    H151873   5.219   7.481   2.188 -0.5098 -2.2026 -2.5595
 9226TIP3    H251874   5.233   7.605   2.102 -0.2133 -0.8718 -0.6514
 9227TIP3   OH251875   1.734   1.091   1.390  0.5357 -0.0415  0.5813
 9227TIP3    H151876   1.757   1.148   1.317 -0.4591 -0.2577  0.0847
 9227TIP3    H251877   1.723   1.151   1.464 -1.5364  0.5942 -0.1655
 9228TIP3   OH251878   5.782   4.636   2.174  0.3332  0.2621  0.0482
 9228TIP3    H151879   5.812   4.705   2.233 -0.5070 -0.4424  1.3627
 9228TIP3    H251880   5.728   4.579   2.230  0.8481 -1.3501 -1.0272
 9229TIP3   OH251881   3.792   1.357   1.108 -0.5543 -0.2040 -0.2500
 9229TIP3    H151882   3.783   1.333   1.016  0.4079  2.3332 -1.0965
 9229TIP3    H251883   3.881   1.392   1.115 -1.4475  1.9799  1.0042
 9230TIP3   OH251884   5.425   0.289   0.867 -0.1935  0.4423 -0.6257
 9230TIP3    H151885   5.395   0.292   0.776 -0.0321  0.4772 -0.6793
 9230TIP3    H251886   5.514   0.254   0.861 -0.0089  0.8893 -0.5266
 9231TIP3   OH251887   2.893   3.547   0.600  0.0237 -0.7037  0.7640
 9231TIP3    H151888   2.886   3.452   0.590  0.3680 -0.6277 -0.3804
 9231TIP3    H251889   2.811   3.582   0.564  0.3297 -0.5228  0.2294
 9232TIP3   OH251890   3.020   2.316   0.890  0.0526 -0.4438 -0.0610
 9232TIP3    H151891   3.104   2.361   0.877 -0.9923  1.7262  0.3022
 9232TIP3    H251892   2.954   2.383   0.873 -1.6052 -1.7180  1.0463
 9233TIP3   OH251893   6.109   7.356   0.607  0.5971 -0.1092  0.2423
 9233TIP3    H151894   6.025   7.358   0.562  0.2550 -0.7629  0.8302
 9233TIP3    H251895   6.116   7.442   0.649  0.1125 -0.1463  0.3985
 9234TIP3   OH251896   2.791   2.736   1.042  0.2815  0.4591  0.5328
 9234TIP3    H151897   2.720   2.734   1.107  0.2374 -0.3248  0.4715
 9234TIP3    H251898   2.808   2.829   1.028 -1.1416  0.6749  0.1061
 9235TIP3   OH251899   6.609   1.070   1.703  0.6216 -0.5240 -0.0398
 9235TIP3    H151900   6.524   1.031   1.683  0.3301 -1.3111  2.4267
 9235TIP3    H251901   6.616   1.067   1.798  1.9298  2.6972  0.1189
 9236TIP3   OH251902   5.269   5.915   1.084  0.7324 -0.4673  0.5099
 9236TIP3    H151903   5.278   5.962   1.167 -2.6550 -1.9700  1.8887
 9236TIP3    H251904   5.254   5.985   1.019  1.6115  0.6090  1.4110
 9237TIP3   OH251905   0.075   4.226   1.056 -0.5837  0.4419  0.1463
 9237TIP3    H151906   0.119   4.143   1.037 -2.0656 -0.3248 -0.1470
 9237TIP3    H251907   0.076   4.274   0.973  0.1662  0.6808  0.2852
 9238TIP3   OH251908   2.523   1.072   2.285  0.2115 -0.3017 -0.2093
 9238TIP3    H151909   2.578   1.148   2.269  2.0427 -1.4237  0.4658
 9238TIP3    H251910   2.460   1.072   2.213 -0.1792  2.0977  0.0605
 9239TIP3   OH251911   3.891   6.909   1.601 -0.0809 -0.5246 -0.0959
 9239TIP3    H151912   3.851   6.842   1.546 -1.7502  0.2314  0.1505
 9239TIP3    H251913   3.836   6.986   1.590  0.7680  0.2752  1.0068
 9240TIP3   OH251914   7.666   7.542   0.987  0.0643  0.1316 -0.1667
 9240TIP3    H151915   7.756   7.562   1.011  0.2478 -2.2733  1.3862
 9240TIP3    H251916   7.660   7.447   0.989 -3.5664  0.1203  4.2626
 9241TIP3   OH251917   1.642   3.664   2.143  0.6044 -0.1599  0.2714
 9241TIP3    H151918   1.657   3.742   2.196 -0.4803 -0.0050  0.3700
 9241TIP3    H251919   1.630   3.593   2.206  0.9216 -0.2837  0.1952
 9242TIP3   OH251920   6.340   3.882   1.847  0.1303  0.0016  0.3621
 9242TIP3    H151921   6.325   3.811   1.784 -1.9605  0.2112  0.5285
 9242TIP3    H251922   6.411   3.851   1.902  0.0829 -1.4262 -0.3361
 9243TIP3   OH251923   6.203   5.699   2.008  0.8530  0.0267 -0.1733
 9243TIP3    H151924   6.216   5.764   1.939  1.4866  0.4256  0.3115
 9243TIP3    H251925   6.239   5.618   1.972  0.0443 -0.0651 -0.7867
 9244TIP3   OH251926   1.757   2.178   1.359  0.4921 -0.0357 -0.2107
 9244TIP3    H151927   1.767   2.111   1.291  0.7405  0.4042 -0.6141
 9244TIP3    H251928   1.788   2.258   1.318 -1.4528  0.7019 -0.3444
 9245TIP3   OH251929   7.617   1.190   2.966 -0.2980  0.6998  0.5286
 9245TIP3    H151930   7.558   1.166   3.038 -0.2668 -0.8344  0.0844
 9245TIP3    H251931   7.558   1.209   2.893 -0.3253  2.1439  0.9037
 9246TIP3   OH251932   5.671   2.934   1.167 -0.0989 -0.1681 -0.0282
 9246TIP3    H151933   5.615   2.869   1.125  0.1180 -0.5227  0.2177
 9246TIP3    H251934   5.612   2.987   1.220 -0.4451  0.5821 -1.1280
 9247TIP3   OH251935   1.138   5.370   1.978 -0.0408 -0.3756 -0.6798
 9247TIP3    H151936   1.072   5.382   2.046  0.8773  0.0485  0.1567
 9247TIP3    H251937   1.093   5.393   1.897 -0.6227  0.9250 -0.0119
 9248TIP3   OH251938   5.439   7.470   0.543 -0.1061  0.1982  0.2860
 9248TIP3    H151939   5.487   7.474   0.626 -1.0815  1.3002  0.8218
 9248TIP3    H251940   5.429   7.561   0.516 -0.5476 -0.1002 -0.6078
 9249TIP3   OH251941   5.365   2.474   1.422  0.1424  0.7941 -0.1712
 9249TIP3    H151942   5.438   2.419   1.394 -0.3571 -0.2620  0.5257
 9249TIP3    H251943   5.289   2.439   1.375 -0.2737  0.5377  0.6674
 9250TIP3   OH251944   4.042   7.327   1.661  0.6080 -0.1896  0.2374
 9250TIP3    H151945   4.079   7.239   1.661 -0.7229 -0.8173 -1.4855
 9250TIP3    H251946   3.949   7.314   1.640  0.3191  1.5990  0.2231
 9251TIP3   OH251947   6.169   2.318   1.431 -0.1832 -0.1475 -0.2597
 9251TIP3    H151948   6.216   2.344   1.510 -0.7049  1.7938 -0.5449
 9251TIP3    H251949   6.237   2.280   1.375  0.6561  0.6534  0.1844
 9252TIP3   OH251950   4.552   4.614   2.447  0.2664 -0.2409  0.3604
 9252TIP3    H151951   4.571   4.522   2.469 -2.0451 -0.7515  0.5388
 9252TIP3    H251952   4.547   4.658   2.532 -0.2215 -0.3325  0.3852
 9253TIP3   OH251953   0.988   6.804   1.179  0.1520 -0.2629 -0.6644
 9253TIP3    H151954   1.081   6.783   1.172  0.3350  0.0794  0.5435
 9253TIP3    H251955   0.980   6.890   1.137  0.8250  0.7806  1.2313
 9254TIP3   OH251956   3.870   0.349   0.820  0.3258  0.2253  0.2541
 9254TIP3    H151957   3.926   0.348   0.742 -2.9623 -1.6306 -2.3607
 9254TIP3    H251958   3.886   0.265   0.862  0.1689  0.0852  0.0349
 9255TIP3   OH251959   5.101   6.030   3.388  0.4592 -0.2669  0.0582
 9255TIP3    H151960   5.168   5.962   3.379  1.6563  0.7838  0.7126
 9255TIP3    H251961   5.147   6.103   3.430 -0.4681  1.3947 -1.6695
 9256TIP3   OH251962   1.060   1.706   0.542 -0.2799 -0.1693 -0.3135
 9256TIP3    H151963   0.989   1.645   0.562  1.1207 -1.5596  0.6436
 9256TIP3    H251964   1.118   1.657   0.483  0.0782  0.8034 -0.7880
 9257TIP3   OH251965   3.924   4.686   2.288  0.1199 -0.0337  0.4023
 9257TIP3    H151966   3.901   4.729   2.370  0.5674  0.8683  0.0757
 9257TIP3    H251967   3.841   4.678   2.241 -0.1276 -0.5053  0.9173
 9258TIP3   OH251968   3.022   2.920   3.040 -0.1910 -0.1123 -0.2324
 9258TIP3    H151969   3.010   2.837   2.993  2.9990  0.2148 -1.8601
 9258TIP3    H251970   2.933   2.948   3.062 -1.5213 -2.7333 -1.7901
 9259TIP3   OH251971   5.937   3.003   1.509  0.0791 -0.6697 -0.4002
 9259TIP3    H151972   5.956   2.964   1.423  1.8726 -1.1210  0.1568
 9259TIP3    H251973   5.902   3.090   1.488 -0.1868 -1.0474 -1.5986
 9260TIP3   OH251974   3.475   7.532   0.551 -0.3287 -0.7170 -0.3358
 9260TIP3    H151975   3.535   7.501   0.484  0.6854  0.1862  0.1205
 9260TIP3    H251976   3.531   7.570   0.618 -1.3628 -0.8276  0.6284
 9261TIP3   OH251977   6.818   3.135   1.292 -0.4478  0.0823  0.2478
 9261TIP3    H151978   6.808   3.135   1.388  0.5963 -0.0977  0.3638
 9261TIP3    H251979   6.731   3.111   1.260 -0.6599 -0.4713  1.1707
 9262TIP3   OH251980   4.849   3.915   1.910 -0.0204  0.3406  0.5531
 9262TIP3    H151981   4.857   3.830   1.954  0.2594  0.4512  0.7190
 9262TIP3    H251982   4.814   3.973   1.978 -0.9719  0.1798  0.2217
 9263TIP3   OH251983   4.810   0.787   2.699 -0.1448 -0.1449 -0.0717
 9263TIP3    H151984   4.824   0.800   2.605 -0.2750  2.1161  0.1526
 9263TIP3    H251985   4.882   0.732   2.728 -0.5551 -1.5500 -1.6237
 9264TIP3   OH251986   2.694   7.603   0.976 -0.3610 -0.0885 -0.1866
 9264TIP3    H151987   2.744   7.646   0.907  1.3669 -2.6452 -0.6820
 9264TIP3    H251988   2.603   7.606   0.946  0.3256 -1.0249 -2.5691
 9265TIP3   OH251989   4.468   6.056   1.635  0.3109 -0.3697 -0.5308
 9265TIP3    H151990   4.451   6.027   1.725  0.3797 -2.3313 -1.1067
 9265TIP3    H251991   4.559   6.086   1.637  0.0915  0.2724  0.2108
 9266TIP3   OH251992   7.307   4.169   0.483 -0.6368 -0.3096  0.2393
 9266TIP3    H151993   7.368   4.240   0.505  0.4680 -1.6378  1.6582
 9266TIP3    H251994   7.229   4.188   0.536 -0.9799  0.6387 -0.5531
 9267TIP3   OH251995   5.561   6.172   0.993  0.4791 -0.1152 -0.3874
 9267TIP3    H151996   5.537   6.105   0.929  0.0805  0.3506 -0.7264
 9267TIP3    H251997   5.488   6.234   0.993  0.8687  0.3566 -0.1180
 9268TIP3   OH251998   3.397   4.784   1.578 -0.2618 -0.0788 -0.8995
 9268TIP3    H151999   3.386   4.820   1.666 -0.3207 -1.1186 -0.4677
 9268TIP3    H252000   3.311   4.746   1.558  0.3210 -1.6289 -0.5684
 9269TIP3   OH252001   6.845   5.338   0.489  0.2628 -0.2930 -0.1751
 9269TIP3    H152002   6.851   5.394   0.567  0.1416 -0.1054 -0.2984
 9269TIP3    H252003   6.772   5.280   0.507  0.0819 -0.0889 -0.2512
 9270TIP3   OH252004   4.500   1.037   2.100  0.0701 -0.3875  0.2120
 9270TIP3    H152005   4.574   1.093   2.074 -0.2262  0.1692  0.5602
 9270TIP3    H252006   4.436   1.097   2.137  0.2504 -1.0873  1.7498
 9271TIP3   OH252007   7.233   6.742   2.262 -0.6088  0.7022  0.1452
 9271TIP3    H152008   7.317   6.767   2.302 -0.2653  0.9841 -0.7117
 9271TIP3    H252009   7.258   6.700   2.180 -1.2611 -0.7317  0.6446
 9272TIP3   OH252010   6.689   7.573   0.684  0.1024  0.8015 -0.0920
 9272TIP3    H152011   6.768   7.626   0.693  0.4495  0.7181 -2.0915
 9272TIP3    H252012   6.719   7.493   0.641 -0.8906  0.2927  0.1387
 9273TIP3   OH252013   7.357   0.404   1.550  0.0861  0.1373 -0.2575
 9273TIP3    H152014   7.304   0.324   1.547  0.1560  0.0220  0.9603
 9273TIP3    H252015   7.443   0.374   1.580  0.2435  0.6126 -0.2342
 9274TIP3   OH252016   5.632   7.584   2.015  0.4024 -0.0097  0.0933
 9274TIP3    H152017   5.567   7.599   2.084 -2.1799  0.3170 -2.2317
 9274TIP3    H252018   5.648   7.489   2.018  0.2545 -0.0206  1.0111
 9275TIP3   OH252019   5.582   6.833   2.119 -0.7638 -0.6793 -0.0769
 9275TIP3    H152020   5.572   6.927   2.106  1.1347 -0.3583  0.4363
 9275TIP3    H252021   5.568   6.820   2.213  0.7438 -0.6086  0.1777
 9276TIP3   OH252022   0.359   6.243   3.225 -0.5035  0.2468  0.3276
 9276TIP3    H152023   0.407   6.201   3.153 -0.7666 -1.0467  0.8838
 9276TIP3    H252024   0.398   6.331   3.231  2.9900 -1.1961  1.7690
 9277TIP3   OH252025   0.693   7.263   2.452 -0.9189  0.6848  0.4129
 9277TIP3    H152026   0.727   7.290   2.537 -2.5012  0.5275  1.1458
 9277TIP3    H252027   0.607   7.224   2.472 -1.2064  0.3838 -1.2261
 9278TIP3   OH252028   4.375   5.823   1.204 -0.0910  0.0092 -0.1428
 9278TIP3    H152029   4.292   5.816   1.251  0.7646  3.5305  2.2989
 9278TIP3    H252030   4.419   5.740   1.222 -1.5187 -0.3812  1.9068
 9279TIP3   OH252031   0.014   4.597   2.622 -0.0997 -0.0315 -0.3218
 9279TIP3    H152032  -0.015   4.531   2.685 -1.5489  1.2181  0.3800
 9279TIP3    H252033  -0.013   4.680   2.661  0.9866  0.9416 -1.5505
 9280TIP3   OH252034   1.499   0.686   2.653  0.1916 -0.1287 -0.0821
 9280TIP3    H152035   1.482   0.649   2.740 -0.8317 -0.4678 -0.4229
 9280TIP3    H252036   1.500   0.781   2.668 -1.4415 -0.1045  0.0711
 9281TIP3   OH252037   2.771   3.812   3.210 -0.4545  0.1299  0.4227
 9281TIP3    H152038   2.825   3.831   3.134  0.5786  1.0453  1.3608
 9281TIP3    H252039   2.744   3.721   3.199  0.7165 -0.1242 -0.4058
 9282TIP3   OH252040   4.688   2.856   1.275 -0.1474 -0.5860 -0.3269
 9282TIP3    H152041   4.731   2.912   1.211 -0.2307 -0.2110 -0.0588
 9282TIP3    H252042   4.641   2.916   1.332  3.0334 -0.4728  2.5260
 9283TIP3   OH252043   4.640   0.696   1.106  0.5833  0.1802  0.7686
 9283TIP3    H152044   4.703   0.625   1.094 -0.7523 -0.8917 -0.3079
 9283TIP3    H252045   4.597   0.676   1.189  0.9123  0.3000  0.9676
 9284TIP3   OH252046   1.029   7.027   1.005  0.1951  0.1180  0.3261
 9284TIP3    H152047   1.038   6.975   0.925  0.8349  1.3084 -0.4192
 9284TIP3    H252048   1.119   7.049   1.029 -0.0744  1.3099  0.3035
 9285TIP3   OH252049   5.696   1.787   0.871  0.1011  0.0522  0.3886
 9285TIP3    H152050   5.709   1.829   0.955 -1.1746 -1.4897  1.4201
 9285TIP3    H252051   5.601   1.784   0.859  0.2467  0.0938 -1.0284
 9286TIP3   OH252052   5.028   0.657   1.233  0.0969  0.2819  0.0746
 9286TIP3    H152053   4.982   0.628   1.154 -0.5357  1.4892 -0.0315
 9286TIP3    H252054   5.075   0.580   1.263 -0.6543 -0.5390 -0.7803
 9287TIP3   OH252055   3.291   7.669   3.379  0.2415 -0.3169  0.6477
 9287TIP3    H152056   3.230   7.713   3.438  0.8897  1.1452  0.2564
 9287TIP3    H252057   3.252   7.680   3.292  1.5596  1.6083  0.2495
 9288TIP3   OH252058   0.731   5.462   1.393 -0.7142 -0.0329 -0.4122
 9288TIP3    H152059   0.654   5.442   1.341 -0.2353 -3.1785 -0.0688
 9288TIP3    H252060   0.761   5.547   1.359 -1.9272 -0.6764 -3.4061
 9289TIP3   OH252061   2.583   1.336   1.225  0.1388 -0.0428 -0.3675
 9289TIP3    H152062   2.518   1.325   1.155  0.4098 -0.8176 -0.5155
 9289TIP3    H252063   2.532   1.357   1.303 -0.3022 -0.7437 -0.4625
 9290TIP3   OH252064   5.561   2.300   1.270 -0.2853 -0.1290 -0.1258
 9290TIP3    H152065   5.514   2.222   1.239 -3.1845 -0.1335  3.5521
 9290TIP3    H252066   5.589   2.276   1.359  2.1047  1.8272 -0.2598
 9291TIP3   OH252067   2.374   7.303   2.055  0.4616 -0.4627 -0.4097
 9291TIP3    H152068   2.452   7.303   2.000  0.6373 -1.6204 -0.1912
 9291TIP3    H252069   2.389   7.372   2.119  1.0243 -0.2618 -0.7554
 9292TIP3   OH252070   4.322   1.480   2.561 -0.6399 -0.2993  0.1444
 9292TIP3    H152071   4.247   1.539   2.572 -1.4835 -0.5174 -3.1644
 9292TIP3    H252072   4.284   1.393   2.571 -0.2015 -0.3653  1.2718
 9293TIP3   OH252073   7.460   4.928   1.811 -0.0685 -0.1241 -0.4757
 9293TIP3    H152074   7.523   4.899   1.745  0.6362  1.6041 -0.6049
 9293TIP3    H252075   7.476   5.022   1.820 -1.7793  0.1190  0.4219
 9294TIP3   OH252076   3.580   6.787   0.787 -0.6341  0.0662 -0.1907
 9294TIP3    H152077   3.644   6.804   0.718  0.3524  0.4844  0.7996
 9294TIP3    H252078   3.497   6.818   0.751 -0.3642 -0.7791 -1.6165
 9295TIP3   OH252079   1.684   3.488   1.375 -0.0325 -0.5152  0.4380
 9295TIP3    H152080   1.778   3.474   1.364  0.1496  0.7737  0.1517
 9295TIP3    H252081   1.674   3.505   1.469  0.0610 -0.3951  0.4271
 9296TIP3   OH252082   2.095   0.323   3.095 -0.9211  0.1531 -0.2946
 9296TIP3    H152083   2.147   0.383   3.040  0.3052 -0.8214 -0.2318
 9296TIP3    H252084   2.143   0.318   3.177 -0.2602 -1.9382 -0.7649
 9297TIP3   OH252085   1.633   0.490   0.345 -0.0074  0.0836  0.4816
 9297TIP3    H152086   1.568   0.425   0.317  0.7092 -0.7263  0.6609
 9297TIP3    H252087   1.717   0.453   0.320  0.4318  0.8639  0.7540
 9298TIP3   OH252088   1.848   3.248   2.568  0.2412  0.1392 -0.4568
 9298TIP3    H152089   1.773   3.229   2.512 -0.8337  1.7697  0.3463
 9298TIP3    H252090   1.811   3.253   2.656  1.7384 -1.4624  0.3355
 9299TIP3   OH252091   0.985   1.850   2.999 -0.3293  0.3163  0.2522
 9299TIP3    H152092   1.021   1.838   3.087 -0.2445  1.6481  0.4251
 9299TIP3    H252093   0.965   1.761   2.968  0.4787 -0.2363  1.2567
 9300TIP3   OH252094   7.581   5.894   2.858 -0.7309 -0.1418 -0.7123
 9300TIP3    H152095   7.554   5.819   2.910  0.7763 -2.4880 -3.0608
 9300TIP3    H252096   7.509   5.908   2.796 -0.1488 -1.0572 -1.6242
 9301TIP3   OH252097   3.940   0.093   0.880 -0.4366  0.2362 -0.1842
 9301TIP3    H152098   3.933   0.007   0.920 -0.4938 -0.1413 -0.9872
 9301TIP3    H252099   4.033   0.102   0.858 -0.4248  0.3935 -0.0706
 9302TIP3   OH252100   7.263   1.659   0.883  0.0071 -0.8312 -0.1697
 9302TIP3    H152101   7.342   1.656   0.937  0.0939  1.4540 -0.0824
 9302TIP3    H252102   7.272   1.584   0.824  1.5035 -1.4771  0.8145
 9303TIP3   OH252103   5.165   3.096   1.527 -0.1968 -0.3437  1.0099
 9303TIP3    H152104   5.192   3.158   1.595  2.7000 -1.5677  1.1323
 9303TIP3    H252105   5.125   3.024   1.574  0.5386 -0.5610  1.3214
 9304TIP3   OH252106   3.890   4.794   0.680  0.2876  0.0803 -0.0310
 9304TIP3    H152107   3.862   4.820   0.767  0.6517 -2.0755  0.8042
 9304TIP3    H252108   3.945   4.717   0.695 -1.0047 -1.3928 -2.2560
 9305TIP3   OH252109   0.051   1.220   1.739  0.2122  0.6920  0.2141
 9305TIP3    H152110  -0.028   1.261   1.704 -0.0313 -1.0407 -1.3797
 9305TIP3    H252111   0.028   1.128   1.748  0.7371  0.7718  3.7280
 9306TIP3   OH252112   6.699   2.419   1.959 -0.4805  0.2172 -0.3512
 9306TIP3    H152113   6.777   2.443   2.010 -1.0324  1.1444  0.0669
 9306TIP3    H252114   6.641   2.378   2.022 -0.6881  0.3110 -0.4825
 9307TIP3   OH252115   5.424   3.003   1.490  0.5388  0.6111  0.4174
 9307TIP3    H152116   5.449   2.921   1.533  1.0549  0.1505 -0.7169
 9307TIP3    H252117   5.332   3.016   1.515  0.1146 -0.9037 -0.2566
 9308TIP3   OH252118   2.958   3.895   2.517  0.5080  0.1619  0.8781
 9308TIP3    H152119   2.983   3.942   2.437 -0.7631  0.5584  0.6972
 9308TIP3    H252120   2.905   3.957   2.567 -1.2265 -1.0332  0.6318
 9309TIP3   OH252121   0.924   2.864   2.713 -0.1041 -0.0877 -0.0195
 9309TIP3    H152122   0.961   2.901   2.794 -0.8386  0.2314  0.1771
 9309TIP3    H252123   0.832   2.890   2.715 -0.7615 -2.2231  0.3096
 9310TIP3   OH252124   5.260   4.690   0.968 -0.4254 -0.8653 -0.3173
 9310TIP3    H152125   5.304   4.672   1.051 -0.6514  1.1763  0.2809
 9310TIP3    H252126   5.243   4.784   0.969  1.7893 -0.2477 -3.7525
 9311TIP3   OH252127   5.398   0.062   0.509 -0.0372  0.3085  0.3991
 9311TIP3    H152128   5.311   0.090   0.481 -0.2613 -1.7245 -1.2201
 9311TIP3    H252129   5.454   0.137   0.489 -1.1817  1.0928  0.0010
 9312TIP3   OH252130   4.294   3.185   1.274  0.0978  0.3152 -0.0318
 9312TIP3    H152131   4.227   3.145   1.219 -0.1806 -0.4143  0.8213
 9312TIP3    H252132   4.311   3.121   1.343  0.5127  1.1610  0.6787
 9313TIP3   OH252133   5.197   0.452   1.279  0.1833  0.3210 -0.0502
 9313TIP3    H152134   5.244   0.368   1.270 -1.3128 -0.8693  2.2770
 9313TIP3    H252135   5.266   0.518   1.273  1.4620 -1.0416 -1.6783
 9314TIP3   OH252136   4.442   2.207   1.338 -0.4363 -0.4058  0.1725
 9314TIP3    H152137   4.350   2.222   1.318 -0.1831 -0.0551 -0.8205
 9314TIP3    H252138   4.461   2.120   1.303 -1.0196 -1.6230  2.7358
 9315TIP3   OH252139   5.575   4.384   1.613 -0.1889 -0.4722 -0.1582
 9315TIP3    H152140   5.529   4.358   1.693 -0.1264  1.7684  0.6817
 9315TIP3    H252141   5.550   4.317   1.548 -1.2994 -1.6086  1.3539
 9316TIP3   OH252142   5.219   7.121   1.952  0.7163  0.3428 -0.6569
 9316TIP3    H152143   5.146   7.168   1.911 -0.0101  0.3569  0.5961
 9316TIP3    H252144   5.282   7.190   1.974  1.0136  0.3577 -1.5387
 9317TIP3   OH252145   3.176   6.769   0.515  0.6185 -0.1696  1.0523
 9317TIP3    H152146   3.238   6.816   0.571 -0.0262  0.2172  1.4507
 9317TIP3    H252147   3.218   6.685   0.498  0.5825 -0.5426  2.6164
 9318TIP3   OH252148   4.184   1.921   2.340  0.3273  0.1438 -0.5742
 9318TIP3    H152149   4.273   1.890   2.357 -0.2127 -1.2578 -0.1545
 9318TIP3    H252150   4.161   1.972   2.418 -0.1250 -1.6045  0.4750
 9319TIP3   OH252151   5.903   5.267   3.104  0.3789  0.0919 -0.1665
 9319TIP3    H152152   5.911   5.258   3.199 -0.2957 -0.2012 -0.1295
 9319TIP3    H252153   5.991   5.252   3.071  0.7268  0.7192  0.4483
 9320TIP3   OH252154   6.165   7.416   2.762 -0.2381  0.2223 -0.3176
 9320TIP3    H152155   6.139   7.507   2.749 -0.5034 -0.0815 -2.2519
 9320TIP3    H252156   6.228   7.419   2.835 -0.2322  1.9453 -0.3558
 9321TIP3   OH252157   4.651   5.879   0.956 -0.3258 -0.3427 -0.6211
 9321TIP3    H152158   4.642   5.971   0.932 -0.2555 -0.1400  0.1179
 9321TIP3    H252159   4.561   5.848   0.965 -0.4147  0.4484  2.0663
 9322TIP3   OH252160   1.865   6.209   1.895  0.4091 -0.5209 -0.1132
 9322TIP3    H152161   1.855   6.199   1.989  0.3685  0.3298 -0.0167
 9322TIP3    H252162   1.814   6.138   1.857  1.1133 -1.3790  0.5112
 9323TIP3   OH252163   5.428   4.653   1.983 -0.2112 -0.1593  0.0144
 9323TIP3    H152164   5.459   4.744   1.992 -0.8495  0.1110 -0.4425
 9323TIP3    H252165   5.504   4.606   1.949 -0.0852  0.3568 -0.4439
 9324TIP3   OH252166   5.233   5.760   0.713  0.1136 -0.6625  0.6879
 9324TIP3    H152167   5.256   5.714   0.793  0.1822  0.1095  1.1191
 9324TIP3    H252168   5.155   5.810   0.735 -0.1326 -0.7915  0.1392
 9325TIP3   OH252169   1.436   0.591   2.245  0.1758 -0.0867  0.3439
 9325TIP3    H152170   1.345   0.560   2.247 -0.4796  1.4950 -1.5947
 9325TIP3    H252171   1.489   0.512   2.254 -1.4004 -1.2735 -0.4457
 9326TIP3   OH252172   4.364   2.205   0.826 -0.8311  0.0906  0.0876
 9326TIP3    H152173   4.383   2.224   0.734  0.0213  2.3587  0.6495
 9326TIP3    H252174   4.268   2.196   0.828 -0.7326 -2.0927 -1.2895
 9327TIP3   OH252175   5.628   3.570   1.296  0.2233  1.4432  0.3716
 9327TIP3    H152176   5.544   3.530   1.273  0.8740  1.4468 -2.3791
 9327TIP3    H252177   5.608   3.629   1.369 -1.9228  0.6465  0.5039
 9328TIP3   OH252178   6.633   1.833   1.314  0.2313 -0.1228  0.6776
 9328TIP3    H152179   6.672   1.747   1.300  0.7301 -0.1494  2.0773
 9328TIP3    H252180   6.592   1.827   1.401 -0.0769  0.9284  0.6211
 9329TIP3   OH252181   3.989   4.417   2.530  0.1054 -0.6135 -0.7617
 9329TIP3    H152182   4.027   4.468   2.458  1.3194  1.3309  1.1047
 9329TIP3    H252183   4.064   4.395   2.586 -1.0792  0.9885  1.6546
 9330TIP3   OH252184   5.276   6.589   2.679 -0.1843 -0.3059  0.2021
 9330TIP3    H152185   5.267   6.676   2.719  0.7641 -0.1891  0.1850
 9330TIP3    H252186   5.359   6.555   2.715  0.6546 -0.2337 -1.5737
 9331TIP3   OH252187   2.905   6.966   2.727 -0.6790 -0.4467 -0.0529
 9331TIP3    H152188   2.926   7.037   2.666  0.3154 -0.6626  0.0162
 9331TIP3    H252189   2.813   6.946   2.709 -0.8508  0.5525 -0.3822
 9332TIP3   OH252190   4.598   3.274   3.025 -0.2175  0.5776  0.7717
 9332TIP3    H152191   4.558   3.314   2.947  1.3501  1.0138  0.1432
 9332TIP3    H252192   4.569   3.183   3.023 -2.5425  1.2345  1.3254
 9333TIP3   OH252193   3.087   0.165   2.137  0.0038  0.2084 -0.0797
 9333TIP3    H152194   3.175   0.189   2.106 -0.2332 -0.7621 -1.6575
 9333TIP3    H252195   3.077   0.210   2.220  2.0167  0.3153  0.1462
 9334TIP3   OH252196   2.841   3.981   0.844 -0.2212  0.3582  0.2646
 9334TIP3    H152197   2.812   3.919   0.777  0.4436 -0.3244  0.6001
 9334TIP3    H252198   2.762   4.033   0.863 -0.8348 -0.4784  0.0915
 9335TIP3   OH252199   6.600   4.945   2.184 -0.7546 -0.4055 -0.7353
 9335TIP3    H152200   6.509   4.968   2.164 -0.8804 -0.2598 -0.0427
 9335TIP3    H252201   6.607   4.852   2.163 -1.3264 -0.6386  0.0404
 9336TIP3   OH252202   4.230   3.379   1.030  0.2466 -0.1129  0.2607
 9336TIP3    H152203   4.241   3.286   1.050  0.7542  0.6070  3.9909
 9336TIP3    H252204   4.319   3.413   1.027  0.0144  0.5224  0.4479
 9337TIP3   OH252205   0.995   0.369   1.584  0.6553  0.3595  0.5346
 9337TIP3    H152206   1.009   0.343   1.493 -0.1005  0.5174  0.3646
 9337TIP3    H252207   0.901   0.390   1.589  0.8087  0.9254  1.2047
 9338TIP3   OH252208   2.190   4.499   1.097 -0.5498  0.2799 -0.1146
 9338TIP3    H152209   2.160   4.489   1.187  0.8467 -1.2068  0.2269
 9338TIP3    H252210   2.158   4.421   1.052  3.2340 -1.8291  0.4618
 9339TIP3   OH252211   5.097   3.570   3.147 -0.1319  0.2176  0.4627
 9339TIP3    H152212   5.012   3.548   3.108  0.1867 -0.5776  0.2049
 9339TIP3    H252213   5.083   3.656   3.186 -1.2925 -0.2318  1.1012
 9340TIP3   OH252214   7.595   3.572   0.465 -0.3074 -0.0910 -0.3869
 9340TIP3    H152215   7.519   3.514   0.457 -0.2291 -0.2093 -0.2782
 9340TIP3    H252216   7.558   3.654   0.497 -0.4294 -0.0552 -0.6148
 9341TIP3   OH252217   3.152   6.166   0.846 -0.6395 -0.2178 -0.5412
 9341TIP3    H152218   3.224   6.178   0.908  0.4730  0.9969 -2.0107
 9341TIP3    H252219   3.143   6.071   0.839  0.6499 -0.3941 -0.1309
 9342TIP3   OH252220   5.305   3.769   1.510  0.0873 -0.3615  0.5860
 9342TIP3    H152221   5.346   3.711   1.446  3.6537  1.9364  0.4997
 9342TIP3    H252222   5.264   3.838   1.458  0.0078 -0.3150  0.7104
 9343TIP3   OH252223   3.148   7.568   1.096  0.4180  0.5162 -0.4968
 9343TIP3    H152224   3.107   7.488   1.064 -1.1419  0.5615  1.2239
 9343TIP3    H252225   3.081   7.609   1.151  2.3221  1.3225  1.3424
 9344TIP3   OH252226   0.450   0.601   2.067  0.4560 -0.0072 -0.6130
 9344TIP3    H152227   0.386   0.649   2.120  0.5704 -0.2715 -0.2298
 9344TIP3    H252228   0.480   0.531   2.124  1.4260  0.3804 -0.6418
 9345TIP3   OH252229   7.678   3.342   2.658 -0.2286  0.2455  0.2368
 9345TIP3    H152230   7.698   3.266   2.713  0.2370  1.3415  1.6486
 9345TIP3    H252231   7.646   3.305   2.576  1.1312 -1.4995  0.4279
 9346TIP3   OH252232   4.923   2.876   1.443 -0.2836 -0.0315 -0.4684
 9346TIP3    H152233   4.991   2.893   1.378  0.5232  1.4115  0.6904
 9346TIP3    H252234   4.841   2.900   1.398 -0.1436 -2.0898 -1.9829
 9347TIP3   OH252235   6.339   2.111   2.642 -0.3086 -0.1768  0.6618
 9347TIP3    H152236   6.322   2.204   2.626 -1.0117 -0.3974  0.0519
 9347TIP3    H252237   6.263   2.066   2.604  0.3008 -1.0331  0.4301
 9348TIP3   OH252238   3.175   1.638   1.550  0.1783  0.4691 -0.1778
 9348TIP3    H152239   3.084   1.621   1.529  0.3680  1.7867 -2.3575
 9348TIP3    H252240   3.216   1.552   1.555 -0.7575 -0.0565 -1.3117
 9349TIP3   OH252241   0.259   2.241   2.469 -0.4599 -0.3550 -0.1445
 9349TIP3    H152242   0.348   2.275   2.462 -0.9882  1.7092  1.8699
 9349TIP3    H252243   0.271   2.148   2.488  1.3270  0.0353  0.9252
 9350TIP3   OH252244   4.010   3.609   0.698 -0.4990  0.1073 -0.6463
 9350TIP3    H152245   3.940   3.630   0.637 -0.6175 -0.0482 -0.5640
 9350TIP3    H252246   4.034   3.694   0.737 -1.1137  0.0719 -0.1675
 9351TIP3   OH252247   3.817   0.422   1.656 -0.5291  0.1966  0.2109
 9351TIP3    H152248   3.902   0.379   1.646 -0.9708 -0.3531 -1.5671
 9351TIP3    H252249   3.768   0.363   1.713  0.4094  0.7806  1.6920
 9352TIP3   OH252250   2.802   2.229   2.101  0.6128 -0.2235  0.4786
 9352TIP3    H152251   2.728   2.282   2.131 -0.4752  0.0179 -2.3076
 9352TIP3    H252252   2.878   2.285   2.111 -0.2229  1.1475 -0.4891
 9353TIP3   OH252253   4.977   1.392   1.707 -0.8361 -0.5556  0.3390
 9353TIP3    H152254   4.998   1.443   1.629 -2.5190 -0.7868 -0.2887
 9353TIP3    H252255   4.898   1.433   1.743 -0.6878 -1.0966  1.3337
 9354TIP3   OH252256   2.796   5.498   1.158  0.2541  0.4389  0.4274
 9354TIP3    H152257   2.718   5.452   1.129  1.2694 -1.8507  1.1354
 9354TIP3    H252258   2.827   5.545   1.080 -1.5893  1.1249  0.0572
 9355TIP3   OH252259   3.022   0.537   2.807 -0.2412  0.0620 -0.3367
 9355TIP3    H152260   3.066   0.575   2.883 -1.0513 -0.0030  0.1669
 9355TIP3    H252261   2.964   0.470   2.843 -1.3316  0.6628 -0.9197
 9356TIP3   OH252262   2.245   6.306   1.057  0.6801  0.1037  0.3285
 9356TIP3    H152263   2.294   6.388   1.060  0.1954  0.4484 -0.6251
 9356TIP3    H252264   2.153   6.333   1.050  0.5728 -0.4802 -1.0153
 9357TIP3   OH252265   1.836   7.480   1.242  0.2203 -0.4852  0.0923
 9357TIP3    H152266   1.774   7.408   1.247 -0.3031 -0.0692 -0.2772
 9357TIP3    H252267   1.808   7.542   1.309  1.8318 -1.4733  1.7890
 9358TIP3   OH252268   5.665   2.402   2.424  0.0250 -0.4177 -0.1527
 9358TIP3    H152269   5.639   2.322   2.470  1.1431 -1.0920 -0.6586
 9358TIP3    H252270   5.657   2.380   2.331  1.4739 -0.3639 -0.3135
 9359TIP3   OH252271   7.070   0.778   0.602 -0.1209 -0.0624  0.3955
 9359TIP3    H152272   7.144   0.761   0.662  0.3328 -1.1923 -0.4438
 9359TIP3    H252273   6.993   0.750   0.651 -0.1451  2.0670  1.6698
 9360TIP3   OH252274   0.614   2.360   3.761 -0.0543 -0.7184 -0.0066
 9360TIP3    H152275   0.681   2.428   3.755 -0.5238  0.1722  2.9437
 9360TIP3    H252276   0.533   2.406   3.740 -0.3956 -0.1729  2.1614
 9361TIP3   OH252277   1.112   6.877   0.780  0.6661 -0.5336  0.0181
 9361TIP3    H152278   1.024   6.908   0.757  0.6493  0.0083  0.7759
 9361TIP3    H252279   1.103   6.782   0.788 -0.1556 -0.3702  1.3318
 9362TIP3   OH252280   1.591   2.099   1.569 -0.6823  0.4226  0.1331
 9362TIP3    H152281   1.551   2.032   1.514 -1.3446  0.0213  1.0825
 9362TIP3    H252282   1.663   2.134   1.516 -1.1275 -0.1429 -0.8673
 9363TIP3   OH252283   1.061   5.458   1.323 -0.2920  0.6260  0.7335
 9363TIP3    H152284   1.009   5.415   1.254  0.7442 -1.1940  1.0323
 9363TIP3    H252285   1.009   5.446   1.402  0.2940 -0.7818  0.9450
 9364TIP3   OH252286   3.953   6.167   1.931 -0.4175  0.1008 -0.2321
 9364TIP3    H152287   3.906   6.167   2.014  0.4092 -0.0995  0.2550
 9364TIP3    H252288   4.045   6.160   1.957  0.0584  2.4368 -1.0736
 9365TIP3   OH252289   2.084   0.083   1.861 -0.2148  0.0664 -0.1494
 9365TIP3    H152290   2.124   0.022   1.923 -0.8606 -0.8551 -0.6321
 9365TIP3    H252291   2.158   0.115   1.809  0.0316 -0.8943 -0.4012
 9366TIP3   OH252292   4.449   3.867   1.800  0.0225 -0.5539 -0.5286
 9366TIP3    H152293   4.478   3.948   1.842 -1.4708 -1.0101  1.5118
 9366TIP3    H252294   4.376   3.895   1.744 -0.7991 -0.5121  0.5297
 9367TIP3   OH252295   0.691   3.245   0.698 -0.2479  0.2768  0.7872
 9367TIP3    H152296   0.623   3.280   0.641 -0.1702  1.0107  1.1334
 9367TIP3    H252297   0.720   3.164   0.655 -0.3032  0.7350 -0.1257
 9368TIP3   OH252298   5.453   4.707   1.542 -0.0927 -0.5190  0.4303
 9368TIP3    H152299   5.532   4.758   1.559 -1.4992  1.4393  1.5906
 9368TIP3    H252300   5.466   4.625   1.589  1.8845 -0.9352 -0.7502
 9369TIP3   OH252301   3.840   1.333   2.409  0.0314 -0.3286  0.0060
 9369TIP3    H152302   3.882   1.267   2.353  0.6205 -1.8068  2.0595
 9369TIP3    H252303   3.746   1.317   2.399  0.1626 -1.3450  0.2909
 9370TIP3   OH252304   7.250   5.499   1.459  0.1070  0.1419 -0.3355
 9370TIP3    H152305   7.252   5.591   1.433  5.0488  0.4270  0.0377
 9370TIP3    H252306   7.270   5.451   1.378  1.0615 -0.2373  0.1114
 9371TIP3   OH252307   7.206   7.653   2.243 -0.1203  0.3400  0.2336
 9371TIP3    H152308   7.136   7.610   2.195  0.5969  0.0473 -0.5674
 9371TIP3    H252309   7.164   7.729   2.284 -1.1842 -0.5649  0.8716
 9372TIP3   OH252310   1.352   2.488   2.220 -0.1929  0.6545  0.0833
 9372TIP3    H152311   1.331   2.553   2.287  0.3134  0.2686  0.6226
 9372TIP3    H252312   1.443   2.464   2.237 -0.1667  0.2897 -0.5245
 9373TIP3   OH252313   4.704   4.396   2.709  0.5048 -0.3909  0.0273
 9373TIP3    H152314   4.689   4.490   2.711  0.9907 -0.3148  1.7618
 9373TIP3    H252315   4.670   4.368   2.625 -0.6684  1.1640 -0.0535
 9374TIP3   OH252316   1.353   0.419   2.695  0.0188  0.2493  0.0618
 9374TIP3    H152317   1.446   0.432   2.677 -0.1971  1.2112 -0.4568
 9374TIP3    H252318   1.322   0.364   2.623  0.1899 -0.1107  0.2603
 9375TIP3   OH252319   3.081   4.205   0.525  0.3027  0.5945 -0.1799
 9375TIP3    H152320   3.017   4.237   0.461 -0.3618 -0.1406  0.0963
 9375TIP3    H252321   3.139   4.280   0.540  0.4657  0.7931 -1.6180
 9376TIP3   OH252322   1.576   4.219   1.238  0.1521 -0.0302  0.4749
 9376TIP3    H152323   1.566   4.160   1.163  0.0695  1.3247 -0.6323
 9376TIP3    H252324   1.508   4.193   1.299  0.7497 -1.7049  0.4637
 9377TIP3   OH252325   0.603   6.308   1.758 -0.7550 -0.2157  0.1448
 9377TIP3    H152326   0.661   6.385   1.760  0.7349 -1.3058  0.9129
 9377TIP3    H252327   0.522   6.341   1.720 -0.4165  1.9197  1.0634
 9378TIP3   OH252328   3.979   1.645   1.646  0.3452  0.5634  0.6384
 9378TIP3    H152329   3.906   1.644   1.709 -1.2154 -0.5425 -1.0680
 9378TIP3    H252330   3.993   1.738   1.627 -1.3262  0.7709  0.2647
 9379TIP3   OH252331   5.649   4.016   0.845 -0.0201  0.7069  0.1550
 9379TIP3    H152332   5.706   4.040   0.771 -0.9912 -2.8484 -1.9859
 9379TIP3    H252333   5.694   3.942   0.886 -0.1743  1.7760  2.3551
 9380TIP3   OH252334   5.963   1.015   2.506 -0.2606  0.2167 -0.2425
 9380TIP3    H152335   5.965   0.920   2.515 -2.0192  0.1490 -0.0873
 9380TIP3    H252336   5.921   1.030   2.421  2.4827  0.8979 -1.5802
 9381TIP3   OH252337   5.021   1.726   2.619 -0.0116 -0.1127 -0.1380
 9381TIP3    H152338   4.936   1.740   2.577 -0.3223 -0.2854  0.4155
 9381TIP3    H252339   5.000   1.715   2.712  0.5751 -0.5400 -0.0468
 9382TIP3   OH252340   3.047   2.649   1.137 -0.4244  0.1478 -0.6878
 9382TIP3    H152341   2.983   2.696   1.084 -0.1048  0.8101 -0.5063
 9382TIP3    H252342   3.108   2.717   1.166  0.2011 -0.4240 -0.6336
 9383TIP3   OH252343   0.282   7.077   2.268 -0.0806 -0.5674 -0.4748
 9383TIP3    H152344   0.332   7.046   2.343 -2.1566  0.1728  1.2965
 9383TIP3    H252345   0.348   7.111   2.208  1.6330 -1.0267  1.0515
 9384TIP3   OH252346   5.746   3.205   1.964 -0.0016  1.0786 -0.2829
 9384TIP3    H152347   5.724   3.116   1.994 -2.9442  1.5036 -0.8725
 9384TIP3    H252348   5.822   3.192   1.907 -1.4350 -1.3947 -1.8219
 9385TIP3   OH252349   3.765   5.160   0.439  0.5504  0.3382  0.4453
 9385TIP3    H152350   3.776   5.187   0.531 -1.2852  0.9537  0.5120
 9385TIP3    H252351   3.849   5.119   0.417  1.3452  0.9403  2.1312
 9386TIP3   OH252352   5.944   0.968   0.527 -0.6089  0.3001  0.6026
 9386TIP3    H152353   6.018   1.010   0.571  0.0418  0.6096 -0.7420
 9386TIP3    H252354   5.898   1.040   0.483  1.2685 -0.3723 -2.8357
 9387TIP3   OH252355   3.550   2.348   3.098  0.2979 -0.2983  0.0924
 9387TIP3    H152356   3.465   2.312   3.071 -0.1906  0.6846  0.2321
 9387TIP3    H252357   3.615   2.287   3.063 -0.4225 -0.4315 -1.0687
 9388TIP3   OH252358   7.228   4.356   1.892 -0.1204  0.7119 -0.1788
 9388TIP3    H152359   7.159   4.376   1.956 -0.3034  0.6408 -0.3510
 9388TIP3    H252360   7.185   4.369   1.807 -0.0680  0.1583 -0.2901
 9389TIP3   OH252361   7.045   5.183   1.937  0.3263 -0.0542  0.0173
 9389TIP3    H152362   7.131   5.205   1.972  1.0313 -1.5189 -0.7168
 9389TIP3    H252363   6.990   5.171   2.015  0.8363  0.6396  0.4932
 9390TIP3   OH252364   6.162   6.060   1.282 -0.5208 -0.4595 -0.4292
 9390TIP3    H152365   6.145   6.029   1.371  0.0273 -0.4649 -0.3219
 9390TIP3    H252366   6.204   5.985   1.238 -0.7981 -0.4621 -0.6952
 9391TIP3   OH252367   5.860   3.800   1.592 -0.3325  0.0589 -0.6966
 9391TIP3    H152368   5.939   3.829   1.548  0.1096 -0.7001 -0.4222
 9391TIP3    H252369   5.856   3.854   1.671 -0.0692  0.0723 -0.6909
 9392TIP3   OH252370   2.368   6.352   2.521 -0.1296  0.1519 -0.0518
 9392TIP3    H152371   2.294   6.354   2.459 -1.2927  0.1451  1.2874
 9392TIP3    H252372   2.445   6.341   2.465 -1.0135  1.2988 -1.5937
 9393TIP3   OH252373   0.191   4.737   3.228 -0.0011  0.2241  0.2686
 9393TIP3    H152374   0.121   4.676   3.204 -1.2896  1.7130  0.0694
 9393TIP3    H252375   0.218   4.709   3.315  0.7799 -1.7781 -0.5776
 9394TIP3   OH252376   7.366   2.139   1.804 -0.0874 -0.1299 -0.0356
 9394TIP3    H152377   7.379   2.232   1.823  1.8193 -0.0010 -1.6772
 9394TIP3    H252378   7.408   2.126   1.718 -1.9388 -2.1178 -0.7319
 9395TIP3   OH252379   1.172   1.423   1.486 -0.3613 -0.1855  0.4254
 9395TIP3    H152380   1.220   1.470   1.554  1.3446  0.1277 -0.9221
 9395TIP3    H252381   1.161   1.335   1.520  3.0491 -0.8983  0.0663
 9396TIP3   OH252382   5.166   7.452   1.670  0.4601  0.1651  0.5884
 9396TIP3    H152383   5.136   7.380   1.726 -0.2278  0.1685  0.2205
 9396TIP3    H252384   5.240   7.414   1.621 -0.3946 -0.5443 -0.1864
 9397TIP3   OH252385   0.312   5.255   2.235 -0.2674 -0.4694  0.1087
 9397TIP3    H152386   0.374   5.262   2.162  0.5960  0.4498  0.8971
 9397TIP3    H252387   0.341   5.322   2.297 -1.3815 -0.7933  1.0068
 9398TIP3   OH252388   3.463   4.912   1.060  0.4806  0.0662  0.2396
 9398TIP3    H152389   3.476   4.832   1.110  1.2833  0.6206  0.9516
 9398TIP3    H252390   3.436   4.977   1.126  0.9229  0.6471 -0.1439
 9399TIP3   OH252391   7.234   7.132   2.412 -0.0118 -0.6392 -0.5198
 9399TIP3    H152392   7.235   7.225   2.431  0.8623 -0.0380 -3.0946
 9399TIP3    H252393   7.252   7.126   2.318  1.0909 -3.4432 -0.2486
 9400TIP3   OH252394   2.886   6.530   0.590 -0.0526  0.4777 -0.2725
 9400TIP3    H152395   2.942   6.468   0.544 -0.2553  1.1781 -1.4832
 9400TIP3    H252396   2.938   6.610   0.597  0.4012  0.0808  1.7297
 9401TIP3   OH252397   7.184   1.325   1.912  0.1714 -0.5669 -0.0281
 9401TIP3    H152398   7.126   1.267   1.864 -1.1335  2.2082 -2.0275
 9401TIP3    H252399   7.230   1.375   1.845 -0.2961  2.1490  1.5076
 9402TIP3   OH252400   0.301   7.212   1.242  0.0453  0.4997  0.1079
 9402TIP3    H152401   0.281   7.126   1.206  0.4141 -0.3783  1.8618
 9402TIP3    H252402   0.386   7.235   1.204 -0.6849  0.7433 -1.4293
 9403TIP3   OH252403   2.737   2.423   1.110 -0.3497  0.1214  0.7867
 9403TIP3    H152404   2.782   2.439   1.027 -0.7978  1.1903  0.7271
 9403TIP3    H252405   2.644   2.431   1.088 -0.4482  1.8988  1.6406
 9404TIP3   OH252406   1.779   7.600   1.490 -0.1488  0.1198  0.5816
 9404TIP3    H152407   1.825   7.684   1.498  0.0186  0.0450  0.4073
 9404TIP3    H252408   1.813   7.548   1.563  1.9408 -0.8273 -0.9674
 9405TIP3   OH252409   4.901   0.744   0.919 -0.3467  0.7665 -0.0023
 9405TIP3    H152410   4.971   0.681   0.900 -0.8930  0.3517 -0.6947
 9405TIP3    H252411   4.837   0.694   0.969 -0.7799  0.7647 -0.5517
 9406TIP3   OH252412   1.921   2.609   2.124  0.4112  0.2060 -0.4783
 9406TIP3    H152413   1.926   2.612   2.028 -0.5234  1.1567 -0.5115
 9406TIP3    H252414   1.831   2.635   2.144  0.3630 -0.7695  0.6332
 9407TIP3   OH252415   3.058   4.821   3.334 -0.3557 -0.1705 -0.0997
 9407TIP3    H152416   2.996   4.893   3.342 -0.0624 -0.0978  2.9774
 9407TIP3    H252417   3.005   4.746   3.308 -1.4781  0.2602  0.8497
 9408TIP3   OH252418   1.507   2.285   2.554 -0.1250 -0.2583  0.4439
 9408TIP3    H152419   1.496   2.293   2.649  0.8870  0.5967  0.5037
 9408TIP3    H252420   1.516   2.375   2.523 -0.5247 -0.5286 -0.4791
 9409TIP3   OH252421   5.141   2.009   1.225 -0.7308 -0.2144  0.4957
 9409TIP3    H152422   5.139   1.913   1.231  0.9380 -0.4246 -1.2491
 9409TIP3    H252423   5.049   2.034   1.217 -1.1788 -1.7112  0.5509
 9410TIP3   OH252424   0.105   7.081   0.842  0.3627  0.0116  0.2939
 9410TIP3    H152425   0.120   7.112   0.931 -0.2745 -2.7087  1.4399
 9410TIP3    H252426   0.010   7.089   0.830  0.0905 -1.9427  0.8582
 9411TIP3   OH252427   5.701   2.540   1.207  0.4118  0.1037  0.0013
 9411TIP3    H152428   5.643   2.464   1.211 -0.2121  0.6081  1.3305
 9411TIP3    H252429   5.779   2.509   1.161 -0.2778 -1.0290 -0.4288
 9412TIP3   OH252430   6.492   4.635   2.690  0.2454 -0.4065 -0.0053
 9412TIP3    H152431   6.425   4.605   2.628 -1.9323 -0.5522  2.2601
 9412TIP3    H252432   6.487   4.730   2.686 -0.8175 -0.4039  0.7932
 9413TIP3   OH252433   0.584   0.332   2.582 -0.3280  0.2607 -0.5318
 9413TIP3    H152434   0.634   0.313   2.661  0.7043 -0.8194 -1.3993
 9413TIP3    H252435   0.634   0.291   2.512 -1.6935  0.3988 -1.6346
 9414TIP3   OH252436   1.359   5.428   3.054  0.0150 -0.2381  0.6314
 9414TIP3    H152437   1.429   5.488   3.029 -0.0664 -0.1937  0.5089
 9414TIP3    H252438   1.278   5.474   3.030 -0.1931  0.7557  2.9017
 9415TIP3   OH252439   4.606   5.602   1.578 -0.3118  0.0698  0.3001
 9415TIP3    H152440   4.669   5.569   1.641  2.6845  0.7932 -2.0899
 9415TIP3    H252441   4.639   5.689   1.555 -1.5079  0.0073 -1.8963
 9416TIP3   OH252442   0.757   6.081   1.724  0.3068  0.6216  0.0878
 9416TIP3    H152443   0.693   6.147   1.699  0.6067  0.4816 -1.1020
 9416TIP3    H252444   0.812   6.125   1.789  0.6284  1.6306 -0.8291
 9417TIP3   OH252445   4.154   1.685   2.196 -0.4372 -0.4407 -0.4254
 9417TIP3    H152446   4.131   1.608   2.247 -1.3797  0.1850  0.1348
 9417TIP3    H252447   4.166   1.754   2.261 -0.5300  0.1021 -0.9709
 9418TIP3   OH252448   6.882   6.977   1.652  0.5951 -0.1834 -0.3036
 9418TIP3    H152449   6.916   7.054   1.697 -0.8186  0.2788  0.0337
 9418TIP3    H252450   6.795   7.003   1.622  0.7786 -1.0889 -1.7190
 9419TIP3   OH252451   6.404   6.741   2.883  0.3539 -0.1757 -0.6154
 9419TIP3    H152452   6.439   6.827   2.861  3.2929 -1.1506 -0.2119
 9419TIP3    H252453   6.381   6.747   2.976  2.2581 -0.2278 -0.0835
 9420TIP3   OH252454   1.789   1.424   0.940  0.2486  0.3588  0.3747
 9420TIP3    H152455   1.770   1.490   0.874 -1.1372  0.1072  0.5008
 9420TIP3    H252456   1.704   1.391   0.967  0.8184  0.0111  1.8448
 9421TIP3   OH252457   1.664   3.692   2.569 -0.1456  0.7268 -0.0273
 9421TIP3    H152458   1.582   3.733   2.539  0.2810  0.0802 -2.3244
 9421TIP3    H252459   1.680   3.623   2.505  1.0438 -0.6674  1.6892
 9422TIP3   OH252460   1.667   3.610   1.059 -0.0851  0.0070  0.1233
 9422TIP3    H152461   1.631   3.680   1.114 -2.7451 -2.2562  1.4896
 9422TIP3    H252462   1.752   3.590   1.100 -1.3224 -0.5734  2.5780
 9423TIP3   OH252463   3.312   7.100   3.269 -0.3686  1.2618 -0.2649
 9423TIP3    H152464   3.284   7.020   3.315 -0.6319  0.5779 -1.5833
 9423TIP3    H252465   3.261   7.170   3.311  1.0456  1.0420  2.0270
 9424TIP3   OH252466   1.346   5.105   1.819  0.2248  0.2688 -0.7293
 9424TIP3    H152467   1.378   5.196   1.812  2.3894 -0.4353 -0.9074
 9424TIP3    H252468   1.388   5.060   1.746  1.4544 -1.4457  0.9244
 9425TIP3   OH252469   2.607   6.736   2.223  0.4238 -0.2513  0.1511
 9425TIP3    H152470   2.701   6.722   2.215  0.4682  1.0668 -2.7672
 9425TIP3    H252471   2.590   6.726   2.317  3.4073 -0.7547  0.7502
 9426TIP3   OH252472   2.769   1.937   2.978 -0.0921  0.4770 -0.1635
 9426TIP3    H152473   2.780   2.018   3.028  0.0189 -0.3259  1.1511
 9426TIP3    H252474   2.675   1.920   2.982 -0.1836  0.7787 -0.8520
 9427TIP3   OH252475   7.204   0.362   2.571 -0.6195 -0.4091 -0.4193
 9427TIP3    H152476   7.222   0.268   2.577 -0.1162 -0.3446 -0.8586
 9427TIP3    H252477   7.222   0.395   2.659 -0.4318 -0.6637 -0.3604
 9428TIP3   OH252478   6.692   6.357   2.165  0.8906 -0.0038  0.0227
 9428TIP3    H152479   6.632   6.302   2.114 -2.1259  3.0954 -0.1520
 9428TIP3    H252480   6.655   6.355   2.254  2.1424 -0.0550  0.5583
 9429TIP3   OH252481   7.008   0.284   1.901 -0.3385 -0.0125 -0.3983
 9429TIP3    H152482   7.011   0.367   1.853  2.3908 -0.3452 -0.9723
 9429TIP3    H252483   6.989   0.218   1.834  0.4853 -0.1435 -0.5193
 9430TIP3   OH252484   3.952   6.542   1.326 -0.2624 -0.2193  0.2683
 9430TIP3    H152485   4.028   6.515   1.377  0.3722  1.5509  0.3281
 9430TIP3    H252486   3.988   6.561   1.239 -0.5322  1.0371  0.4120
 9431TIP3   OH252487   1.566   3.960   1.089  0.0804  0.3576 -0.0833
 9431TIP3    H152488   1.505   4.016   1.042  0.9293  1.1457 -0.2874
 9431TIP3    H252489   1.513   3.888   1.123 -0.7422  0.3986 -1.2546
 9432TIP3   OH252490   0.406   5.605   0.711 -0.4309  0.2100 -0.8339
 9432TIP3    H152491   0.422   5.518   0.748 -0.2952 -0.0088 -1.3958
 9432TIP3    H252492   0.339   5.643   0.769  0.5831  0.3315  0.2956
 9433TIP3   OH252493   3.882   4.109   1.695  0.3624 -0.0906 -0.0392
 9433TIP3    H152494   3.837   4.159   1.763 -0.1688  0.8589 -1.0387
 9433TIP3    H252495   3.975   4.115   1.718  0.3673  1.8420 -0.3949
 9434TIP3   OH252496   6.518   1.389   1.319  0.4587 -0.0517 -0.3172
 9434TIP3    H152497   6.482   1.375   1.407  0.6016 -0.5257 -0.3343
 9434TIP3    H252498   6.494   1.311   1.270 -2.0050  1.3180 -1.5212
 9435TIP3   OH252499   2.935   7.341   1.400 -0.4868 -0.0106 -0.5345
 9435TIP3    H152500   2.873   7.277   1.364 -1.0294  0.9558 -1.3634
 9435TIP3    H252501   3.007   7.343   1.337  0.8075 -1.6653  0.7845
 9436TIP3   OH252502   0.314   1.910   1.932 -0.0480 -0.2082 -0.1750
 9436TIP3    H152503   0.271   1.945   2.010 -1.1804 -0.3638 -0.7196
 9436TIP3    H252504   0.394   1.962   1.923 -0.0409 -0.0116  0.9324
 9437TIP3   OH252505   5.934   0.274   0.811  0.2335  0.0590  0.0162
 9437TIP3    H152506   5.940   0.367   0.790 -2.4540  0.5387  0.9751
 9437TIP3    H252507   6.006   0.258   0.872 -0.0869  1.8360  0.9061
 9438TIP3   OH252508   4.161   2.106   1.233 -0.2325 -0.5807 -0.2162
 9438TIP3    H152509   4.170   2.025   1.284  1.3456 -0.8927 -0.9424
 9438TIP3    H252510   4.132   2.171   1.297  0.6624 -1.2086  0.8512
 9439TIP3   OH252511   7.227   3.022   0.587  0.3993 -0.2839 -0.7004
 9439TIP3    H152512   7.163   2.964   0.546  0.4803 -0.6796 -0.2818
 9439TIP3    H252513   7.177   3.098   0.615 -0.3039 -1.4528  1.4136
 9440TIP3   OH252514   7.236   0.460   0.798  0.1576  0.6886 -0.0850
 9440TIP3    H152515   7.244   0.412   0.881  0.1821  1.2042  0.2183
 9440TIP3    H252516   7.146   0.445   0.770  0.2816  0.1500 -0.1880
 9441TIP3   OH252517   4.940   3.323   2.547  0.2508  0.2208  0.0299
 9441TIP3    H152518   4.854   3.298   2.583 -1.0670  0.9452 -2.3974
 9441TIP3    H252519   4.983   3.240   2.528 -0.6418 -0.1839 -0.2879
 9442TIP3   OH252520   1.053   6.619   0.835 -0.2724  0.0609  0.1668
 9442TIP3    H152521   1.057   6.548   0.898 -2.9821 -0.4381 -0.0873
 9442TIP3    H252522   0.996   6.586   0.765  0.3250  1.6219 -1.1246
 9443TIP3   OH252523   0.185   6.520   1.259  0.0219  0.0638  0.4623
 9443TIP3    H152524   0.279   6.535   1.246 -0.3680  1.0569 -1.5028
 9443TIP3    H252525   0.161   6.459   1.189 -0.6212 -0.9946  1.5779
 9444TIP3   OH252526   2.564   1.028   1.749 -0.4269 -0.3754 -0.1238
 9444TIP3    H152527   2.600   1.001   1.665 -1.0978  0.9699 -0.8710
 9444TIP3    H252528   2.524   0.949   1.784  0.4103 -1.1055 -0.7663
 9445TIP3   OH252529   7.181   4.084   1.626  0.2195  0.6154  0.5107
 9445TIP3    H152530   7.236   4.150   1.668  1.0162  0.5006 -0.3371
 9445TIP3    H252531   7.236   4.006   1.622 -0.5878 -0.0010  1.1659
 9446TIP3   OH252532   0.300   3.037   2.463  0.2366 -0.2845 -0.0574
 9446TIP3    H152533   0.315   3.092   2.540  0.2671 -0.3284 -0.0322
 9446TIP3    H252534   0.278   2.951   2.498  2.5832 -0.9627 -0.0743
 9447TIP3   OH252535   6.712   4.361   1.937 -0.2025 -0.4305  0.3887
 9447TIP3    H152536   6.624   4.351   1.973 -0.8158 -1.5585 -1.2727
 9447TIP3    H252537   6.698   4.380   1.844  1.3064 -0.6103  0.0915
 9448TIP3   OH252538   5.607   0.051   3.210  0.1386  0.2609 -0.1527
 9448TIP3    H152539   5.586   0.044   3.304  1.5836  0.9041  0.2437
 9448TIP3    H252540   5.652  -0.031   3.189  1.1495  0.7360  0.1023
 9449TIP3   OH252541   6.645   6.291   0.605 -0.3087  0.6127 -0.3284
 9449TIP3    H152542   6.643   6.329   0.693 -1.6467  2.7743 -1.2196
 9449TIP3    H252543   6.671   6.200   0.619 -0.3541  0.9246  2.2779
 9450TIP3   OH252544   6.360   5.347   2.758  0.0767 -0.0290 -0.1686
 9450TIP3    H152545   6.431   5.326   2.819  0.3605  2.0233  0.2911
 9450TIP3    H252546   6.393   5.321   2.672  1.3618  0.7827  0.0532
 9451TIP3   OH252547   4.460   6.697   1.986  0.2419 -0.3938 -0.4136
 9451TIP3    H152548   4.489   6.612   2.020  1.4097 -0.3887 -1.3398
 9451TIP3    H252549   4.382   6.676   1.935  0.9435 -1.0631 -1.2635
 9452TIP3   OH252550   3.370   7.666   0.931  0.2225  0.0851  0.3659
 9452TIP3    H152551   3.319   7.740   0.898 -0.0242 -0.3446 -0.2588
 9452TIP3    H252552   3.314   7.625   0.996 -1.6192 -2.1240 -2.3358
 9453TIP3   OH252553   1.229   6.557   2.758  0.0210  0.2772  0.5022
 9453TIP3    H152554   1.207   6.546   2.666 -0.4388  1.4670  0.4472
 9453TIP3    H252555   1.321   6.583   2.758  0.3510 -0.8638  0.4656
 9454TIP3   OH252556   2.380   2.127   1.084  0.0055 -0.1206  0.1114
 9454TIP3    H152557   2.457   2.144   1.029 -0.3218  0.7315 -0.1123
 9454TIP3    H252558   2.369   2.032   1.082  1.0339 -0.2494  0.1222
 9455TIP3   OH252559   6.330   6.747   1.095  0.8542 -0.8355  0.1390
 9455TIP3    H152560   6.418   6.709   1.091  1.4495  0.6359 -2.1767
 9455TIP3    H252561   6.302   6.755   1.004 -1.2887 -0.3172  0.7772
 9456TIP3   OH252562   6.627   6.388   0.887  0.4059  0.5533  0.2483
 9456TIP3    H152563   6.647   6.325   0.956  0.3677  0.1842 -0.0751
 9456TIP3    H252564   6.711   6.406   0.845  0.0793 -1.3375 -1.4028
 9457TIP3   OH252565   4.268   4.693   0.815 -0.6457  0.2643  0.9417
 9457TIP3    H152566   4.345   4.728   0.861 -1.1255  0.2589  1.7662
 9457TIP3    H252567   4.194   4.742   0.851 -0.9621  0.9208 -0.4935
 9458TIP3   OH252568   7.012   6.732   2.795  0.1369  0.1044 -0.3372
 9458TIP3    H152569   7.098   6.765   2.766  0.3979 -1.2811 -1.2420
 9458TIP3    H252570   7.028   6.640   2.816 -0.8062  0.2219  1.0504
 9459TIP3   OH252571   4.358   5.336   0.991  0.0043 -0.3614  0.6245
 9459TIP3    H152572   4.416   5.404   1.022 -1.0342 -0.1287  2.1570
 9459TIP3    H252573   4.329   5.366   0.905 -1.5336  1.8794  1.8409
 9460TIP3   OH252574   5.114   0.772   1.736 -0.0364  0.4427 -0.1102
 9460TIP3    H152575   5.038   0.811   1.779 -1.4269  0.1618 -2.2032
 9460TIP3    H252576   5.078   0.705   1.679  1.8071  0.1427 -1.0037
 9461TIP3   OH252577   5.539   6.465   0.453 -0.4593 -0.2316 -0.0517
 9461TIP3    H152578   5.472   6.402   0.428  0.4238 -0.2319 -2.7259
 9461TIP3    H252579   5.620   6.414   0.455 -0.1381  0.2905  0.5086
 9462TIP3   OH252580   1.830   5.756   1.434 -0.0860  0.2638 -0.3842
 9462TIP3    H152581   1.870   5.756   1.347 -0.2886  0.4916 -0.4761
 9462TIP3    H252582   1.852   5.842   1.470 -0.1655  0.2412 -0.2832
 9463TIP3   OH252583   5.503   6.462   3.224 -0.2672 -0.2762  0.7671
 9463TIP3    H152584   5.544   6.516   3.292 -0.6534  0.0398  0.7516
 9463TIP3    H252585   5.510   6.373   3.257  1.8882 -0.4245  0.0405
 9464TIP3   OH252586   0.487   5.384   1.280  0.1093  0.5768 -0.3647
 9464TIP3    H152587   0.396   5.399   1.257 -0.7411 -2.4070  0.6074
 9464TIP3    H252588   0.525   5.341   1.203  0.8295  1.9844 -0.8458
 9465TIP3   OH252589   5.871   4.849   2.333 -0.1067 -0.1578 -0.8184
 9465TIP3    H152590   5.872   4.922   2.396  0.5194 -0.2670 -0.6959
 9465TIP3    H252591   5.940   4.791   2.363 -0.3492 -0.6162 -1.1434
 9466TIP3   OH252592   6.354   6.398   2.905 -0.1010 -0.3871  0.7527
 9466TIP3    H152593   6.309   6.406   2.821  3.2705 -1.4892 -1.3603
 9466TIP3    H252594   6.317   6.468   2.959 -1.2846  1.4568 -2.2067
 9467TIP3   OH252595   3.613   6.357   0.482  0.6346 -0.5477  0.4548
 9467TIP3    H152596   3.537   6.371   0.538  0.2147  1.6993 -0.5895
 9467TIP3    H252597   3.680   6.416   0.517  1.0088 -0.5621 -0.2198
 9468TIP3   OH252598   0.145   0.357   1.104  0.2057  0.4007 -0.8319
 9468TIP3    H152599   0.058   0.365   1.143  0.1161 -0.1377 -0.9070
 9468TIP3    H252600   0.169   0.265   1.118  0.6704  0.4904 -1.0055
 9469TIP3   OH252601   2.465   6.177   2.005 -0.5270  0.0931  0.1547
 9469TIP3    H152602   2.484   6.187   2.098  0.6356  0.7933 -0.1499
 9469TIP3    H252603   2.515   6.246   1.962 -0.6472 -0.5424 -1.0408
 9470TIP3   OH252604   6.279   4.315   1.655 -0.1261 -0.4550  0.3386
 9470TIP3    H152605   6.184   4.308   1.665 -0.1752 -0.2933  0.0184
 9470TIP3    H252606   6.297   4.279   1.568  0.0832 -0.3125  0.3214
 9471TIP3   OH252607   0.003   0.518   3.057  0.3179  0.4359  0.0367
 9471TIP3    H152608   0.040   0.586   3.113  1.6566  0.2302 -0.5572
 9471TIP3    H252609   0.051   0.438   3.081  0.4383  0.2078 -0.9169
 9472TIP3   OH252610   4.965   4.578   2.002 -0.1680  0.2747  0.3289
 9472TIP3    H152611   5.038   4.639   1.995  0.3085 -0.3742 -0.5955
 9472TIP3    H252612   4.901   4.610   1.938 -0.6042  0.6989  0.9615
 9473TIP3   OH252613   0.657   0.800   2.035  0.0551  0.1350  0.3188
 9473TIP3    H152614   0.607   0.719   2.042 -0.8597  0.7162  0.9297
 9473TIP3    H252615   0.621   0.843   1.956 -0.3097  0.4730  0.6605
 9474TIP3   OH252616   3.476   0.948   1.632  0.0618  0.4290 -0.0256
 9474TIP3    H152617   3.484   0.973   1.724  0.2029  2.8969 -0.6502
 9474TIP3    H252618   3.474   1.031   1.584  0.1906 -0.7857 -2.2790
 9475TIP3   OH252619   2.251   1.401   0.795 -0.0673 -0.4443  0.0327
 9475TIP3    H152620   2.297   1.318   0.811  1.6299  0.4899  0.3219
 9475TIP3    H252621   2.317   1.457   0.755 -1.0392  0.9169  0.2587
 9476TIP3   OH252622   7.431   7.257   1.422 -0.0434 -0.2501  0.4641
 9476TIP3    H152623   7.376   7.285   1.495 -0.8370 -1.3195  0.3175
 9476TIP3    H252624   7.488   7.190   1.460 -1.7046 -2.1660 -0.1994
 9477TIP3   OH252625   2.430   4.943   0.559 -0.1576 -0.7984  0.9447
 9477TIP3    H152626   2.367   4.913   0.625 -0.8129 -0.7986  0.3231
 9477TIP3    H252627   2.416   5.038   0.555 -2.6544 -1.1367 -1.7050
 9478TIP3   OH252628   3.794   3.479   1.711  0.1781 -0.8815  0.2708
 9478TIP3    H152629   3.740   3.548   1.751  0.5260 -1.2511  1.4242
 9478TIP3    H252630   3.840   3.523   1.640 -1.9205 -0.6521 -1.0194
 9479TIP3   OH252631   2.250   0.402   0.516 -0.3676 -0.3088  1.0400
 9479TIP3    H152632   2.231   0.492   0.488 -0.8051 -0.8660 -0.5446
 9479TIP3    H252633   2.180   0.381   0.578 -1.4212 -0.2022 -0.0685
 9480TIP3   OH252634   7.188   3.508   2.451  0.3678  0.5627 -0.2756
 9480TIP3    H152635   7.152   3.449   2.517 -0.8122  2.1081  0.5273
 9480TIP3    H252636   7.282   3.510   2.471  0.2572 -0.1905  0.3783
 9481TIP3   OH252637   2.879   1.363   2.469  0.1972  0.1580  0.3545
 9481TIP3    H152638   2.957   1.372   2.524  0.0462  1.0949  0.4335
 9481TIP3    H252639   2.808   1.400   2.521 -0.8028 -2.6995  1.2168
 9482TIP3   OH252640   3.332   4.968   1.796 -0.3733 -0.2480  0.2829
 9482TIP3    H152641   3.349   5.017   1.877  2.6031 -0.7274  0.0585
 9482TIP3    H252642   3.349   5.031   1.726 -1.2015 -0.3302 -0.0051
 9483TIP3   OH252643   6.492   0.908   1.009 -0.3637 -0.4755 -0.3431
 9483TIP3    H152644   6.560   0.844   0.987  1.1556  0.3867  1.5434
 9483TIP3    H252645   6.515   0.937   1.098 -0.3840  3.3727 -1.4277
 9484TIP3   OH252646   4.615   3.685   1.712 -0.1278  0.5638 -0.2971
 9484TIP3    H152647   4.561   3.758   1.743  1.2223  1.0250  1.0726
 9484TIP3    H252648   4.687   3.728   1.665  0.2633  0.0577 -0.1556
 9485TIP3   OH252649   0.843   6.907   0.725  0.0934  0.1666  0.2181
 9485TIP3    H152650   0.807   6.832   0.772 -1.4748  0.2975 -0.7159
 9485TIP3    H252651   0.769   6.967   0.716  1.5150  2.2889  1.7767
 9486TIP3   OH252652   2.282   3.451   1.221  0.1063 -0.3259 -0.6795
 9486TIP3    H152653   2.276   3.487   1.310 -1.0774 -0.2117 -0.7920
 9486TIP3    H252654   2.264   3.526   1.164 -0.7220 -0.7370 -0.9651
 9487TIP3   OH252655   5.488   4.257   3.007 -0.3734  0.6877  0.0041
 9487TIP3    H152656   5.484   4.306   3.089  0.2305 -0.9074  1.0192
 9487TIP3    H252657   5.512   4.323   2.941 -1.9018  2.2109  0.8801
 9488TIP3   OH252658   2.637   6.585   3.090 -0.5791  0.2494  0.6231
 9488TIP3    H152659   2.702   6.654   3.102 -0.7316  0.4805  0.1347
 9488TIP3    H252660   2.558   6.631   3.061 -0.3688 -0.2320 -0.7957
 9489TIP3   OH252661   6.258   2.396   1.666  0.3497 -0.4150  0.0420
 9489TIP3    H152662   6.349   2.420   1.684 -0.0145 -0.7214  2.7751
 9489TIP3    H252663   6.220   2.474   1.626  1.5457  0.0845 -0.1810
 9490TIP3   OH252664   0.855   4.491   1.539  0.0721 -0.5553 -0.4465
 9490TIP3    H152665   0.801   4.518   1.465  0.5451 -1.0044 -0.9627
 9490TIP3    H252666   0.866   4.397   1.528 -0.5743 -0.7841  0.6819
 9491TIP3   OH252667   2.776   6.934   2.384  0.0369  0.1786  0.4346
 9491TIP3    H152668   2.842   6.874   2.420 -0.1420 -0.3168 -0.0390
 9491TIP3    H252669   2.823   6.986   2.319  0.3321  0.9890  1.2717
 9492TIP3   OH252670   7.644   4.498   1.359 -0.0167 -0.3796 -0.1775
 9492TIP3    H152671   7.640   4.565   1.428 -1.2900  0.1186 -0.6929
 9492TIP3    H252672   7.606   4.541   1.282  0.3888 -1.2741 -0.9002
 9493TIP3   OH252673   2.337   5.316   1.310 -0.0902 -0.1371  0.1149
 9493TIP3    H152674   2.424   5.327   1.348 -0.7556  1.8563  1.1991
 9493TIP3    H252675   2.344   5.352   1.222  0.5993 -1.6969 -0.5182
 9494TIP3   OH252676   5.192   6.023   2.163  0.1503  0.4163  0.0582
 9494TIP3    H152677   5.273   5.984   2.131  0.3074 -0.9093  1.9612
 9494TIP3    H252678   5.163   6.079   2.091  2.3970  0.4305 -0.9088
 9495TIP3   OH252679   4.111   6.161   0.986 -0.3083  0.0317 -0.1243
 9495TIP3    H152680   4.197   6.159   0.944  1.7274  0.0185  3.6085
 9495TIP3    H252681   4.060   6.093   0.942  1.9470 -0.6648 -1.7806
 9496TIP3   OH252682   1.875   5.144   1.580  0.2852 -0.3832 -0.0921
 9496TIP3    H152683   1.815   5.187   1.519 -0.0164 -2.3093 -1.2514
 9496TIP3    H252684   1.822   5.127   1.658 -0.7261 -1.9639 -1.0614
 9497TIP3   OH252685   3.281   5.502   2.431  0.1169 -0.4459  0.0657
 9497TIP3    H152686   3.366   5.511   2.387  0.7548  0.4886  1.4071
 9497TIP3    H252687   3.227   5.570   2.390 -0.1197 -1.2581 -1.0243
 9498TIP3   OH252688   3.063   2.284   3.468 -0.0769 -0.5413  0.3641
 9498TIP3    H152689   3.115   2.315   3.394  1.9748 -1.6697  1.2497
 9498TIP3    H252690   3.037   2.364   3.514  0.8957  0.0692 -0.1096
 9499TIP3   OH252691   1.176   5.779   1.792 -0.3939 -0.2073 -0.4063
 9499TIP3    H152692   1.084   5.805   1.780  0.0149  1.5973  0.1881
 9499TIP3    H252693   1.219   5.807   1.711 -0.3239 -1.0006 -0.6586
 9500TIP3   OH252694   0.548   2.420   1.671 -0.0815 -0.3469  0.0337
 9500TIP3    H152695   0.590   2.504   1.690 -0.1144  0.4794 -3.0066
 9500TIP3    H252696   0.550   2.373   1.754  0.5415  2.3802  1.6926
 9501TIP3   OH252697   6.633   5.810   0.873  0.0801 -0.1320  0.2339
 9501TIP3    H152698   6.714   5.810   0.925  0.1527  1.2207  0.1523
 9501TIP3    H252699   6.591   5.727   0.894 -0.1436  0.5780  2.8410
 9502TIP3   OH252700   6.778   2.774   2.498 -0.0523  0.0262  0.7281
 9502TIP3    H152701   6.741   2.857   2.530  0.4128  1.1245 -1.4157
 9502TIP3    H252702   6.848   2.754   2.561 -0.0545  1.3619  1.1961
 9503TIP3   OH252703   4.919   4.706   2.297  0.7523  0.3990  0.1466
 9503TIP3    H152704   4.840   4.691   2.245  0.7923 -0.5269  0.3365
 9503TIP3    H252705   4.912   4.798   2.324  0.4262  0.7166 -0.9627
 9504TIP3   OH252706   2.096   4.711   0.923 -0.2992 -0.4338  0.0155
 9504TIP3    H152707   2.109   4.638   0.984 -1.5595  1.2300  2.4838
 9504TIP3    H252708   2.037   4.770   0.970 -0.4413  1.5262 -2.4410
 9505TIP3   OH252709   1.691   5.297   1.440 -0.1315 -0.6602 -0.2508
 9505TIP3    H152710   1.669   5.318   1.349  0.0099 -1.1306 -0.3927
 9505TIP3    H252711   1.751   5.367   1.467  1.2188 -1.4672 -1.0753
 9506TIP3   OH252712   0.277   0.254   2.006 -0.1988  0.6561 -0.1519
 9506TIP3    H152713   0.251   0.343   1.985 -0.7490  0.4395 -0.3985
 9506TIP3    H252714   0.201   0.200   1.983 -0.2498  0.2328  0.9498
 9507TIP3   OH252715   6.724   6.883   1.373 -0.0491  0.7742 -0.4235
 9507TIP3    H152716   6.811   6.908   1.342  0.1985  1.5377  0.8208
 9507TIP3    H252717   6.689   6.963   1.413 -0.7074  0.0780  0.4307
 9508TIP3   OH252718   3.325   5.838   2.472 -0.0598  0.0815  0.3660
 9508TIP3    H152719   3.383   5.898   2.425 -1.9661  0.3650 -1.7985
 9508TIP3    H252720   3.293   5.778   2.405  0.5092 -2.3936  2.1724
 9509TIP3   OH252721   2.890   1.447   1.107  0.3636  0.4225 -0.3639
 9509TIP3    H152722   2.938   1.529   1.094 -1.2359  1.2301 -1.5695
 9509TIP3    H252723   2.841   1.435   1.025 -0.0444 -1.3339  0.0989
 9510TIP3   OH252724   2.873   5.209   0.968 -0.1359  0.0946  0.1824
 9510TIP3    H152725   2.882   5.176   0.878  0.1986  1.0761 -0.1485
 9510TIP3    H252726   2.785   5.247   0.971  0.4757  1.5689 -0.2349
 9511TIP3   OH252727   5.704   1.782   1.516  0.3455 -0.6615 -0.3327
 9511TIP3    H152728   5.635   1.832   1.472 -1.6563 -1.7483  1.4365
 9511TIP3    H252729   5.785   1.823   1.486 -1.1005  2.1926 -0.7079
 9512TIP3   OH252730   7.220   4.118   1.127  0.4258 -0.1582 -0.0718
 9512TIP3    H152731   7.276   4.082   1.058  0.6344  0.4182 -0.2084
 9512TIP3    H252732   7.134   4.126   1.086  0.3588 -0.5679 -0.0166
 9513TIP3   OH252733   1.242   3.325   1.775  0.3427 -0.0098 -0.0084
 9513TIP3    H152734   1.289   3.293   1.853 -1.2207 -0.6750  0.7080
 9513TIP3    H252735   1.237   3.419   1.788  1.2311  0.0446  0.0273
 9514TIP3   OH252736   6.521   2.426   1.763 -0.3785  0.5449 -0.1280
 9514TIP3    H152737   6.601   2.442   1.813 -0.2236 -0.0634 -0.1772
 9514TIP3    H252738   6.461   2.387   1.826 -0.4751  0.5656 -0.2070
 9515TIP3   OH252739   2.949   2.667   2.953  0.2741  0.1120  0.3512
 9515TIP3    H152740   2.921   2.608   3.024  0.1154  1.6756  1.6597
 9515TIP3    H252741   2.912   2.628   2.874 -1.0639 -0.7686  1.3451
 9516TIP3   OH252742   3.931   6.731   0.649  0.2525  0.2317  0.0169
 9516TIP3    H152743   3.962   6.821   0.639 -0.2249  0.4360  0.3631
 9516TIP3    H252744   3.902   6.725   0.739 -1.4307  0.2708 -0.4966
 9517TIP3   OH252745   6.986   6.154   0.645  0.0003 -0.0256  0.0847
 9517TIP3    H152746   7.067   6.184   0.687  2.1441 -1.3811 -2.7308
 9517TIP3    H252747   6.929   6.231   0.646  2.1103  1.6518  0.3448
 9518TIP3   OH252748   5.607   1.538   1.994  0.3360  0.1903  0.4849
 9518TIP3    H152749   5.693   1.508   1.964  0.0217 -0.3078  0.0592
 9518TIP3    H252750   5.609   1.633   1.982  0.4514  0.0694 -0.5152
 9519TIP3   OH252751   4.680   3.728   2.207  0.2519  0.0352  0.4676
 9519TIP3    H152752   4.632   3.677   2.142  0.5231 -1.2097  1.1997
 9519TIP3    H252753   4.613   3.780   2.251 -0.1484 -0.2704  0.2238
 9520TIP3   OH252754   5.546   0.989   1.198 -0.4866 -0.1898  0.1148
 9520TIP3    H152755   5.556   1.083   1.215 -0.5089 -0.6115  2.8692
 9520TIP3    H252756   5.459   0.981   1.157 -0.7078  0.9229  0.3406
 9521TIP3   OH252757   6.186   5.205   0.693 -0.3771  0.5260 -0.1261
 9521TIP3    H152758   6.235   5.281   0.661  0.0890 -0.3593 -1.6348
 9521TIP3    H252759   6.094   5.229   0.682 -0.2463  1.1999  0.2380
 9522TIP3   OH252760   3.209   4.592   1.518  0.8044 -0.7095  0.0413
 9522TIP3    H152761   3.216   4.543   1.599 -3.2674  1.0665  1.7240
 9522TIP3    H252762   3.215   4.526   1.449 -0.9293 -3.0812  2.0102
 9523TIP3   OH252763   3.737   4.989   1.068  0.6897  0.7225 -0.0777
 9523TIP3    H152764   3.757   5.078   1.098 -1.1506  1.4739 -0.9166
 9523TIP3    H252765   3.642   4.981   1.080  0.9810 -1.6403  1.2370
 9524TIP3   OH252766   0.385   2.698   3.230  0.1661  0.0934 -0.0910
 9524TIP3    H152767   0.456   2.710   3.294 -0.3847 -0.4998  0.6421
 9524TIP3    H252768   0.314   2.658   3.280 -0.3400 -0.2171 -1.0454
 9525TIP3   OH252769   5.837   6.885   2.839 -0.0768 -0.3849 -0.1988
 9525TIP3    H152770   5.791   6.895   2.756  0.7619  0.9457 -0.5245
 9525TIP3    H252771   5.811   6.798   2.870 -1.2397 -0.4712 -1.3178
 9526TIP3   OH252772   0.758   4.452   2.502  0.2328 -0.1892 -0.1976
 9526TIP3    H152773   0.817   4.519   2.538  1.5168 -1.4346  0.1461
 9526TIP3    H252774   0.760   4.382   2.567 -1.6269 -0.3127 -0.2177
 9527TIP3   OH252775   0.362   2.998   2.206  0.6393  0.4406 -0.4729
 9527TIP3    H152776   0.354   3.017   2.300  3.0640 -2.2255  0.4418
 9527TIP3    H252777   0.274   2.976   2.178  0.1360 -0.6921  1.7684
 9528TIP3   OH252778   7.500   4.478   1.934 -0.1714 -0.2393 -0.4224
 9528TIP3    H152779   7.418   4.428   1.935 -0.7297  0.4469 -2.8452
 9528TIP3    H252780   7.482   4.554   1.990 -0.4283 -1.1315  0.7372
 9529TIP3   OH252781   5.436   7.525   2.882 -0.3831  0.0370  0.2757
 9529TIP3    H152782   5.495   7.547   2.810 -0.0707 -0.4323  0.3851
 9529TIP3    H252783   5.484   7.459   2.933 -1.1196 -0.5648  0.2023
 9530TIP3   OH252784   0.309   6.390   0.851  0.1451 -0.1187  0.6367
 9530TIP3    H152785   0.350   6.307   0.878 -0.4125 -0.9971 -1.0496
 9530TIP3    H252786   0.230   6.396   0.904  0.5148 -0.3221  1.2282
 9531TIP3   OH252787   7.204   7.389   2.458 -0.4802 -0.8889  0.0522
 9531TIP3    H152788   7.190   7.441   2.537  1.2250  0.3375 -0.4106
 9531TIP3    H252789   7.145   7.428   2.393 -1.3100 -1.4043  0.4716
 9532TIP3   OH252790   2.066   1.905   2.555 -0.6382  0.3275 -0.4951
 9532TIP3    H152791   2.047   1.948   2.471 -0.5204 -0.2069 -0.7976
 9532TIP3    H252792   2.039   1.969   2.621  0.2274  1.1736 -0.9395
 9533TIP3   OH252793   1.986   1.627   2.503  0.1646  0.1264  0.1155
 9533TIP3    H152794   2.032   1.632   2.419  1.2497 -2.1038  0.5221
 9533TIP3    H252795   1.997   1.714   2.542  0.4049  0.9158 -1.6267
 9534TIP3   OH252796   0.190   5.775   1.361  0.1032 -0.1682 -0.7459
 9534TIP3    H152797   0.240   5.856   1.368  0.1673 -0.0736 -2.0052
 9534TIP3    H252798   0.175   5.748   1.452 -0.4741  1.5774 -0.2845
 9535TIP3   OH252799   5.129   2.669   0.472 -0.3231 -0.2243 -0.8373
 9535TIP3    H152800   5.103   2.594   0.526 -1.2102  0.4716 -0.2662
 9535TIP3    H252801   5.067   2.738   0.495  0.4555  0.6841 -1.3787
 9536TIP3   OH252802   6.681   7.205   2.464  0.2814 -0.0537  0.5739
 9536TIP3    H152803   6.765   7.159   2.461  0.6601  0.6594 -0.3446
 9536TIP3    H252804   6.623   7.151   2.410  0.7709  0.5945 -0.6463
 9537TIP3   OH252805   1.691   5.221   1.039  0.7240  0.4636  0.4314
 9537TIP3    H152806   1.604   5.206   1.075  0.4251 -1.5609 -0.9805
 9537TIP3    H252807   1.744   5.149   1.074  1.4207  0.7466 -0.0181
 9538TIP3   OH252808   3.455   3.327   1.596  0.2009  0.3833 -0.3693
 9538TIP3    H152809   3.528   3.344   1.536  0.5312 -0.6377 -0.2668
 9538TIP3    H252810   3.385   3.294   1.540  0.4577 -0.4252 -0.2167
 9539TIP3   OH252811   0.474   0.199   1.049 -0.2228  0.1938  0.6114
 9539TIP3    H152812   0.441   0.232   0.965  0.3455 -1.5767 -0.3649
 9539TIP3    H252813   0.530   0.269   1.083 -0.2687  0.8435 -0.6158
 9540TIP3   OH252814   2.352   5.632   1.970  0.7022  0.2479  0.4101
 9540TIP3    H152815   2.337   5.718   1.931  0.3005  0.8330  1.8176
 9540TIP3    H252816   2.377   5.576   1.895  0.6093  1.4783 -0.5716
 9541TIP3   OH252817   6.256   2.711   1.921  0.0168 -0.3179  0.4076
 9541TIP3    H152818   6.335   2.745   1.878 -0.3876 -0.2923 -0.3198
 9541TIP3    H252819   6.245   2.768   1.998 -0.5677  1.1616 -0.7134
 9542TIP3   OH252820   2.186   3.912   2.245  0.0804 -0.2826 -0.0350
 9542TIP3    H152821   2.237   3.912   2.164 -1.6240  0.0893 -1.1641
 9542TIP3    H252822   2.194   3.823   2.279  0.0818 -0.7053 -1.1101
 9543TIP3   OH252823   6.051   7.585   1.897 -0.0636  0.6171  0.4518
 9543TIP3    H152824   6.083   7.609   1.984  0.7187  0.1259  0.3087
 9543TIP3    H252825   5.958   7.568   1.909 -0.0030  0.7728  1.1497
 9544TIP3   OH252826   4.117   6.333   0.631  0.2990  0.0780 -0.4531
 9544TIP3    H152827   4.195   6.279   0.629  0.5182  0.3175  1.0355
 9544TIP3    H252828   4.140   6.410   0.578  0.9796  0.0307 -0.2294
 9545TIP3   OH252829   2.763   4.867   1.449  0.0792 -0.4945 -0.0497
 9545TIP3    H152830   2.849   4.835   1.476  0.8000  0.8449 -0.6629
 9545TIP3    H252831   2.761   4.855   1.354 -1.4918 -2.9457  0.2027
 9546TIP3   OH252832   4.109   4.935   1.592 -0.3339 -0.2153 -0.3037
 9546TIP3    H152833   4.184   4.887   1.626 -1.8727 -2.8782 -0.4051
 9546TIP3    H252834   4.143   4.982   1.515  1.3623 -0.7275  0.0964
 9547TIP3   OH252835   5.209   0.828   1.355  0.3040  0.1955  0.0074
 9547TIP3    H152836   5.247   0.860   1.273  3.0766 -1.6798  0.4117
 9547TIP3    H252837   5.132   0.779   1.329  1.0586 -0.2406 -1.4878
 9548TIP3   OH252838   0.558   7.013   1.905 -0.3358 -0.4192  0.1726
 9548TIP3    H152839   0.630   6.983   1.849 -0.5291  0.1767 -0.4074
 9548TIP3    H252840   0.483   7.021   1.846 -0.4989  0.3817  0.4763
 9549TIP3   OH252841   0.583   2.044   2.380  0.6231 -0.0513 -0.0440
 9549TIP3    H152842   0.557   1.984   2.311  0.2608  0.5627 -0.4468
 9549TIP3    H252843   0.653   2.097   2.341  0.4613  0.2531  0.0706
 9550TIP3   OH252844   6.544   5.184   1.466  0.3859  0.0630 -0.3375
 9550TIP3    H152845   6.619   5.227   1.506  0.2144  0.2057 -0.1691
 9550TIP3    H252846   6.579   5.101   1.432  0.3780 -0.4300  0.8172
 9551TIP3   OH252847   3.829   7.167   3.130  0.0195  0.3591 -0.3958
 9551TIP3    H152848   3.896   7.107   3.098 -0.0226  0.6804 -1.1275
 9551TIP3    H252849   3.764   7.170   3.059  0.2437  1.5881 -0.5772
 9552TIP3   OH252850   6.783   6.406   1.203 -0.0987  0.0430 -0.3762
 9552TIP3    H152851   6.850   6.466   1.237  0.1686  0.1423 -1.0587
 9552TIP3    H252852   6.736   6.376   1.281  1.7901 -1.3291  0.3147
 9553TIP3   OH252853   3.239   7.199   1.208 -0.4833  0.3377 -0.2472
 9553TIP3    H152854   3.271   7.199   1.298 -0.3991  0.4381 -0.2767
 9553TIP3    H252855   3.145   7.181   1.216 -0.4357  0.1333 -0.1558
 9554TIP3   OH252856   3.664   2.633   0.777 -0.7482 -0.2269  0.2833
 9554TIP3    H152857   3.618   2.590   0.704 -1.1205  3.5289 -1.9355
 9554TIP3    H252858   3.594   2.663   0.835 -0.6897  0.0222  0.2249
 9555TIP3   OH252859   6.287   5.760   1.495 -0.2887 -0.2741 -0.4674
 9555TIP3    H152860   6.297   5.813   1.415  0.6939  0.7712  0.3104
 9555TIP3    H252861   6.373   5.764   1.537 -0.8446 -0.6487  0.7389
 9556TIP3   OH252862   1.967   1.734   2.217  0.1367  0.0691  0.4990
 9556TIP3    H152863   2.005   1.657   2.173 -0.1450  0.2283 -0.0377
 9556TIP3    H252864   1.883   1.747   2.173  1.1042  1.9794 -0.9395
 9557TIP3   OH252865   4.641   1.265   1.390 -0.6329  0.6768  0.7949
 9557TIP3    H152866   4.568   1.303   1.341  0.0871 -0.4553 -1.2995
 9557TIP3    H252867   4.676   1.339   1.440 -1.6448  1.8502 -0.1379
 9558TIP3   OH252868   7.163   5.904   2.234  0.6861 -0.2915  0.2335
 9558TIP3    H152869   7.132   5.847   2.163 -1.5066  1.0245  0.0730
 9558TIP3    H252870   7.197   5.981   2.189 -0.2197  0.3159  0.5751
 9559TIP3   OH252871   3.381   3.696   0.593 -0.3116  0.3110 -0.4451
 9559TIP3    H152872   3.295   3.681   0.556 -0.3071  0.0178 -0.3366
 9559TIP3    H252873   3.367   3.692   0.688 -0.8314  3.5904 -0.2621
 9560TIP3   OH252874   5.432   0.724   2.991 -0.4101 -0.2054  0.1157
 9560TIP3    H152875   5.343   0.690   2.999 -0.3650  0.1871  3.9485
 9560TIP3    H252876   5.420   0.819   2.982 -0.3232 -0.3710 -3.1378
 9561TIP3   OH252877   0.151   6.346   0.618  0.1450 -0.3806  0.6016
 9561TIP3    H152878   0.214   6.358   0.689  0.7274 -3.2691  0.6912
 9561TIP3    H252879   0.190   6.279   0.561 -1.4615 -0.0269 -1.0367
 9562TIP3   OH252880   5.517   7.438   1.155 -0.3706 -0.1627 -0.0945
 9562TIP3    H152881   5.544   7.530   1.148  0.7259 -0.3978  0.6862
 9562TIP3    H252882   5.578   7.400   1.218  0.4782 -1.9277 -1.8689
 9563TIP3   OH252883   7.054   6.005   1.802  0.0214 -0.1360 -0.1788
 9563TIP3    H152884   7.030   5.984   1.712 -0.3310 -0.1765 -0.0783
 9563TIP3    H252885   7.034   5.925   1.851  0.9763 -0.4034 -0.1917
 9564TIP3   OH252886   5.297   0.924   1.109 -0.4825 -0.3831  0.9754
 9564TIP3    H152887   5.269   0.844   1.064  2.9783 -2.4241  2.0357
 9564TIP3    H252888   5.275   0.995   1.048 -4.3787 -1.9260  0.2887
 9565TIP3   OH252889   2.935   4.301   2.556  0.1417  0.3520 -0.4734
 9565TIP3    H152890   2.909   4.387   2.589 -0.7581 -0.3622  0.7758
 9565TIP3    H252891   2.952   4.249   2.635  1.7930 -0.3114 -1.2151
 9566TIP3   OH252892   3.801   2.109   0.693 -0.1409 -0.0412 -0.4744
 9566TIP3    H152893   3.736   2.137   0.758  2.1604 -0.0951  2.0641
 9566TIP3    H252894   3.808   2.014   0.705 -0.0487 -0.1221 -1.1504
 9567TIP3   OH252895   5.708   5.074   3.325 -0.1821  0.1988  0.4886
 9567TIP3    H152896   5.695   5.022   3.404 -0.6684  1.5039  1.2897
 9567TIP3    H252897   5.722   5.009   3.256 -1.8645 -1.0390  1.2450
 9568TIP3   OH252898   2.546   3.154   2.495 -0.5685  0.0541  0.5015
 9568TIP3    H152899   2.452   3.138   2.501 -0.7280  1.0633  0.8534
 9568TIP3    H252900   2.560   3.185   2.405 -0.3411 -1.4351 -0.0052
 9569TIP3   OH252901   4.174   2.349   2.511  0.2052  0.3891 -0.6715
 9569TIP3    H152902   4.137   2.270   2.550  0.9131  0.4630  0.1779
 9569TIP3    H252903   4.127   2.359   2.428 -0.5673 -0.3807 -0.3456
 9570TIP3   OH252904   1.625   7.206   3.111 -0.3571  0.0672 -0.3334
 9570TIP3    H152905   1.537   7.243   3.116 -0.1012  0.8571 -1.2359
 9570TIP3    H252906   1.632   7.171   3.022 -0.0305 -0.7057 -0.0105
 9571TIP3   OH252907   2.758   6.013   2.396  0.6810 -0.1108  0.6493
 9571TIP3    H152908   2.675   5.966   2.384  0.8463 -0.2448  0.0075
 9571TIP3    H252909   2.776   6.005   2.490 -0.1594  0.1394  0.8452
 9572TIP3   OH252910   4.764   5.361   1.218 -0.0308 -0.2540  0.1465
 9572TIP3    H152911   4.724   5.307   1.285  2.1894  0.3104  2.0471
 9572TIP3    H252912   4.784   5.444   1.262  1.9980 -0.0551 -0.9847
 9573TIP3   OH252913   6.967   5.223   0.847  0.0135 -0.4163  0.5466
 9573TIP3    H152914   6.992   5.140   0.807  1.2345  0.3874 -0.4300
 9573TIP3    H252915   6.875   5.211   0.871 -0.1560 -1.6592 -0.6004
 9574TIP3   OH252916   2.731   5.339   0.609 -0.6004  0.6995 -0.8292
 9574TIP3    H152917   2.766   5.268   0.663 -2.4535  1.4036  1.4500
 9574TIP3    H252918   2.675   5.295   0.544 -1.4575  0.0064  0.3405
 9575TIP3   OH252919   1.846   4.121   1.339 -0.2996  0.1346 -0.3574
 9575TIP3    H152920   1.766   4.146   1.293  0.0257 -0.5095 -1.2923
 9575TIP3    H252921   1.839   4.027   1.352 -0.1306  0.2223  0.4251
 9576TIP3   OH252922   3.309   4.876   2.236  0.3895  0.0579 -0.6580
 9576TIP3    H152923   3.289   4.938   2.166 -1.0279 -0.1466 -0.4579
 9576TIP3    H252924   3.237   4.885   2.298  0.4403 -1.3909 -0.3508
 9577TIP3   OH252925   0.461   4.314   2.970 -0.2094  0.4754 -0.5293
 9577TIP3    H152926   0.460   4.376   3.043  0.7413  1.3295 -1.1987
 9577TIP3    H252927   0.419   4.361   2.898 -0.5052 -0.0876 -0.7242
 9578TIP3   OH252928   6.239   7.606   2.118 -0.0565 -0.1266  0.0920
 9578TIP3    H152929   6.267   7.531   2.065 -2.0373 -0.9148  0.0973
 9578TIP3    H252930   6.319   7.659   2.129  0.8089 -0.8820 -2.1076
 9579TIP3   OH252931   3.572   5.928   2.900 -0.3528 -0.5517 -0.7806
 9579TIP3    H152932   3.585   5.988   2.973  0.2114 -1.7959  0.1755
 9579TIP3    H252933   3.633   5.958   2.833  0.4909 -0.5249 -0.0138
 9580TIP3   OH252934   1.245   6.769   2.409 -0.0264  0.0236  0.2237
 9580TIP3    H152935   1.262   6.747   2.501 -2.0816 -0.8301  0.4535
 9580TIP3    H252936   1.280   6.696   2.359  0.3261  0.0804  0.3879
 9581TIP3   OH252937   4.738   1.529   2.650  0.2758 -0.3420  0.1101
 9581TIP3    H152938   4.769   1.612   2.686 -0.0269  0.2043 -0.8612
 9581TIP3    H252939   4.673   1.498   2.713  0.1519  0.3245  0.3158
 9582TIP3   OH252940   2.654   3.577   3.132  0.5059  0.2970  0.5370
 9582TIP3    H152941   2.600   3.564   3.210  0.0268 -0.7691  0.0504
 9582TIP3    H252942   2.692   3.491   3.115  0.7143  0.5485 -0.3194
 9583TIP3   OH252943   0.974   6.712   1.462 -0.2587  0.1419  0.3194
 9583TIP3    H152944   0.982   6.720   1.367 -0.7851  0.2021  0.2778
 9583TIP3    H252945   1.011   6.794   1.496  3.3824 -1.3038  0.3810
 9584TIP3   OH252946   2.009   1.551   1.729 -0.5545  0.0204 -0.2193
 9584TIP3    H152947   2.015   1.553   1.634 -1.7477  1.4663 -0.3025
 9584TIP3    H252948   2.086   1.598   1.760  0.5382 -1.5776 -0.3851
 9585TIP3   OH252949   3.582   4.261   1.846  0.0633 -0.2488  0.0289
 9585TIP3    H152950   3.633   4.232   1.923 -1.2021 -0.6619  0.7392
 9585TIP3    H252951   3.622   4.344   1.822  1.6529 -0.9715 -0.0015
 9586TIP3   OH252952   5.492   2.717   2.560 -0.2204 -0.0151  0.2099
 9586TIP3    H152953   5.475   2.694   2.468 -0.9692  0.3932  0.2341
 9586TIP3    H252954   5.547   2.646   2.593 -1.2013 -0.9662 -0.1393
 9587TIP3   OH252955   7.000   3.015   1.145 -0.4610  0.1431  0.1127
 9587TIP3    H152956   6.940   3.052   1.211  0.5591 -1.6671  2.2127
 9587TIP3    H252957   6.943   2.990   1.073 -1.4927  3.2294 -0.2815
 9588TIP3   OH252958   1.198   5.118   2.053  0.0827 -0.4674 -0.3678
 9588TIP3    H152959   1.252   5.092   1.978 -1.7741 -2.0355 -1.2514
 9588TIP3    H252960   1.172   5.208   2.035  0.0620 -0.6710 -1.3839
 9589TIP3   OH252961   1.289   7.058   1.064  0.2493  0.8433  0.4287
 9589TIP3    H152962   1.337   6.975   1.062 -2.1201 -0.6470 -2.1266
 9589TIP3    H252963   1.340   7.118   1.010 -0.2089 -0.4570 -1.5516
 9590TIP3   OH252964   0.523   3.853   0.446  0.0322  0.0557 -0.5382
 9590TIP3    H152965   0.457   3.858   0.377 -0.8218  1.3784  0.3202
 9590TIP3    H252966   0.516   3.764   0.480 -0.9126 -0.0045 -0.8596
 9591TIP3   OH252967   0.459   3.953   1.771 -0.4806  0.5739  0.3413
 9591TIP3    H152968   0.372   3.958   1.730 -0.2091  0.6310 -0.2373
 9591TIP3    H252969   0.443   3.910   1.855 -0.7036 -1.8210 -0.8457
 9592TIP3   OH252970   5.231   6.800   1.470 -0.1678 -0.3573 -0.0753
 9592TIP3    H152971   5.163   6.777   1.534  0.7799 -0.1655  1.0529
 9592TIP3    H252972   5.287   6.862   1.517  1.3330 -1.2469 -0.6367
 9593TIP3   OH252973   1.864   1.979   1.614 -0.4171  0.0068  0.2992
 9593TIP3    H152974   1.881   1.942   1.700  0.2699 -0.9584 -0.2258
 9593TIP3    H252975   1.908   2.064   1.614  1.4493 -0.9087  0.1948
 9594TIP3   OH252976   3.052   0.854   0.787  0.1078 -0.6463 -0.5188
 9594TIP3    H152977   3.069   0.947   0.777 -3.2659  0.0159 -1.1853
 9594TIP3    H252978   3.047   0.841   0.882  0.4249 -0.1218 -0.4253
 9595TIP3   OH252979   3.689   4.690   2.819  0.2713 -0.8715  0.2820
 9595TIP3    H152980   3.727   4.605   2.793 -0.7411 -1.1724 -0.2562
 9595TIP3    H252981   3.762   4.737   2.859  1.3479 -1.2686 -1.1039
 9596TIP3   OH252982   7.144   4.747   0.772 -0.1301 -0.8747 -0.0911
 9596TIP3    H152983   7.194   4.691   0.713  0.3386 -0.2277 -0.3179
 9596TIP3    H252984   7.053   4.719   0.759 -0.1071 -0.4021 -1.5183
 9597TIP3   OH252985   5.206   1.449   1.829 -0.2318 -0.4757 -0.1432
 9597TIP3    H152986   5.267   1.377   1.816  1.2125  0.7655 -0.5234
 9597TIP3    H252987   5.136   1.434   1.765  0.1058 -1.4623 -0.2875
 9598TIP3   OH252988   6.607   0.243   1.226  0.1443 -0.3047  0.2166
 9598TIP3    H152989   6.580   0.213   1.313 -0.3103 -2.0589 -0.4965
 9598TIP3    H252990   6.700   0.222   1.221 -0.1443 -1.5699 -0.2324
 9599TIP3   OH252991   1.659   6.945   1.553  0.4753 -0.2474 -0.7387
 9599TIP3    H152992   1.598   6.879   1.519  0.4952 -0.2340 -0.7996
 9599TIP3    H252993   1.678   6.916   1.643 -0.6838  0.4678 -0.2369
 9600TIP3   OH252994   7.492   0.352   2.916 -0.5636 -0.7053 -0.1846
 9600TIP3    H152995   7.537   0.409   2.978 -1.5103 -1.6517  1.4401
 9600TIP3    H252996   7.562   0.305   2.871  0.1439  0.1375  0.0241
 9601TIP3   OH252997   2.688   7.165   2.220  0.0428 -0.4047 -0.2955
 9601TIP3    H152998   2.623   7.227   2.189 -0.4318 -0.8816 -0.2635
 9601TIP3    H252999   2.641   7.110   2.283  0.4970 -0.6948 -0.2048
 9602TIP3   OH253000   2.501   2.448   1.373  0.9262 -0.1810 -0.3003
 9602TIP3    H153001   2.484   2.412   1.460  0.6611  2.6689  0.9397
 9602TIP3    H253002   2.447   2.395   1.314 -0.1414 -1.1684  1.4820
 9603TIP3   OH253003   2.718   4.000   2.676  0.1779  0.8527 -0.0617
 9603TIP3    H153004   2.701   4.032   2.765 -0.2965  0.1432  0.1079
 9603TIP3    H253005   2.721   4.079   2.622 -0.3702  1.2318  0.4514
 9604TIP3   OH253006   4.765   5.468   0.622 -0.4572 -0.1877 -0.1360
 9604TIP3    H153007   4.724   5.547   0.658 -0.0075 -0.1383  0.2763
 9604TIP3    H253008   4.700   5.399   0.635 -0.7040  0.0375 -0.1617
 9605TIP3   OH253009   0.664   5.272   3.225  0.0056 -0.0010  0.1235
 9605TIP3    H153010   0.751   5.233   3.218 -1.1666 -2.8463  0.2171
 9605TIP3    H253011   0.627   5.265   3.137 -0.9321 -0.9785  0.5658
 9606TIP3   OH253012   7.162   2.023   0.929  0.0655 -0.5392  0.3670
 9606TIP3    H153013   7.189   2.002   0.840  0.9574  2.9603 -0.3607
 9606TIP3    H253014   7.072   2.056   0.920  0.1489 -0.2007  0.7358
 9607TIP3   OH253015   3.719   0.261   1.287  0.1348 -0.2515 -0.2044
 9607TIP3    H153016   3.654   0.242   1.219 -1.5723 -1.1754  1.5546
 9607TIP3    H253017   3.803   0.244   1.245 -0.8821 -1.8249 -1.7933
 9608TIP3   OH253018   2.523   6.221   2.755  0.3874  0.1511  0.2336
 9608TIP3    H153019   2.607   6.253   2.724  0.6889 -0.4065  0.4455
 9608TIP3    H253020   2.469   6.211   2.676  0.1784  1.4466  0.1990
 9609TIP3   OH253021   7.208   0.736   1.814 -0.2662 -0.7010 -0.4581
 9609TIP3    H153022   7.214   0.674   1.886  1.5007 -0.8362 -0.6713
 9609TIP3    H253023   7.197   0.822   1.856 -0.3642 -0.9015 -0.0750
 9610TIP3   OH253024   0.175   5.725   0.835  0.3623 -0.0716 -0.0113
 9610TIP3    H153025   0.155   5.728   0.928  0.6775 -1.1939  0.1019
 9610TIP3    H253026   0.205   5.814   0.814  1.4827 -0.1380  1.2295
 9611TIP3   OH253027   0.722   4.676   2.932 -0.3682  0.4529  0.0479
 9611TIP3    H153028   0.632   4.666   2.962  0.1686  0.4966  1.7995
 9611TIP3    H253029   0.753   4.586   2.918 -0.5108  0.4123 -0.0051
 9612TIP3   OH253030   2.286   2.840   0.764  0.4214  0.2809  0.1253
 9612TIP3    H153031   2.216   2.892   0.725  1.4210  0.3136 -1.7368
 9612TIP3    H253032   2.255   2.750   0.757  0.3740  0.3270 -0.2907
 9613TIP3   OH253033   5.935   2.177   2.511  0.4961  0.1034  0.0140
 9613TIP3    H153034   6.001   2.112   2.535  0.6246 -0.2870 -1.3291
 9613TIP3    H253035   5.978   2.232   2.445 -0.1751  0.4938 -0.1039
 9614TIP3   OH253036   0.891   6.366   1.288  0.0621  0.1634 -0.2549
 9614TIP3    H153037   0.830   6.432   1.323  0.4080 -0.1383  0.9602
 9614TIP3    H253038   0.910   6.309   1.363  2.2281  0.5429 -0.4734
 9615TIP3   OH253039   2.417   7.558   0.849 -0.1805 -0.1438 -0.5788
 9615TIP3    H153040   2.331   7.597   0.866 -0.2903  0.0203 -1.4213
 9615TIP3    H253041   2.408   7.467   0.874 -0.4158  0.0151 -0.0849
 9616TIP3   OH253042   2.167   6.696   1.136  0.0152 -0.5585  0.3355
 9616TIP3    H153043   2.082   6.711   1.096 -0.1788 -2.3078  0.0406
 9616TIP3    H253044   2.153   6.710   1.230  0.5091  3.7315 -0.0154
 9617TIP3   OH253045   0.338   1.526   1.398  0.3102  0.1675 -0.5396
 9617TIP3    H153046   0.250   1.558   1.420  0.8229  0.5058  1.1691
 9617TIP3    H253047   0.349   1.549   1.305 -1.3520  0.2074 -0.7637
 9618TIP3   OH253048   3.288   3.944   0.694  0.5257  0.3882 -0.2989
 9618TIP3    H153049   3.201   3.957   0.657 -0.0467 -1.5045  0.3003
 9618TIP3    H253050   3.325   3.871   0.644  0.5874 -0.7761  1.3763
 9619TIP3   OH253051   6.990   2.982   2.377 -0.3678 -0.5069 -0.4286
 9619TIP3    H153052   7.068   2.997   2.323 -0.8762 -0.9840 -1.3222
 9619TIP3    H253053   7.018   2.921   2.444  0.2142 -0.0997 -0.2928
 9620TIP3   OH253054   4.597   1.608   0.749  0.5003 -0.0769 -0.6624
 9620TIP3    H153055   4.545   1.688   0.752  0.4957 -0.0746 -0.8489
 9620TIP3    H253056   4.670   1.625   0.809 -0.3579 -0.5315  0.5638
 9621TIP3   OH253057   2.340   2.694   1.860  0.0078 -0.3037  0.5151
 9621TIP3    H153058   2.273   2.746   1.815  0.5278  1.8856  2.0720
 9621TIP3    H253059   2.356   2.620   1.802 -3.0963 -0.4485 -0.3286
 9622TIP3   OH253060   3.587   7.648   2.230  0.2783 -0.2829 -0.0270
 9622TIP3    H153061   3.492   7.639   2.236  0.2525 -0.0076  0.0107
 9622TIP3    H253062   3.622   7.560   2.245  0.0079 -0.4737 -0.5003
 9623TIP3   OH253063   3.017   7.348   0.894 -0.4522 -0.6804  0.1971
 9623TIP3    H153064   3.023   7.434   0.852 -1.8628 -0.2926  0.7590
 9623TIP3    H253065   3.101   7.307   0.873 -0.7298 -0.1939 -2.3038
 9624TIP3   OH253066   1.411   4.188   0.697  0.4231 -0.0864 -0.3568
 9624TIP3    H153067   1.460   4.111   0.725 -1.4479 -0.1618  3.2710
 9624TIP3    H253068   1.441   4.258   0.756 -0.5645  1.0456 -1.1413
 9625TIP3   OH253069   5.652   4.893   1.185  0.1392 -0.4543 -0.1897
 9625TIP3    H153070   5.627   4.815   1.136  0.3007 -0.8037  0.2759
 9625TIP3    H253071   5.727   4.929   1.137 -0.3378 -0.2164 -0.7681
 9626TIP3   OH253072   4.872   6.313   0.680 -0.0060  0.3720  0.2553
 9626TIP3    H153073   4.950   6.340   0.630  0.2123  0.6371  0.7371
 9626TIP3    H253074   4.860   6.382   0.745 -0.4170  0.1318  0.4360
 9627TIP3   OH253075   2.445   5.278   2.586  0.3543  0.2517 -0.2913
 9627TIP3    H153076   2.450   5.370   2.561  0.3218  0.6323  1.0288
 9627TIP3    H253077   2.448   5.279   2.682 -2.1858 -0.9266 -0.1250
 9628TIP3   OH253078   1.165   7.494   0.454  0.1781  0.4394 -0.0317
 9628TIP3    H153079   1.253   7.460   0.472 -0.5296 -0.8138  1.2267
 9628TIP3    H253080   1.106   7.425   0.482 -1.2726  1.8128  0.4630
 9629TIP3   OH253081   1.352   1.838   3.451 -0.7325  0.8328  0.5144
 9629TIP3    H153082   1.338   1.756   3.405 -1.1694  1.5357 -0.6444
 9629TIP3    H253083   1.270   1.855   3.497 -0.2311  0.0325  1.7805
 9630TIP3   OH253084   6.987   3.411   2.677  0.6181 -0.1125 -0.4026
 9630TIP3    H153085   6.981   3.501   2.707  4.6278  0.4284 -0.7045
 9630TIP3    H253086   7.010   3.361   2.755  0.3735 -0.5555 -0.6081
 9631TIP3   OH253087   2.202   4.381   2.317 -0.1402 -0.2600  0.3149
 9631TIP3    H153088   2.218   4.292   2.346 -0.1673 -0.0344  1.0412
 9631TIP3    H253089   2.265   4.434   2.366  0.0543  0.0953 -0.3016
 9632TIP3   OH253090   6.321   6.074   2.677 -0.0683  0.1678 -0.5062
 9632TIP3    H153091   6.309   6.027   2.594  0.1073  2.5465 -1.9827
 9632TIP3    H253092   6.235   6.113   2.694 -0.4307 -1.1915  1.1107
 9633TIP3   OH253093   4.613   4.046   1.597  0.3872 -0.1112  0.4846
 9633TIP3    H153094   4.537   4.005   1.558  0.8418  0.1582 -0.7240
 9633TIP3    H253095   4.664   3.973   1.633 -0.0965 -0.3503  0.6952
 9634TIP3   OH253096   6.015   1.822   0.823  0.4357 -0.1709 -0.1321
 9634TIP3    H153097   6.046   1.884   0.888  1.7937  1.4572 -2.1698
 9634TIP3    H253098   5.920   1.828   0.826  0.5072  2.6430 -0.7114
 9635TIP3   OH253099   3.628   4.107   0.650 -1.0187  0.4373 -0.2022
 9635TIP3    H153100   3.575   4.186   0.654 -0.8118  0.6839 -1.7702
 9635TIP3    H253101   3.570   4.038   0.682 -1.0656  1.2443  1.6064
 9636TIP3   OH253102   1.998   0.102   1.488 -0.1592  0.5104  0.1493
 9636TIP3    H153103   2.031   0.148   1.410 -1.8878  0.0552 -0.9183
 9636TIP3    H253104   1.954   0.170   1.539 -1.3671  0.3674 -0.6558
 9637TIP3   OH253105   3.001   2.428   1.774  0.2891 -0.3122 -0.2404
 9637TIP3    H153106   2.949   2.350   1.755 -0.8669  0.3113  0.2555
 9637TIP3    H253107   2.966   2.461   1.856  0.5973  0.8701 -0.5631
 9638TIP3   OH253108   2.381   3.762   3.072  0.1647  0.4178  0.6415
 9638TIP3    H153109   2.433   3.839   3.050 -0.6047  0.2705 -1.9952
 9638TIP3    H253110   2.445   3.698   3.104  1.2546  1.0657 -0.1803
 9639TIP3   OH253111   5.965   3.997   1.805 -0.4337  0.1994  0.0122
 9639TIP3    H153112   5.980   4.078   1.853 -0.8646  0.9330 -1.0665
 9639TIP3    H253113   6.039   3.990   1.744 -0.3407 -0.2819  0.1696
 9640TIP3   OH253114   1.988   3.933   1.132 -0.1968  0.0255 -0.1802
 9640TIP3    H153115   1.934   3.894   1.201  1.2714 -0.5621  0.6802
 9640TIP3    H253116   2.061   3.974   1.178  0.4054  0.3138 -1.3379
 9641TIP3   OH253117   5.148   0.094   2.636  0.1266  0.3230 -0.1363
 9641TIP3    H153118   5.096   0.148   2.696 -1.7343 -1.9543  0.4379
 9641TIP3    H253119   5.193   0.157   2.580 -1.1595  2.4559  1.0903
 9642TIP3   OH253120   4.239   5.529   1.156  0.5104 -0.0477 -0.3634
 9642TIP3    H153121   4.277   5.442   1.164 -1.6225 -0.8438  3.3629
 9642TIP3    H253122   4.275   5.578   1.230 -0.3544  1.3815 -0.8451
 9643TIP3   OH253123   7.274   3.741   2.271 -0.3695  0.5303  0.0140
 9643TIP3    H153124   7.220   3.661   2.266  0.2181  0.0258  1.2514
 9643TIP3    H253125   7.353   3.713   2.317 -0.4464  1.9802  1.0815
 9644TIP3   OH253126   2.460   0.253   0.398  0.2167  0.1308 -0.0843
 9644TIP3    H153127   2.392   0.317   0.418  0.7400  0.8371 -0.5096
 9644TIP3    H253128   2.541   0.303   0.402  0.6498 -0.5483 -0.2586
 9645TIP3   OH253129   2.537   3.723   2.327  0.3385  0.1115  0.3025
 9645TIP3    H153130   2.568   3.808   2.294  0.0503  0.4811  0.9700
 9645TIP3    H253131   2.535   3.734   2.422 -2.1096  0.2028  0.3029
 9646TIP3   OH253132   3.496   7.386   1.243  0.1312  0.1747  0.1891
 9646TIP3    H153133   3.401   7.375   1.252  0.1728  1.0130  2.1303
 9646TIP3    H253134   3.507   7.428   1.158 -1.1774 -0.4341 -0.3206
 9647TIP3   OH253135   7.587   0.249   1.365  0.7075 -0.3016  0.0764
 9647TIP3    H153136   7.668   0.201   1.379  0.8572 -0.2988 -0.7323
 9647TIP3    H253137   7.615   0.334   1.330  0.3967  0.0228  0.6031
 9648TIP3   OH253138   7.228   2.999   1.884 -0.3922 -0.2445  0.2676
 9648TIP3    H153139   7.292   3.012   1.814 -1.2546  1.6206 -0.2289
 9648TIP3    H253140   7.156   2.952   1.842 -0.5856  0.2247  0.0560
 9649TIP3   OH253141   5.596   2.452   2.148  0.6105  0.0432 -0.0634
 9649TIP3    H153142   5.557   2.505   2.079 -1.3193 -0.0308  0.9221
 9649TIP3    H253143   5.676   2.417   2.108  0.2907  1.1182 -1.7755
 9650TIP3   OH253144   4.252   0.888   2.043 -0.7724 -0.2022 -0.1971
 9650TIP3    H153145   4.316   0.921   2.106  0.7698  0.9435 -2.2213
 9650TIP3    H253146   4.168   0.923   2.073  0.0213  0.9328  0.8101
 9651TIP3   OH253147   0.961   1.276   0.644 -0.2844  0.3681  0.2830
 9651TIP3    H153148   1.056   1.280   0.657 -0.4157  0.8940  1.1716
 9651TIP3    H253149   0.934   1.196   0.689  0.0761 -1.4461 -2.4693
 9652TIP3   OH253150   6.009   2.893   1.976 -0.0299 -0.3686  0.3847
 9652TIP3    H153151   6.086   2.902   2.032 -0.2482 -0.6640  0.7417
 9652TIP3    H253152   5.960   2.820   2.014  0.0199 -0.8358 -0.4400
 9653TIP3   OH253153   1.755   7.492   2.443 -0.2195  0.1775 -0.3620
 9653TIP3    H153154   1.828   7.523   2.496 -0.1623  0.3829 -0.5609
 9653TIP3    H253155   1.697   7.449   2.505  0.3577 -0.5177 -0.2854
 9654TIP3   OH253156   3.522   4.568   1.734  0.0531 -0.0941 -0.0261
 9654TIP3    H153157   3.604   4.600   1.771  1.3685 -1.4976 -1.5894
 9654TIP3    H253158   3.484   4.645   1.691 -0.8792  1.2524  2.8749
 9655TIP3   OH253159   0.247   3.666   0.940  0.0428  0.2366  0.5725
 9655TIP3    H153160   0.171   3.697   0.891  0.8484 -1.2517 -1.8158
 9655TIP3    H253161   0.210   3.618   1.014 -1.4063 -0.8567 -0.7913
 9656TIP3   OH253162   6.926   6.587   3.196 -0.4653 -0.1100 -0.1689
 9656TIP3    H153163   6.986   6.559   3.265 -0.3491  1.3620  0.3678
 9656TIP3    H253164   6.902   6.677   3.221 -1.5545 -0.0734 -1.2810
 9657TIP3   OH253165   2.227   7.233   2.630  0.3110  0.5075  0.5080
 9657TIP3    H153166   2.232   7.213   2.723  1.7525  2.9848  1.0518
 9657TIP3    H253167   2.285   7.308   2.619 -0.0174  0.4365 -2.3622
 9658TIP3   OH253168   6.788   5.882   2.174 -0.3614 -0.3452 -0.0679
 9658TIP3    H153169   6.848   5.841   2.112 -0.1943  1.6367 -1.2951
 9658TIP3    H253170   6.836   5.957   2.208 -1.8737  0.9278 -0.5971
 9659TIP3   OH253171   3.622   5.907   2.342 -0.0904  0.4624 -0.5019
 9659TIP3    H153172   3.630   5.877   2.433 -0.7450  1.3153 -0.1409
 9659TIP3    H253173   3.585   5.832   2.295  0.5382 -0.0881 -0.1338
 9660TIP3   OH253174   6.317   7.358   2.022 -0.5603  0.1098  0.1290
 9660TIP3    H153175   6.337   7.292   2.088 -0.4888  0.3450  0.3436
 9660TIP3    H253176   6.295   7.307   1.943  0.2668 -0.1669  0.0631
 9661TIP3   OH253177   6.144   1.436   1.582  0.6218  0.1489 -0.0320
 9661TIP3    H153178   6.090   1.374   1.632 -0.0560  1.4433  0.8911
 9661TIP3    H253179   6.206   1.380   1.535 -2.0274 -1.5276 -1.8399
 9662TIP3   OH253180   2.007   5.347   1.186  0.0607  0.2657  0.2470
 9662TIP3    H153181   2.034   5.348   1.278 -0.7066  0.6056  0.4766
 9662TIP3    H253182   2.060   5.279   1.146  0.0202 -0.2604  1.0649
 9663TIP3   OH253183   0.415   3.032   0.510 -0.4790  0.5745 -0.1793
 9663TIP3    H153184   0.361   3.111   0.506 -1.4533  0.0985  2.1553
 9663TIP3    H253185   0.372   2.971   0.451 -0.6222  1.2484 -0.7919
 9664TIP3   OH253186   5.093   2.801   1.234  0.2677  0.3416 -0.1009
 9664TIP3    H153187   5.029   2.756   1.179  0.4676 -0.3393  0.2089
 9664TIP3    H253188   5.138   2.861   1.176  2.9941 -2.8604 -1.5955
 9665TIP3   OH253189   3.679   6.778   2.415  0.0688  0.5186  0.0627
 9665TIP3    H153190   3.636   6.803   2.497 -0.9532 -0.5215 -0.1246
 9665TIP3    H253191   3.730   6.700   2.439 -0.5370 -0.0147 -0.3609
 9666TIP3   OH253192   1.499   2.128   1.242  0.4125  0.3410 -0.1579
 9666TIP3    H153193   1.539   2.182   1.310  0.6179 -1.0222  0.8588
 9666TIP3    H253194   1.420   2.093   1.284  0.9423 -1.1236 -0.3441
 9667TIP3   OH253195   3.626   5.841   0.936 -0.3226  0.2647  0.3048
 9667TIP3    H153196   3.577   5.918   0.964  0.8886  0.7967  1.0751
 9667TIP3    H253197   3.676   5.871   0.861 -0.2990  0.0615  0.2395
 9668TIP3   OH253198   1.296   6.478   0.934 -0.2316  0.0036 -0.2937
 9668TIP3    H153199   1.306   6.422   0.857  1.8155 -0.0111 -0.0715
 9668TIP3    H253200   1.300   6.567   0.900  1.2936  0.0067 -0.2066
 9669TIP3   OH253201   6.628   0.210   1.975  0.0153  0.2152 -0.1723
 9669TIP3    H153202   6.578   0.285   2.007 -0.2556 -0.0631  0.0513
 9669TIP3    H253203   6.591   0.192   1.888 -1.5330 -1.1349  0.7135
 9670TIP3   OH253204   2.906   5.150   2.281 -0.0824  0.0111  0.0555
 9670TIP3    H153205   2.964   5.090   2.327 -0.4202  0.6984  1.4391
 9670TIP3    H253206   2.922   5.133   2.188  1.0889 -0.9790  0.4147
 9671TIP3   OH253207   0.926   5.268   1.089  0.2255  0.4781  0.5173
 9671TIP3    H153208   0.838   5.301   1.071 -0.5950 -1.7538  0.0969
 9671TIP3    H253209   0.962   5.249   1.002  0.4945 -0.1209  0.7561
 9672TIP3   OH253210   4.392   4.517   1.735  0.2752 -0.1919 -0.1878
 9672TIP3    H153211   4.337   4.553   1.665  0.7253  0.5385 -0.1747
 9672TIP3    H253212   4.471   4.571   1.734 -0.4493  1.0646  2.0622
 9673TIP3   OH253213   1.924   3.276   0.670 -0.0393  0.1845 -0.1329
 9673TIP3    H153214   1.916   3.207   0.604  0.4218 -0.4406  0.4494
 9673TIP3    H253215   1.836   3.286   0.706 -0.0072 -0.4609  0.1312
 9674TIP3   OH253216   1.916   2.564   1.849  0.1729  0.5382 -0.1236
 9674TIP3    H153217   1.872   2.481   1.869  1.4215 -0.2325 -0.4572
 9674TIP3    H253218   1.907   2.573   1.754  0.5108  0.5039 -0.1598
 9675TIP3   OH253219   6.325   7.376   3.366 -0.0886  0.1638 -0.4312
 9675TIP3    H153220   6.361   7.446   3.420 -1.1327  0.9542 -0.7262
 9675TIP3    H253221   6.402   7.331   3.331  0.6240 -0.3068  1.5805
 9676TIP3   OH253222   2.753   0.998   0.901 -0.2481 -0.5107 -0.6311
 9676TIP3    H153223   2.811   1.011   0.826  0.3170 -1.7149 -0.4277
 9676TIP3    H253224   2.756   1.081   0.949  0.4968 -0.2135 -1.1768
 9677TIP3   OH253225   5.989   1.346   2.375 -0.2601 -0.0340  0.1449
 9677TIP3    H153226   5.953   1.306   2.455 -0.9344  0.4492  0.0951
 9677TIP3    H253227   6.063   1.398   2.406 -0.4149  0.0170  0.4442
 9678TIP3   OH253228   2.662   4.184   2.501  0.3043  0.3246  0.2356
 9678TIP3    H153229   2.724   4.256   2.508  0.5478  0.2608 -0.9224
 9678TIP3    H253230   2.665   4.160   2.408 -1.3127  0.1879  0.2024
 9679TIP3   OH253231   1.191   4.952   2.267 -0.2737 -0.0532 -0.2998
 9679TIP3    H153232   1.240   4.872   2.246  0.2438 -0.5201  2.2545
 9679TIP3    H253233   1.202   5.008   2.190  1.7430 -1.3441 -1.0476
 9680TIP3   OH253234   2.258   1.447   3.036  0.1460  0.2027  0.4562
 9680TIP3    H153235   2.325   1.385   3.066 -0.0588 -0.3117 -0.1165
 9680TIP3    H253236   2.297   1.533   3.048  0.4448 -0.0354  1.2482
 9681TIP3   OH253237   2.036   3.442   2.530  0.2754 -0.4859 -0.5471
 9681TIP3    H153238   2.072   3.458   2.618 -0.7184  1.4780 -0.4192
 9681TIP3    H253239   1.972   3.372   2.543 -0.7865  0.6279  0.6199
 9682TIP3   OH253240   6.575   2.216   1.554  0.2337 -0.0237 -0.1813
 9682TIP3    H153241   6.494   2.167   1.568 -0.7477  1.1961 -1.3850
 9682TIP3    H253242   6.562   2.299   1.600  0.4095  0.5646 -1.1784
 9683TIP3   OH253243   5.567   7.145   1.528  0.5577 -0.1383  0.1424
 9683TIP3    H153244   5.505   7.092   1.577  0.3420  0.7023  0.8073
 9683TIP3    H253245   5.553   7.119   1.436 -0.6760 -0.0826  0.2865
 9684TIP3   OH253246   4.571   6.027   2.187  0.0831 -0.2914  0.0063
 9684TIP3    H153247   4.545   5.936   2.176  0.4855 -0.5763  1.1904
 9684TIP3    H253248   4.526   6.055   2.267  1.6959 -0.1608  0.9202
 9685TIP3   OH253249   1.977   3.613   2.335 -0.0386  0.6012 -0.2217
 9685TIP3    H153250   1.985   3.556   2.411  1.8385  2.0554  0.7520
 9685TIP3    H253251   2.049   3.587   2.277 -0.7556  0.2807 -0.9908
 9686TIP3   OH253252   0.833   7.614   1.081 -0.0125  0.3145 -0.0341
 9686TIP3    H153253   0.858   7.706   1.091  2.0836 -0.3232  1.5353
 9686TIP3    H253254   0.738   7.613   1.093  0.0267  2.1971  0.7708
 9687TIP3   OH253255   3.002   4.200   2.070  0.0083  0.2269 -0.1288
 9687TIP3    H153256   2.978   4.292   2.059 -0.2089  0.2210  0.2842
 9687TIP3    H253257   3.055   4.179   1.992  0.1624  0.7334 -0.1623
 9688TIP3   OH253258   4.283   0.237   1.680 -0.1738 -0.3421 -0.4312
 9688TIP3    H153259   4.299   0.207   1.591  1.3594  0.2263 -0.3801
 9688TIP3    H253260   4.371   0.256   1.715 -0.8360  0.6978  0.7431
 9689TIP3   OH253261   4.822   4.641   0.596  0.2830  0.2262 -0.1941
 9689TIP3    H153262   4.890   4.699   0.560  0.8273  0.0558  0.5413
 9689TIP3    H253263   4.766   4.699   0.648  0.8461  0.0944  0.5676
 9690TIP3   OH253264   1.133   0.680   1.426  0.7028  0.7908  0.0375
 9690TIP3    H153265   1.185   0.715   1.354 -0.5021  0.3230 -1.0946
 9690TIP3    H253266   1.147   0.585   1.422  3.7030  0.9584  2.8901
 9691TIP3   OH253267   1.690   4.473   1.178 -0.1753 -0.0952  0.4675
 9691TIP3    H153268   1.659   4.382   1.177 -0.9225  0.1401 -0.8398
 9691TIP3    H253269   1.752   4.477   1.251 -1.4211 -1.2221  1.6534
 9692TIP3   OH253270   2.669   0.435   0.410 -0.4284  0.7161 -0.2555
 9692TIP3    H153271   2.762   0.417   0.418 -0.1089  1.6043 -1.6793
 9692TIP3    H253272   2.664   0.530   0.395 -1.6068  0.7755  0.3401
 9693TIP3   OH253273   4.003   6.182   0.393  0.2551 -0.2526  0.1557
 9693TIP3    H153274   3.974   6.222   0.311  1.4396 -1.6768 -0.9985
 9693TIP3    H253275   4.008   6.256   0.454 -1.1485  0.7615 -0.8754
 9694TIP3   OH253276   7.364   2.558   1.607  0.1505 -0.0462  0.1354
 9694TIP3    H153277   7.269   2.574   1.614  0.1701 -0.0618  0.4472
 9694TIP3    H253278   7.394   2.552   1.698  0.8934  2.6637  0.1666
 9695TIP3   OH253279   7.105   3.219   0.749  0.2522  0.3652 -0.0926
 9695TIP3    H153280   7.127   3.213   0.842 -0.6480 -1.7310  0.0399
 9695TIP3    H253281   7.024   3.270   0.747  0.4318  0.6742  0.2230
 9696TIP3   OH253282   5.883   6.114   0.673 -1.0196  0.5446 -0.4561
 9696TIP3    H153283   5.850   6.202   0.693  0.8908  1.8322 -2.4201
 9696TIP3    H253284   5.969   6.110   0.715 -1.1128 -0.4180 -0.3341
 9697TIP3   OH253285   3.167   1.955   1.370 -0.0374  0.7175 -0.4031
 9697TIP3    H153286   3.194   2.011   1.297 -0.1388  0.1382 -0.8914
 9697TIP3    H253287   3.230   1.882   1.369 -1.0925 -0.2033 -1.0126
 9698TIP3   OH253288   5.709   6.998   2.384  0.0724  0.0266  0.2018
 9698TIP3    H153289   5.653   7.014   2.308  2.0403  0.0364 -1.2904
 9698TIP3    H253290   5.741   7.085   2.409  2.4508 -0.3243 -1.3942
 9699TIP3   OH253291   5.339   2.821   0.374 -0.9417  0.5200  0.3747
 9699TIP3    H153292   5.373   2.778   0.296  2.2264 -0.2084  1.9697
 9699TIP3    H253293   5.260   2.771   0.397 -1.4808  0.2655 -1.8455
 9700TIP3   OH253294   1.292   7.006   1.827  0.5527 -0.3696 -0.2023
 9700TIP3    H153295   1.347   7.066   1.776 -0.1611  1.0011  0.5759
 9700TIP3    H253296   1.242   7.063   1.884 -1.2512 -1.6258 -0.4519
 9701TIP3   OH253297   7.349   7.503   1.774 -0.0478 -0.1709 -0.0149
 9701TIP3    H153298   7.427   7.491   1.829 -0.8791 -2.1977  0.8242
 9701TIP3    H253299   7.316   7.590   1.798  0.9181 -0.0631  1.0072
 9702TIP3   OH253300   3.984   0.223   1.188  0.0051  0.2346  0.0532
 9702TIP3    H153301   4.018   0.228   1.099 -1.2109 -0.7128 -0.4911
 9702TIP3    H253302   3.994   0.312   1.222 -0.8600  0.9807 -1.5444
 9703TIP3   OH253303   1.667   1.252   0.719 -0.3576  0.5055  0.0364
 9703TIP3    H153304   1.717   1.234   0.640 -1.5968  0.9062 -0.8638
 9703TIP3    H253305   1.732   1.288   0.781  0.3178  1.8615 -1.3936
 9704TIP3   OH253306   4.630   4.747   0.763  0.1499 -0.5237 -0.8661
 9704TIP3    H153307   4.573   4.824   0.760  0.7896 -0.0791 -3.5979
 9704TIP3    H253308   4.597   4.697   0.838 -1.6703  1.3253 -0.3260
 9705TIP3   OH253309   3.534   1.152   2.864 -0.3185  0.2358 -0.0549
 9705TIP3    H153310   3.609   1.122   2.813 -0.1396  1.1093 -0.3158
 9705TIP3    H253311   3.461   1.097   2.834  0.3565 -1.1642  0.7723
 9706TIP3   OH253312   6.876   2.375   0.746  0.5933 -0.7617  0.6790
 9706TIP3    H153313   6.876   2.333   0.659 -1.3701  0.6949 -0.0943
 9706TIP3    H253314   6.958   2.424   0.749 -0.6864  1.8170 -1.8080
 9707TIP3   OH253315   2.104   7.243   1.662  0.7169 -0.4674 -0.2910
 9707TIP3    H153316   2.199   7.238   1.668  0.7578  0.9494  0.5616
 9707TIP3    H253317   2.073   7.197   1.740  0.7455  0.0622  0.0397
 9708TIP3   OH253318   5.178   6.509   2.452  0.2623  0.4528 -0.4227
 9708TIP3    H153319   5.223   6.528   2.534  0.0049 -2.0008  0.3690
 9708TIP3    H253320   5.149   6.594   2.420 -1.2773  1.3816  3.0088
 9709TIP3   OH253321   5.537   4.922   1.964 -0.0654  0.2003  0.5460
 9709TIP3    H153322   5.575   4.970   2.038 -0.3487 -0.0500  0.8597
 9709TIP3    H253323   5.606   4.922   1.898  0.6693 -0.6378  1.2764
 9710TIP3   OH253324   1.987   0.929   3.208  0.1288  0.0184 -0.3891
 9710TIP3    H153325   1.927   0.899   3.276  0.8766  2.4608  1.4690
 9710TIP3    H253326   2.048   0.855   3.196  1.1182  0.0928  3.0247
 9711TIP3   OH253327   3.827   6.361   2.146  0.0862 -0.3117  0.0131
 9711TIP3    H153328   3.777   6.434   2.182 -0.9250 -1.0764  0.1974
 9711TIP3    H253329   3.762   6.309   2.098  0.4818 -1.8745  1.1134
 9712TIP3   OH253330   3.480   5.141   2.275  0.5650  0.1280  0.0416
 9712TIP3    H153331   3.486   5.191   2.357  0.5843 -2.5446  1.7806
 9712TIP3    H253332   3.481   5.049   2.302 -1.2930 -0.8971 -2.8432
 9713TIP3   OH253333   5.527   6.456   1.156  0.5187  0.3174  0.3069
 9713TIP3    H153334   5.440   6.431   1.125  1.3993 -1.0680 -1.1960
 9713TIP3    H253335   5.579   6.467   1.076  2.0615 -0.1797  1.1967
 9714TIP3   OH253336   2.329   5.071   3.028  0.1472 -0.2010 -0.3984
 9714TIP3    H153337   2.416   5.059   2.991 -0.8101 -0.4209 -2.7512
 9714TIP3    H253338   2.290   5.141   2.976 -1.0918 -0.0696  0.6477
 9715TIP3   OH253339   0.828   4.330   1.960 -0.0963  0.4026  0.0856
 9715TIP3    H153340   0.795   4.303   2.046  1.6323  0.1848  0.7118
 9715TIP3    H253341   0.750   4.363   1.914 -0.9740  1.0581  1.9325
 9716TIP3   OH253342   7.613   4.028   1.939  0.2063 -0.1228  0.4047
 9716TIP3    H153343   7.524   4.060   1.955 -0.0933  0.2366 -1.6638
 9716TIP3    H253344   7.664   4.108   1.928  0.1189 -0.2926 -1.5210
 9717TIP3   OH253345   6.697   3.679   1.539 -0.6416  0.6675 -0.1593
 9717TIP3    H153346   6.602   3.681   1.547 -0.6346 -1.6126  1.3335
 9717TIP3    H253347   6.728   3.643   1.622  1.4206 -0.0541 -1.1597
 9718TIP3   OH253348   2.690   6.698   1.630 -0.3041 -0.1247  0.0119
 9718TIP3    H153349   2.595   6.683   1.634 -0.3525  0.4086  1.1461
 9718TIP3    H253350   2.716   6.710   1.721  0.8827 -0.3842 -0.2838
 9719TIP3   OH253351   6.735   3.627   2.328 -0.3856  0.1016 -0.0622
 9719TIP3    H153352   6.732   3.534   2.304 -2.2010 -0.4797  2.1348
 9719TIP3    H253353   6.812   3.635   2.384 -0.6859 -0.2668  0.4087
 9720TIP3   OH253354   0.780   3.756   2.966 -0.1931  0.4476 -0.2050
 9720TIP3    H153355   0.861   3.806   2.954  0.9675 -1.1661  0.5505
 9720TIP3    H253356   0.781   3.692   2.895 -1.4190  1.1566 -0.8801
 9721TIP3   OH253357   3.566   3.941   1.766 -0.1804  0.8687 -0.4489
 9721TIP3    H153358   3.510   3.888   1.822  1.5358  0.4195  0.9556
 9721TIP3    H253359   3.576   4.024   1.812  0.5734  0.8019 -0.4662
 9722TIP3   OH253360   0.059   4.730   0.624 -0.3854 -0.5069  0.0556
 9722TIP3    H153361   0.096   4.802   0.675 -1.9979  1.4539 -1.3517
 9722TIP3    H253362   0.021   4.671   0.690 -2.6267  2.0398  1.2926
 9723TIP3   OH253363   4.936   6.464   1.171  0.0539 -0.1691 -0.0041
 9723TIP3    H153364   5.002   6.526   1.203  0.3538  0.6141 -1.9871
 9723TIP3    H253365   4.857   6.517   1.160  0.3414 -0.0664 -1.8220
 9724TIP3   OH253366   3.597   5.839   2.611  0.3661  0.9721 -0.2974
 9724TIP3    H153367   3.518   5.797   2.644 -0.2679  1.6813 -0.8915
 9724TIP3    H253368   3.668   5.779   2.636 -0.3709  0.2222  0.0453
 9725TIP3   OH253369   2.863   2.277   2.885  0.3940  0.0635  0.0616
 9725TIP3    H153370   2.870   2.247   2.975  1.1353 -0.2653 -0.1031
 9725TIP3    H253371   2.816   2.207   2.840 -0.4312  0.4563  0.2948
 9726TIP3   OH253372   3.519   7.126   2.060 -0.9236  0.3914 -0.6771
 9726TIP3    H153373   3.582   7.160   2.123 -0.8111 -2.0376  0.6562
 9726TIP3    H253374   3.568   7.061   2.009 -1.6913  0.3691 -1.4029
 9727TIP3   OH253375   6.491   4.450   3.252  0.0063 -0.0346 -0.3430
 9727TIP3    H153376   6.456   4.362   3.237 -1.6390  0.4028  0.6807
 9727TIP3    H253377   6.439   4.507   3.196 -1.4181  0.7066  1.6306
 9728TIP3   OH253378   1.735   7.675   2.740 -0.0874  0.5596 -0.0872
 9728TIP3    H153379   1.756   7.595   2.789 -0.3110 -0.3678 -1.4604
 9728TIP3    H253380   1.706   7.736   2.807  1.2701 -0.0845  1.1493
 9729TIP3   OH253381   0.008   0.969   1.082  0.7121  0.3989  0.1338
 9729TIP3    H153382   0.005   0.946   0.989  1.8934  0.1705  0.1390
 9729TIP3    H253383  -0.080   1.003   1.101  0.0905 -0.6403 -0.7745
 9730TIP3   OH253384   4.020   2.329   1.803  0.7590 -0.2778 -0.2003
 9730TIP3    H153385   4.109   2.295   1.811  1.3623  1.3105  0.2059
 9730TIP3    H253386   4.023   2.387   1.726 -0.1881 -0.9238 -0.7586
 9731TIP3   OH253387   3.037   0.417   1.985  0.2554 -0.1736  0.1588
 9731TIP3    H153388   3.094   0.484   1.947  0.7156 -0.3764  0.4858
 9731TIP3    H253389   2.980   0.466   2.045  0.3756 -0.0278  0.1564
 9732TIP3   OH253390   6.469   3.848   0.885  0.6346  0.3530 -0.2002
 9732TIP3    H153391   6.421   3.916   0.932 -0.2513  0.8174 -1.7187
 9732TIP3    H253392   6.405   3.812   0.824  1.1771 -1.6372  0.3212
 9733TIP3   OH253393   5.516   2.642   2.944  0.1666 -0.2595  0.0292
 9733TIP3    H153394   5.579   2.572   2.962 -0.8823 -0.9118  1.3419
 9733TIP3    H253395   5.566   2.722   2.957  0.5175 -0.7455  2.1475
 9734TIP3   OH253396   5.545   6.527   2.714 -0.2426  0.7703  0.1883
 9734TIP3    H153397   5.549   6.589   2.787  1.2447  1.7350 -0.6449
 9734TIP3    H253398   5.635   6.525   2.680 -0.6809 -0.4174 -0.9961
 9735TIP3   OH253399   1.720   4.446   0.897 -0.0775 -0.0276  0.8712
 9735TIP3    H153400   1.643   4.409   0.855 -1.0123  0.6332  1.9606
 9735TIP3    H253401   1.688   4.483   0.979  1.5401 -0.4625  1.7468
 9736TIP3   OH253402   0.242   0.656   3.091 -0.3208 -0.6833 -0.1825
 9736TIP3    H153403   0.297   0.733   3.086 -0.6155 -0.3383  1.4347
 9736TIP3    H253404   0.211   0.642   3.001 -0.9719  1.6036 -0.3706
 9737TIP3   OH253405   1.622   0.188   1.984  0.3356 -0.2930  0.4785
 9737TIP3    H153406   1.594   0.233   1.905  1.4307 -0.4251 -0.0019
 9737TIP3    H253407   1.710   0.222   2.001  0.2359 -0.4888  1.4657
 9738TIP3   OH253408   1.024   7.241   1.457  0.2621 -0.1539 -0.3264
 9738TIP3    H153409   1.000   7.329   1.430  1.0370  0.6545  1.4776
 9738TIP3    H253410   0.995   7.235   1.548  1.6278 -1.1887  0.0724
 9739TIP3   OH253411   7.435   2.095   1.011 -0.6261  0.6274  0.1481
 9739TIP3    H153412   7.394   2.035   1.073  3.0021 -2.7758 -0.3497
 9739TIP3    H253413   7.381   2.089   0.932 -1.2359 -0.8145  0.6494
 9740TIP3   OH253414   4.295   1.051   2.278  0.4362 -0.5639  0.4208
 9740TIP3    H153415   4.295   1.147   2.273  1.0141 -0.6055 -1.8322
 9740TIP3    H253416   4.225   1.029   2.339 -0.2998  1.2761  0.2933
 9741TIP3   OH253417   1.196   2.316   1.837 -0.5991 -0.4772  0.4239
 9741TIP3    H153418   1.166   2.262   1.764  0.2733 -0.3648 -0.0348
 9741TIP3    H253419   1.198   2.405   1.801 -1.1435 -0.2596  0.9019
 9742TIP3   OH253420   1.439   5.085   0.897 -0.6242  0.3524  0.2504
 9742TIP3    H153421   1.391   5.011   0.859 -0.7314  1.1827 -1.2916
 9742TIP3    H253422   1.405   5.092   0.986 -2.1648 -0.1148 -0.2773
 9743TIP3   OH253423   2.339   3.151   2.042  0.8817 -0.0862  0.5130
 9743TIP3    H153424   2.313   3.075   2.093  0.0190  0.3837  0.7989
 9743TIP3    H253425   2.327   3.225   2.101  1.1162  0.3309  0.0437
 9744TIP3   OH253426   3.436   0.174   1.451 -0.1587 -0.0031  0.8336
 9744TIP3    H153427   3.441   0.260   1.494 -2.5585  0.3596  0.5667
 9744TIP3    H253428   3.371   0.186   1.382  0.1888 -1.7965  0.1456
 9745TIP3   OH253429   3.504   3.308   0.580  0.9645  0.0337 -0.2510
 9745TIP3    H153430   3.583   3.363   0.585 -0.1089  1.6879 -0.7692
 9745TIP3    H253431   3.536   3.223   0.550  2.3375  1.1873 -2.2623
 9746TIP3   OH253432   6.630   5.093   2.999 -0.2891  0.2292  0.4722
 9746TIP3    H153433   6.603   5.184   2.987 -0.4759  0.0836 -0.2941
 9746TIP3    H253434   6.725   5.094   2.990 -0.3108  0.3192  0.2461
 9747TIP3   OH253435   0.542   4.795   1.638  0.1559 -0.3063 -0.2928
 9747TIP3    H153436   0.581   4.810   1.724  0.1706 -0.0007 -0.3510
 9747TIP3    H253437   0.559   4.876   1.590  0.3260 -0.5503 -0.6496
 9748TIP3   OH253438   4.561   4.789   1.756 -0.4274  0.2361  0.3347
 9748TIP3    H153439   4.521   4.858   1.702 -1.0756 -0.1858  0.2666
 9748TIP3    H253440   4.603   4.731   1.693  0.2619  0.6404  0.4022
 9749TIP3   OH253441   2.862   4.542   0.794 -0.6580  0.1354 -0.4531
 9749TIP3    H153442   2.879   4.455   0.759  2.4333  0.4674 -0.1172
 9749TIP3    H253443   2.837   4.528   0.885  1.6625 -0.4205  0.1543
 9750TIP3   OH253444   6.959   2.486   2.067  0.4029  0.3942  0.7928
 9750TIP3    H153445   7.018   2.416   2.095  1.7373  0.8560 -0.7110
 9750TIP3    H253446   6.979   2.559   2.125  0.2933  0.1225  1.1820
 9751TIP3   OH253447   6.459   1.025   2.928  0.8862 -0.4595  0.2278
 9751TIP3    H153448   6.467   1.110   2.884 -1.1596 -0.3455 -0.0564
 9751TIP3    H253449   6.418   1.045   3.012  0.8979 -1.1150  0.3956
 9752TIP3   OH253450   4.653   4.545   1.213 -0.0877  0.5075 -0.1739
 9752TIP3    H153451   4.745   4.525   1.194 -0.5996 -0.7047 -1.6408
 9752TIP3    H253452   4.655   4.632   1.252  1.7028  0.3987  0.0765
 9753TIP3   OH253453   2.576   3.777   3.390 -0.7417 -0.3600  0.1682
 9753TIP3    H153454   2.621   3.833   3.327  0.9296  0.1281  1.7019
 9753TIP3    H253455   2.542   3.704   3.338  0.3382  0.1618 -1.3260
 9754TIP3   OH253456   6.539   5.350   3.027 -0.2414 -0.1216  0.8186
 9754TIP3    H153457   6.538   5.339   3.122  0.4096  0.3633  0.8897
 9754TIP3    H253458   6.528   5.445   3.014 -0.4910 -0.2061  0.4043
 9755TIP3   OH253459   4.115   7.094   2.499  0.2121 -0.4101 -0.1913
 9755TIP3    H153460   4.058   7.025   2.534  0.0297 -1.0909 -1.7600
 9755TIP3    H253461   4.199   7.078   2.542  0.0078 -1.2249 -0.0653
 9756TIP3   OH253462   2.294   6.830   0.437  0.1923 -0.0339 -0.1190
 9756TIP3    H153463   2.323   6.739   0.431  0.5121 -0.2213  2.6367
 9756TIP3    H253464   2.374   6.881   0.430  0.5813 -0.2473  1.9730
 9757TIP3   OH253465   6.902   1.664   0.483 -0.4762 -0.1627  0.2841
 9757TIP3    H153466   6.924   1.571   0.481 -0.7514 -0.2240 -0.1081
 9757TIP3    H253467   6.985   1.708   0.500 -0.2402 -0.4465 -0.1040
 9758TIP3   OH253468   3.010   1.675   1.273  0.2631  0.1067 -0.2139
 9758TIP3    H153469   2.962   1.728   1.210 -3.0125  0.3334  2.2045
 9758TIP3    H253470   3.099   1.669   1.237 -0.6919  2.4220 -3.3953
 9759TIP3   OH253471   1.011   4.216   0.978 -0.3185  0.7029 -0.4366
 9759TIP3    H153472   0.922   4.180   0.970 -0.8577  2.0376 -0.6450
 9759TIP3    H253473   1.062   4.168   0.913 -0.7450 -0.4462  0.0354
 9760TIP3   OH253474   4.873   2.199   2.135 -0.2262  0.2496 -0.3356
 9760TIP3    H153475   4.786   2.232   2.113 -0.2399  0.5601  0.1804
 9760TIP3    H253476   4.859   2.144   2.212  0.1370  0.8656  0.1762
 9761TIP3   OH253477   2.186   1.794   0.796  0.1300 -0.1047 -0.4210
 9761TIP3    H153478   2.270   1.839   0.790 -0.1953  0.4080 -1.3581
 9761TIP3    H253479   2.159   1.806   0.887  0.1059  1.5333 -0.6071
 9762TIP3   OH253480   1.778   4.976   1.190 -0.0483 -0.0712  0.0013
 9762TIP3    H153481   1.711   5.011   1.249 -0.1746  0.2077 -0.3026
 9762TIP3    H253482   1.740   4.895   1.157 -0.6221  0.5256 -0.8472
 9763TIP3   OH253483   0.949   4.748   1.904  0.0899  0.0585 -0.4151
 9763TIP3    H153484   1.006   4.809   1.857  0.4974 -1.2344 -1.6613
 9763TIP3    H253485   0.987   4.743   1.992  0.5763  0.9046 -0.5655
 9764TIP3   OH253486   3.103   0.508   1.152 -0.2531  0.2739 -0.1104
 9764TIP3    H153487   3.050   0.480   1.227 -1.1293  0.8148 -0.5227
 9764TIP3    H253488   3.170   0.440   1.145 -1.4436 -0.9416 -0.1622
 9765TIP3   OH253489   3.469   5.456   2.962 -0.1181  0.3942 -0.4693
 9765TIP3    H153490   3.547   5.414   2.997 -0.8530 -0.1538  0.5778
 9765TIP3    H253491   3.397   5.397   2.985 -0.9371  1.2508 -0.7322
 9766TIP3   OH253492   2.712   2.066   1.183 -0.3487 -0.0132  1.3790
 9766TIP3    H153493   2.706   2.119   1.262 -2.3988 -0.7847  1.7955
 9766TIP3    H253494   2.676   2.122   1.114 -0.2688 -0.0041  1.3441
 9767TIP3   OH253495   1.427   7.395   1.764 -0.5573 -0.3199 -0.1436
 9767TIP3    H153496   1.349   7.425   1.717  0.7151  2.2920 -0.7716
 9767TIP3    H253497   1.466   7.475   1.800  1.6600 -1.5743  0.4645
 9768TIP3   OH253498   5.793   5.557   2.604 -0.3379 -0.0287  0.1205
 9768TIP3    H153499   5.767   5.485   2.661 -0.3355 -0.4186 -0.3667
 9768TIP3    H253500   5.772   5.527   2.516  1.7862 -0.4168 -0.3195
 9769TIP3   OH253501   0.153   3.918   3.527  0.3861  0.5359 -0.2526
 9769TIP3    H153502   0.117   4.007   3.528  0.4864  0.5988  1.4791
 9769TIP3    H253503   0.247   3.930   3.539  0.2885  0.1980  1.0618
 9770TIP3   OH253504   7.115   4.844   1.871 -0.3964 -0.3821 -0.2314
 9770TIP3    H153505   7.183   4.847   1.938 -0.8011  2.0688  0.1403
 9770TIP3    H253506   7.064   4.766   1.894  1.4610 -1.5578  0.2272
 9771TIP3   OH253507   2.966   1.537   2.109 -0.1290  0.2443  0.0005
 9771TIP3    H153508   2.902   1.584   2.163 -0.6084 -0.8557  0.4270
 9771TIP3    H253509   2.977   1.592   2.031 -1.7673  0.3694 -0.1801
 9772TIP3   OH253510   7.300   3.530   1.547 -0.1777  0.1522 -0.4576
 9772TIP3    H153511   7.331   3.491   1.464 -0.0566 -0.2842 -0.2126
 9772TIP3    H253512   7.232   3.592   1.520 -1.2734 -1.1336 -0.7752
 9773TIP3   OH253513   0.959   5.532   1.820  0.3258 -0.4593  0.0004
 9773TIP3    H153514   1.021   5.578   1.765  0.6724 -0.1513  0.6423
 9773TIP3    H253515   0.925   5.598   1.880 -1.4960 -0.3565 -1.0757
 9774TIP3   OH253516   3.582   4.426   0.771 -0.1496  0.0547 -0.5018
 9774TIP3    H153517   3.544   4.503   0.813 -2.4581 -1.8291  1.1855
 9774TIP3    H253518   3.675   4.430   0.792 -0.0890  2.6625 -1.0150
 9775TIP3   OH253519   7.108   4.430   2.365  0.0365 -0.0211 -0.1068
 9775TIP3    H153520   7.176   4.454   2.428  0.2181  2.0465 -0.9959
 9775TIP3    H253521   7.152   4.370   2.305  0.4804 -0.3006  0.4843
 9776TIP3   OH253522   6.173   0.554   2.179 -0.0863 -0.0829  0.4096
 9776TIP3    H153523   6.217   0.554   2.094  0.1679  1.6870  0.5157
 9776TIP3    H253524   6.231   0.604   2.236 -1.2381  0.5010  1.1036
 9777TIP3   OH253525   4.046   4.053   2.403  0.3462 -0.3320  0.7703
 9777TIP3    H153526   4.030   3.961   2.384  0.0330 -0.1409  0.0477
 9777TIP3    H253527   4.034   4.061   2.497  0.0341 -0.9594  0.7891
 9778TIP3   OH253528   2.547   7.327   1.197 -0.0586 -0.3080  0.8940
 9778TIP3    H153529   2.585   7.240   1.189  2.1586  0.6509  0.3519
 9778TIP3    H253530   2.503   7.343   1.114  1.3900 -0.1251  0.1236
 9779TIP3   OH253531   2.393   0.548   2.277  0.7263  0.3045 -0.1006
 9779TIP3    H153532   2.369   0.633   2.313 -2.5888 -0.1652 -0.8176
 9779TIP3    H253533   2.383   0.559   2.182 -0.3511 -0.9635 -0.1715
 9780TIP3   OH253534   0.823   5.079   2.229  0.3304  0.6392 -0.3718
 9780TIP3    H153535   0.877   5.133   2.287 -0.4869  1.2181 -0.1284
 9780TIP3    H253536   0.755   5.043   2.287  1.1969 -1.1527 -0.4059
 9781TIP3   OH253537   6.188   0.289   2.298 -0.1734 -0.6608  0.4472
 9781TIP3    H153538   6.130   0.359   2.270 -0.4823 -0.6722  1.0416
 9781TIP3    H253539   6.242   0.329   2.367 -0.2624 -0.9659  0.6959
 9782TIP3   OH253540   5.964   0.318   1.575 -0.2457 -0.0981  0.0674
 9782TIP3    H153541   6.022   0.382   1.534  0.8257 -0.7487  0.4960
 9782TIP3    H253542   5.986   0.235   1.531 -1.2079 -0.2757 -0.0980
 9783TIP3   OH253543   2.965   7.520   1.849  0.0534 -0.0798  0.0994
 9783TIP3    H153544   2.870   7.532   1.845  0.0702 -0.2046 -1.8631
 9783TIP3    H253545   2.981   7.447   1.790  1.5631  1.4107 -1.4426
 9784TIP3   OH253546   7.497   7.305   2.148 -0.8777  0.1342  0.1114
 9784TIP3    H153547   7.571   7.244   2.153 -0.9088  0.0042 -0.8683
 9784TIP3    H253548   7.420   7.248   2.139 -0.8856  0.2992 -1.0444
 9785TIP3   OH253549   5.826   1.545   2.168  0.2033 -0.2659 -0.0331
 9785TIP3    H153550   5.769   1.468   2.160 -0.9065  0.2147  2.3621
 9785TIP3    H253551   5.893   1.518   2.230 -0.3876  0.7611  1.0942
 9786TIP3   OH253552   6.523   3.456   1.345 -0.2162  0.0571  0.0843
 9786TIP3    H153553   6.507   3.469   1.439  0.4268  0.7663  0.1008
 9786TIP3    H253554   6.617   3.465   1.335 -0.2289 -0.4583 -0.5757
 9787TIP3   OH253555   2.411   1.270   1.486  0.9566  0.1391  0.3748
 9787TIP3    H153556   2.319   1.263   1.457  0.9585 -0.2351  0.4499
 9787TIP3    H253557   2.406   1.310   1.573  0.9489  1.2503 -0.1179
 9788TIP3   OH253558   3.784   4.440   2.728  0.3350  0.1218  0.4671
 9788TIP3    H153559   3.851   4.423   2.661  0.0328  1.3077 -0.1804
 9788TIP3    H253560   3.735   4.359   2.734  1.1064 -0.3899  0.1087
 9789TIP3   OH253561   7.285   6.276   3.181  0.3176 -0.3751  0.1241
 9789TIP3    H153562   7.202   6.314   3.150  1.8139  2.1918 -1.1098
 9789TIP3    H253563   7.287   6.297   3.275 -0.3939 -0.3594  0.1406
 9790TIP3   OH253564   2.180   3.172   1.838 -0.2566 -0.1522  0.2216
 9790TIP3    H153565   2.239   3.173   1.913  1.5031 -0.5810 -1.1134
 9790TIP3    H253566   2.212   3.242   1.781 -0.0794 -1.3602 -1.2176
 9791TIP3   OH253567   5.402   3.662   1.826  0.3885  1.0940  0.5428
 9791TIP3    H153568   5.306   3.664   1.828  0.3686  0.3932  0.7628
 9791TIP3    H253569   5.425   3.578   1.865  1.0729  0.9282 -0.1776
 9792TIP3   OH253570   4.188   3.750   2.223  0.1382  0.3361 -0.3723
 9792TIP3    H153571   4.136   3.749   2.303  0.7028 -1.5539  0.0177
 9792TIP3    H253572   4.138   3.697   2.161 -0.4618  2.0549 -1.4459
 9793TIP3   OH253573   2.884   2.183   1.757 -0.1628 -0.0013 -0.1983
 9793TIP3    H153574   2.951   2.116   1.744 -0.8199 -0.2951 -2.5143
 9793TIP3    H253575   2.806   2.135   1.784  0.0512  0.1650  0.7838
 9794TIP3   OH253576   3.100   4.298   1.173 -0.0086  0.1496  0.0834
 9794TIP3    H153577   3.040   4.313   1.100  0.0692 -0.4699 -0.1079
 9794TIP3    H253578   3.122   4.205   1.168  0.0412  0.1084  0.8564
 9795TIP3   OH253579   1.513   4.716   1.826  0.2089 -0.0862  0.2261
 9795TIP3    H153580   1.503   4.800   1.872 -1.0006 -0.6657  1.0868
 9795TIP3    H253581   1.440   4.713   1.765  0.2656 -0.4928  0.1750
 9796TIP3   OH253582   6.315   1.897   2.179  0.2280 -0.1044  0.0400
 9796TIP3    H153583   6.229   1.855   2.168 -0.2201  0.6970  0.4150
 9796TIP3    H253584   6.369   1.830   2.221 -0.4770 -0.3088  0.6347
 9797TIP3   OH253585   2.698   0.868   0.530 -0.0501 -0.4885 -0.6151
 9797TIP3    H153586   2.782   0.824   0.546  0.5866  0.2311 -1.8645
 9797TIP3    H253587   2.650   0.809   0.474 -0.0661 -0.5478 -0.5397
 9798TIP3   OH253588   5.645   6.665   1.281  0.0110  0.2431 -0.3957
 9798TIP3    H153589   5.580   6.604   1.247 -0.9824  1.5569 -0.9922
 9798TIP3    H253590   5.671   6.717   1.204  0.9521  0.4579  0.0505
 9799TIP3   OH253591   7.002   4.981   0.755 -0.1493  0.2610  0.6097
 9799TIP3    H153592   7.050   4.905   0.789  0.2964  0.6670  0.8916
 9799TIP3    H253593   6.910   4.957   0.767 -0.0609 -0.8731 -0.7169
 9800TIP3   OH253594   4.669   7.058   0.396  0.5774  0.1090 -0.1983
 9800TIP3    H153595   4.726   7.135   0.396 -0.5121  0.9396 -0.8354
 9800TIP3    H253596   4.714   6.994   0.341  1.8026  0.0252  0.8499
 9801TIP3   OH253597   2.785   4.448   3.123  0.4571  0.4147  0.2396
 9801TIP3    H153598   2.856   4.467   3.062  0.2468  0.2981 -0.0449
 9801TIP3    H253599   2.744   4.368   3.088 -3.2102  3.2196 -2.7560
 9802TIP3   OH253600   7.149   3.202   1.021  0.5429 -0.1892 -0.0980
 9802TIP3    H153601   7.102   3.136   1.072  0.2778 -0.1048 -0.2282
 9802TIP3    H253602   7.208   3.244   1.083 -0.7363  0.8471  0.4887
 9803TIP3   OH253603   7.128   5.097   2.396 -0.1547 -0.2392 -0.6962
 9803TIP3    H153604   7.102   5.061   2.481  1.6260 -2.5460 -1.0512
 9803TIP3    H253605   7.209   5.144   2.413 -0.1079 -0.1957 -1.0271
 9804TIP3   OH253606   4.645   5.013   2.476  0.1241  0.1559 -0.0535
 9804TIP3    H153607   4.585   5.007   2.402  0.8835  0.6901 -0.7225
 9804TIP3    H253608   4.595   4.977   2.550 -1.6159  2.0467 -0.2128
 9805TIP3   OH253609   5.214   3.870   2.337 -0.1143 -0.7241 -0.2229
 9805TIP3    H153610   5.132   3.907   2.371  0.1816 -0.2578 -0.0112
 9805TIP3    H253611   5.195   3.849   2.246 -1.1486 -2.6472  0.3802
 9806TIP3   OH253612   3.723   4.720   2.114  0.5403  0.9449 -0.5936
 9806TIP3    H153613   3.728   4.815   2.117 -0.7376  1.0329 -0.7470
 9806TIP3    H253614   3.638   4.699   2.151  1.3390 -0.2355  0.6478
 9807TIP3   OH253615   5.271   6.032   3.027 -0.1953 -0.5552  0.0337
 9807TIP3    H153616   5.224   5.949   3.031  0.2376 -0.7661  1.1956
 9807TIP3    H253617   5.204   6.099   3.040 -0.4820 -0.7346 -0.4862
 9808TIP3   OH253618   0.434   4.836   2.546 -0.6065  0.1573 -0.5391
 9808TIP3    H153619   0.403   4.914   2.502 -1.2838 -0.0959 -0.5244
 9808TIP3    H253620   0.366   4.770   2.529  0.2814 -0.6290 -1.1362
 9809TIP3   OH253621   6.432   0.826   2.002  0.6886 -0.3888  0.3190
 9809TIP3    H153622   6.414   0.864   2.088 -0.7759  0.1063 -0.1763
 9809TIP3    H253623   6.516   0.865   1.977  0.0708  1.2128  0.5799
 9810TIP3   OH253624   1.591   4.009   1.450 -0.0914 -0.1803  0.2527
 9810TIP3    H153625   1.552   3.948   1.513 -3.5643  2.0630  0.5330
 9810TIP3    H253626   1.520   4.025   1.387  1.0338  2.7425 -0.3865
 9811TIP3   OH253627   0.986   7.460   2.214  0.5226  0.1275  0.1654
 9811TIP3    H153628   0.917   7.412   2.169 -0.6345  2.1907 -0.4014
 9811TIP3    H253629   1.044   7.490   2.144 -0.6797  2.4126  0.0546
 9812TIP3   OH253630   2.215   4.127   2.943 -0.3051  0.4287  0.2133
 9812TIP3    H153631   2.290   4.185   2.929  0.2022 -0.2265  0.1419
 9812TIP3    H253632   2.243   4.069   3.014 -1.3951  1.2564  1.3441
 9813TIP3   OH253633   1.384   5.627   1.050 -0.5790  0.2425 -0.0590
 9813TIP3    H153634   1.399   5.638   0.956 -0.1701 -0.0249 -0.0283
 9813TIP3    H253635   1.291   5.647   1.062 -0.6702  0.1277 -0.5461
 9814TIP3   OH253636   3.641   3.241   1.372  0.4836  0.3710 -0.4284
 9814TIP3    H153637   3.653   3.154   1.412 -0.4740  0.0582 -0.7866
 9814TIP3    H253638   3.580   3.226   1.300  0.8122  1.2409 -0.9005
 9815TIP3   OH253639   6.162   7.064   2.163  0.5008  0.1590  0.2716
 9815TIP3    H153640   6.121   7.147   2.188  2.3139  0.9013  0.9486
 9815TIP3    H253641   6.099   7.024   2.102 -0.9173  1.4961  0.7786
 9816TIP3   OH253642   5.437   3.885   1.182 -0.4363 -0.3948  0.1701
 9816TIP3    H153643   5.353   3.850   1.213 -0.3416 -0.6555  0.1349
 9816TIP3    H253644   5.457   3.833   1.105 -0.7034  0.2955 -0.3739
 9817TIP3   OH253645   5.162   4.846   2.963  0.1805  0.6674  0.1713
 9817TIP3    H153646   5.160   4.920   3.023  0.4521 -0.0794  1.1380
 9817TIP3    H253647   5.091   4.789   2.993  0.6195  0.0674  0.0799
 9818TIP3   OH253648   5.993   1.423   0.977 -0.0267  0.1065 -0.1766
 9818TIP3    H153649   6.007   1.343   0.927  0.2391  0.1060 -0.1014
 9818TIP3    H253650   5.930   1.399   1.045  1.3326 -0.4946  0.9264
 9819TIP3   OH253651   4.138   3.399   1.301  0.1349  0.3799 -0.4892
 9819TIP3    H153652   4.212   3.340   1.316 -0.0630 -0.0089 -1.0257
 9819TIP3    H253653   4.152   3.434   1.213 -0.7635 -0.3602 -0.9415
 9820TIP3   OH253654   0.175   2.013   0.962 -0.2301  0.0953  0.5739
 9820TIP3    H153655   0.100   2.014   1.021  0.7047 -1.3877  1.8452
 9820TIP3    H253656   0.140   2.045   0.879 -2.6023 -1.7566  0.7660
 9821TIP3   OH253657   7.355   2.973   0.806 -0.2616  1.0058  0.3605
 9821TIP3    H153658   7.302   2.981   0.727  1.4781  0.6490 -0.8962
 9821TIP3    H253659   7.302   2.918   0.865 -1.6890  1.4825 -0.4248
 9822TIP3   OH253660   2.393   3.910   2.059  0.1819 -0.6382  0.0754
 9822TIP3    H153661   2.448   3.837   2.029 -0.1269 -0.9946  0.3625
 9822TIP3    H253662   2.438   3.988   2.028 -0.0353 -0.9862 -1.1624
 9823TIP3   OH253663   7.063   1.476   0.642  0.2437  0.2444 -0.0159
 9823TIP3    H153664   7.096   1.492   0.554  0.4769  1.8182  0.3271
 9823TIP3    H253665   7.134   1.429   0.687  0.1687 -0.4568 -0.6118
 9824TIP3   OH253666   5.913   7.274   3.377 -0.2724  0.1822 -0.1929
 9824TIP3    H153667   5.863   7.234   3.305 -0.2302 -1.8749  0.8313
 9824TIP3    H253668   5.863   7.251   3.456  1.2380 -0.2511  0.6828
 9825TIP3   OH253669   6.327   6.528   2.523 -0.2025  0.1742 -0.1077
 9825TIP3    H153670   6.285   6.455   2.568 -1.3055  0.8979  0.0845
 9825TIP3    H253671   6.255   6.589   2.504  0.6244  1.0097 -0.6452
 9826TIP3   OH253672   7.195   5.153   1.030  0.1643 -0.2843 -0.1651
 9826TIP3    H153673   7.203   5.163   0.935 -0.3509  0.9743 -0.1027
 9826TIP3    H253674   7.129   5.085   1.042 -0.9348  0.6454 -0.7414
 9827TIP3   OH253675   5.170   1.919   0.726  0.6360  0.0679 -0.5833
 9827TIP3    H153676   5.106   1.943   0.659  2.0825  0.1425 -2.0088
 9827TIP3    H253677   5.214   2.001   0.748  2.4524 -0.4236 -2.0845
 9828TIP3   OH253678   6.514   0.486   1.120  0.1605  0.4183  0.2014
 9828TIP3    H153679   6.539   0.404   1.163  1.2800  1.1054  0.9228
 9828TIP3    H253680   6.437   0.515   1.168  1.6545  1.4036  2.1416
 9829TIP3   OH253681   6.110   3.613   1.996  0.3045 -0.0044 -0.5432
 9829TIP3    H153682   6.162   3.692   2.008 -0.5987  0.7351 -1.3226
 9829TIP3    H253683   6.020   3.641   2.013  0.1198 -1.2091  0.5944
 9830TIP3   OH253684   7.578   0.990   2.631  0.3180 -0.5825 -0.4328
 9830TIP3    H153685   7.598   0.967   2.721 -1.1009  0.4162  0.1799
 9830TIP3    H253686   7.644   1.056   2.607 -1.1738  1.5863  1.0424
 9831TIP3   OH253687   7.526   2.328   0.844  0.4621 -0.0061 -0.4433
 9831TIP3    H153688   7.545   2.345   0.936 -0.6895 -0.8530 -0.0168
 9831TIP3    H253689   7.430   2.329   0.839  0.4640 -1.4142 -1.3215
 9832TIP3   OH253690   3.891   4.971   1.346 -0.8796 -0.4588  0.5151
 9832TIP3    H153691   3.822   4.936   1.290 -0.7992  0.2823 -0.0756
 9832TIP3    H253692   3.869   5.064   1.354  0.8487  0.1339 -0.9277
 9833TIP3   OH253693   2.165   0.451   1.067 -0.1173 -0.0821 -0.3251
 9833TIP3    H153694   2.250   0.488   1.044 -0.4030  0.7640 -0.0820
 9833TIP3    H253695   2.179   0.357   1.069  0.6647  0.0128 -0.8821
 9834TIP3   OH253696   1.636   7.576   1.013  0.0145  0.0337 -0.7172
 9834TIP3    H153697   1.611   7.661   1.049 -0.1819 -0.4450  0.3072
 9834TIP3    H253698   1.618   7.513   1.083 -2.0736 -1.2018 -2.2170
 9835TIP3   OH253699   5.932   0.353   1.859  0.3180 -0.5379 -0.1237
 9835TIP3    H153700   5.900   0.263   1.855  2.4009 -1.2957 -1.1468
 9835TIP3    H253701   5.912   0.390   1.773 -1.0904  0.2166  0.5015
 9836TIP3   OH253702   5.043   6.326   0.960 -0.1911  0.4209  0.1930
 9836TIP3    H153703   5.029   6.399   0.900 -0.5307  0.4813  0.3434
 9836TIP3    H253704   4.983   6.344   1.033 -1.3909 -0.8006 -0.4594
 9837TIP3   OH253705   5.241   6.249   3.485  0.1943 -0.5346  0.1569
 9837TIP3    H153706   5.204   6.336   3.469  1.5927 -0.1213 -0.9670
 9837TIP3    H253707   5.335   6.259   3.471  0.5348 -1.9558  1.2360
 9838TIP3   OH253708   2.320   3.980   2.611 -0.1529  0.2741  0.2639
 9838TIP3    H153709   2.245   3.943   2.658  0.0712  0.0403  0.4421
 9838TIP3    H253710   2.385   3.910   2.611  0.4027  0.7814  0.9056
 9839TIP3   OH253711   1.168   3.953   1.237 -0.6346  0.8108 -0.0431
 9839TIP3    H153712   1.147   3.908   1.318  0.1432 -0.1889 -0.3852
 9839TIP3    H253713   1.099   3.927   1.176  0.2430 -0.6025 -0.4767
 9840TIP3   OH253714   1.401   4.863   2.875  0.6010  0.4727 -0.2314
 9840TIP3    H153715   1.306   4.874   2.877  0.5182 -0.2676  0.3715
 9840TIP3    H253716   1.413   4.774   2.842  1.1367  1.0357 -1.6548
 9841TIP3   OH253717   0.917   5.802   0.739  0.2833  0.7457  0.4946
 9841TIP3    H153718   0.830   5.771   0.712  0.8011 -0.5789  0.2962
 9841TIP3    H253719   0.958   5.726   0.779  2.4538  0.4717 -2.0431
 9842TIP3   OH253720   0.134   2.117   1.580  0.3113 -0.2458  0.5261
 9842TIP3    H153721   0.152   2.139   1.488  3.1831  1.3479  1.3755
 9842TIP3    H253722   0.157   2.024   1.587 -0.1924 -0.4566 -0.3991
 9843TIP3   OH253723   4.798   2.023   2.324 -0.0279  0.0519  1.1567
 9843TIP3    H153724   4.816   1.938   2.365  0.7375  0.5789  1.9318
 9843TIP3    H253725   4.725   2.005   2.265  2.3187 -1.9415 -1.3668
 9844TIP3   OH253726   2.641   0.716   2.210 -0.3080  0.9545 -0.1706
 9844TIP3    H153727   2.568   0.752   2.261  0.5693  2.2721  0.1990
 9844TIP3    H253728   2.607   0.634   2.176 -1.6628  1.0907  0.7448
 9845TIP3   OH253729   2.907   6.770   2.123 -0.0104  0.3292 -0.0428
 9845TIP3    H153730   2.947   6.842   2.173 -2.5623  0.6029  1.7951
 9845TIP3    H253731   2.925   6.692   2.176  0.0100  0.1069 -0.3772
 9846TIP3   OH253732   5.945   3.053   2.999  0.3745 -0.3813 -0.4409
 9846TIP3    H153733   5.856   3.041   3.033  1.2006 -2.4994  1.1169
 9846TIP3    H253734   5.970   3.141   3.028 -0.9700  0.0193 -0.4101
 9847TIP3   OH253735   5.328   6.606   0.562  0.2533  0.2037 -0.3716
 9847TIP3    H153736   5.412   6.586   0.520  0.3726  0.2491 -0.1534
 9847TIP3    H253737   5.314   6.699   0.543 -0.3570 -0.0939 -1.4881
 9848TIP3   OH253738   4.784   6.618   1.804 -0.4506 -0.0297  0.0864
 9848TIP3    H153739   4.720   6.547   1.796  0.3811 -0.5950 -2.4205
 9848TIP3    H253740   4.746   6.690   1.755 -0.2202  0.4483  0.6043
 9849TIP3   OH253741   5.280   4.307   1.689 -0.0856 -0.3061 -0.5739
 9849TIP3    H153742   5.295   4.217   1.719  0.6073  0.2505  0.8094
 9849TIP3    H253743   5.275   4.359   1.769 -0.8714  0.8444 -1.3360
 9850TIP3   OH253744   6.500   7.209   2.669  0.5194  0.1739 -0.4463
 9850TIP3    H153745   6.525   7.247   2.753 -0.5521 -0.2349  0.0836
 9850TIP3    H253746   6.583   7.195   2.623  1.0377  1.5321  0.0312
 9851TIP3   OH253747   3.363   3.241   3.076 -0.6084  0.0315  0.2448
 9851TIP3    H153748   3.439   3.253   3.019 -1.6269 -0.5382 -1.2845
 9851TIP3    H253749   3.346   3.328   3.112  0.7782  0.1567  0.6692
 9852TIP3   OH253750   0.177   4.554   1.166  0.1053 -0.0636 -0.1911
 9852TIP3    H153751   0.124   4.490   1.212  0.7039  0.0603  0.6945
 9852TIP3    H253752   0.127   4.636   1.171 -0.1456 -0.2060 -0.3649
 9853TIP3   OH253753   0.357   3.192   2.704  0.4051  0.4445 -0.3676
 9853TIP3    H153754   0.271   3.226   2.731  1.0176  0.8776  1.1087
 9853TIP3    H253755   0.398   3.265   2.658 -0.2334  0.0339 -1.6523
 9854TIP3   OH253756   2.999   5.049   1.708  0.6334 -0.1354 -0.2285
 9854TIP3    H153757   2.981   5.100   1.628  0.8730  0.3458  0.0203
 9854TIP3    H253758   3.084   5.009   1.693  0.4956 -0.3752 -0.3783
 9855TIP3   OH253759   2.774   6.234   2.637  0.4777 -0.6059 -0.1914
 9855TIP3    H153760   2.777   6.142   2.661  0.0947  0.1354  3.1976
 9855TIP3    H253761   2.853   6.272   2.676 -0.0310  0.7182 -0.4029
 9856TIP3   OH253762   0.204   5.652   1.613 -0.3524  0.0776 -0.3579
 9856TIP3    H153763   0.203   5.673   1.707  0.2232  1.8442 -0.7163
 9856TIP3    H253764   0.152   5.572   1.606 -1.3160  0.5068  1.3362
 9857TIP3   OH253765   7.327   7.554   1.031 -0.1040 -0.2088 -0.1925
 9857TIP3    H153766   7.307   7.481   1.089 -0.9152 -2.1490 -2.7013
 9857TIP3    H253767   7.377   7.514   0.960  0.1522  1.8617 -1.2315
 9858TIP3   OH253768   4.367   3.029   1.877 -0.1153  0.3534  0.0547
 9858TIP3    H153769   4.326   3.103   1.922 -0.4300  0.7214 -0.8180
 9858TIP3    H253770   4.409   3.068   1.800  0.5239 -0.2471  0.0911
 9859TIP3   OH253771   0.136   3.511   1.173 -0.5123  0.0857 -0.3858
 9859TIP3    H153772   0.204   3.447   1.152  0.1643  0.2435  1.1793
 9859TIP3    H253773   0.106   3.486   1.260 -0.6468  1.5354  0.0174
 9860TIP3   OH253774   3.917   2.104   0.435  0.7746 -0.0909 -0.2824
 9860TIP3    H153775   3.839   2.063   0.398  0.3812 -1.2571  1.6857
 9860TIP3    H253776   3.906   2.096   0.530  3.1532 -0.0661  0.0728
 9861TIP3   OH253777   6.394   5.492   2.428  0.3174 -0.1197 -0.2864
 9861TIP3    H153778   6.459   5.444   2.378 -0.4531 -0.1575 -1.2929
 9861TIP3    H253779   6.322   5.506   2.366 -0.0888  1.0357  0.4224
 9862TIP3   OH253780   0.898   4.106   2.905  0.3843 -0.1563 -0.3175
 9862TIP3    H153781   0.969   4.166   2.881 -0.8390  1.3447 -0.3516
 9862TIP3    H253782   0.876   4.129   2.995 -0.3204 -0.3149 -0.4403
 9863TIP3   OH253783   2.213   1.309   2.490 -0.2713 -0.1577 -0.4772
 9863TIP3    H153784   2.131   1.301   2.539  0.3069 -0.9876  0.3841
 9863TIP3    H253785   2.259   1.226   2.505  1.0466  0.5628 -0.3450
 9864TIP3   OH253786   5.369   7.034   0.750  0.0684 -0.1156  0.6969
 9864TIP3    H153787   5.299   7.088   0.787  0.7456  0.7235  0.8106
 9864TIP3    H253788   5.434   7.027   0.820  0.3695 -0.3627  0.3989
 9865TIP3   OH253789   4.498   7.205   2.496  0.4359  0.2340 -0.5513
 9865TIP3    H153790   4.429   7.264   2.468 -1.0668 -0.8119  0.8039
 9865TIP3    H253791   4.573   7.262   2.512 -0.2631  1.4671 -1.4686
 9866TIP3   OH253792   3.186   4.036   2.974  0.3939 -0.0641  0.0300
 9866TIP3    H153793   3.118   3.971   2.992  1.0476 -0.1149  2.6265
 9866TIP3    H253794   3.267   3.996   3.004  0.9819  1.5011  0.6225
 9867TIP3   OH253795   1.608   6.749   2.392 -0.1103 -0.1209 -0.5703
 9867TIP3    H153796   1.584   6.735   2.484  0.2938  0.3803 -0.3854
 9867TIP3    H253797   1.551   6.689   2.343 -1.9656  1.2157 -0.1686
 9868TIP3   OH253798   4.952   5.839   2.191 -0.2852  0.1627 -0.0639
 9868TIP3    H153799   4.987   5.756   2.161  0.1526 -0.1715  1.2935
 9868TIP3    H253800   5.028   5.897   2.197 -0.5644  0.6346 -0.8605
 9869TIP3   OH253801   7.517   6.429   0.941 -0.0807 -0.5908 -0.0135
 9869TIP3    H153802   7.434   6.471   0.963  0.7139  0.8217  0.3776
 9869TIP3    H253803   7.526   6.439   0.847  1.6461  3.2249  0.3981
 9870TIP3   OH253804   6.675   1.637   2.544 -0.2590 -1.5122 -0.3995
 9870TIP3    H153805   6.674   1.593   2.629  1.3402  0.2440  0.6127
 9870TIP3    H253806   6.765   1.669   2.536 -0.5342 -1.1663 -2.5236
 9871TIP3   OH253807   3.444   3.184   2.337 -0.0867  0.1097  0.2119
 9871TIP3    H153808   3.379   3.201   2.406  0.3663  0.5625  0.5348
 9871TIP3    H253809   3.528   3.209   2.377  0.4905 -1.8839  0.3266
 9872TIP3   OH253810   6.517   4.238   1.216  0.4455 -0.5830 -0.4176
 9872TIP3    H153811   6.585   4.173   1.197 -1.0859 -1.8099 -2.0494
 9872TIP3    H253812   6.513   4.293   1.138  1.1527  1.0410  0.6266
 9873TIP3   OH253813   4.424   1.315   1.196 -0.2387 -0.0725 -0.4377
 9873TIP3    H153814   4.497   1.362   1.155  0.4637 -0.6776  0.0770
 9873TIP3    H253815   4.385   1.377   1.256  0.7141 -0.1436  0.2787
 9874TIP3   OH253816   4.748   0.952   1.259  0.3672 -0.0634 -0.2087
 9874TIP3    H153817   4.807   0.983   1.190 -0.5544  0.1296 -0.9249
 9874TIP3    H253818   4.689   0.891   1.215 -0.3772  0.2317  0.3574
 9875TIP3   OH253819   2.645   5.543   0.784  0.3246 -0.3531 -0.0946
 9875TIP3    H153820   2.702   5.554   0.859  0.3839  0.5586 -0.2636
 9875TIP3    H253821   2.668   5.457   0.748  0.9345 -0.3887  0.3831
 9876TIP3   OH253822   1.839   0.870   2.336  0.0082  0.3870 -0.1619
 9876TIP3    H153823   1.778   0.801   2.363  0.0292  0.3570 -0.1904
 9876TIP3    H253824   1.864   0.846   2.247 -1.2116  1.2827 -0.7781
 9877TIP3   OH253825   6.950   6.203   1.136  0.4213  0.0341 -0.1690
 9877TIP3    H153826   6.905   6.282   1.165 -0.4932 -0.5302 -0.0290
 9877TIP3    H253827   7.037   6.209   1.177  0.8002  1.5268 -1.0947
 9878TIP3   OH253828   6.538   3.504   0.719  0.6526 -0.3516 -0.0828
 9878TIP3    H153829   6.605   3.552   0.768  1.8779 -0.5010 -1.5476
 9878TIP3    H253830   6.542   3.415   0.754 -0.5162  0.1720  1.5189
 9879TIP3   OH253831   2.195   1.394   1.103  0.3172 -0.0810 -0.0072
 9879TIP3    H153832   2.215   1.418   1.012  0.6198  0.1851  0.1307
 9879TIP3    H253833   2.214   1.301   1.107  0.8324  0.0201 -0.0703
 9880TIP3   OH253834   1.860   0.085   1.139 -0.3220  0.3800  0.2279
 9880TIP3    H153835   1.807   0.159   1.170 -0.2564  0.5906 -0.1645
 9880TIP3    H253836   1.821   0.009   1.182 -1.0441  0.5119 -0.1788
 9881TIP3   OH253837   0.672   3.279   2.903 -0.0360  0.6518  0.4756
 9881TIP3    H153838   0.684   3.360   2.953 -1.5846  0.1484  1.7228
 9881TIP3    H253839   0.582   3.252   2.922 -0.2496 -0.2901 -1.5473
 9882TIP3   OH253840   4.178   1.647   1.935 -0.4433  0.0826 -0.0319
 9882TIP3    H153841   4.123   1.711   1.890 -0.5968  0.6314  0.9177
 9882TIP3    H253842   4.174   1.671   2.027 -1.5897 -2.0780  0.5554
 9883TIP3   OH253843   2.600   2.181   0.937 -0.8116 -0.3624  0.6192
 9883TIP3    H153844   2.683   2.156   0.897 -2.0462 -2.0150 -1.0763
 9883TIP3    H253845   2.582   2.268   0.902  0.1314 -0.0192  0.9463
 9884TIP3   OH253846   0.556   4.582   2.400 -0.1116 -0.1182  0.2233
 9884TIP3    H153847   0.501   4.582   2.478  0.6324 -0.3085  0.7645
 9884TIP3    H253848   0.640   4.548   2.431 -0.3216 -1.8821 -1.0470
 9885TIP3   OH253849   5.280   3.522   0.509  0.2187 -0.0712 -0.4528
 9885TIP3    H153850   5.272   3.564   0.423  2.9911  0.8907 -0.3469
 9885TIP3    H253851   5.256   3.591   0.571 -0.0512 -0.2260 -0.3802
 9886TIP3   OH253852   6.175   1.644   0.967 -0.0623  0.1234  0.2156
 9886TIP3    H153853   6.137   1.698   0.898 -0.9464 -2.9160 -1.9089
 9886TIP3    H253854   6.103   1.589   0.997  1.6376 -3.3178 -1.4106
 9887TIP3   OH253855   7.372   1.699   1.874 -0.1268 -0.7814  0.0441
 9887TIP3    H153856   7.343   1.633   1.937 -0.1716  0.3707  1.2885
 9887TIP3    H253857   7.296   1.755   1.862  0.2994 -0.1864  0.0616
 9888TIP3   OH253858   5.569   4.126   1.110 -0.1743 -0.6967  0.0106
 9888TIP3    H153859   5.595   4.087   1.027 -0.4561  1.4093 -1.1156
 9888TIP3    H253860   5.496   4.071   1.140  0.7982 -2.2821 -0.4074
 9889TIP3   OH253861   0.327   3.520   2.032  0.5860  0.2864 -0.1948
 9889TIP3    H153862   0.341   3.434   1.992 -1.2815  1.1916 -3.1127
 9889TIP3    H253863   0.378   3.580   1.977  0.1234  1.2879  0.4413
 9890TIP3   OH253864   0.244   0.525   0.914 -0.0336  0.2811 -0.3088
 9890TIP3    H153865   0.252   0.472   0.835  1.2816 -1.1950  0.7559
 9890TIP3    H253866   0.231   0.461   0.985 -0.8805  1.5374  0.7191
 9891TIP3   OH253867   6.215   5.590   1.083  0.1419  0.3149 -0.0843
 9891TIP3    H153868   6.223   5.509   1.133 -1.6035  0.8678  1.1852
 9891TIP3    H253869   6.275   5.579   1.009  0.0358 -2.0815  0.1166
 9892TIP3   OH253870   4.937   0.778   2.271  0.0940 -0.1165  0.4960
 9892TIP3    H153871   4.983   0.791   2.354  0.8142  1.0286 -0.0679
 9892TIP3    H253872   5.005   0.782   2.205 -0.4686 -1.0741 -0.1686
 9893TIP3   OH253873   7.213   1.242   1.407  0.8425 -0.2959 -0.6264
 9893TIP3    H153874   7.204   1.187   1.484  0.3215  0.8374  0.1560
 9893TIP3    H253875   7.185   1.187   1.334 -1.9403 -0.4110  0.3907
 9894TIP3   OH253876   3.813   1.660   1.863  0.6204  0.5821 -0.2722
 9894TIP3    H153877   3.807   1.739   1.917 -0.7976 -0.4366  1.1648
 9894TIP3    H253878   3.762   1.595   1.911 -1.7614 -0.0833 -3.4268
 9895TIP3   OH253879   1.778   1.017   1.033  0.1190 -0.1335  0.1869
 9895TIP3    H153880   1.840   0.973   1.090  1.5798 -0.2037 -1.3693
 9895TIP3    H253881   1.830   1.079   0.983 -1.3394  0.9233 -0.1015
 9896TIP3   OH253882   0.469   6.647   1.548  0.6997 -0.0640 -0.0567
 9896TIP3    H153883   0.462   6.742   1.551  0.4433 -0.0868  0.0739
 9896TIP3    H253884   0.382   6.615   1.574  1.0490 -0.3356  0.8248
 9897TIP3   OH253885   7.467   1.130   1.112 -0.4094 -0.4761 -0.4131
 9897TIP3    H153886   7.373   1.141   1.102 -1.2036 -2.0637  3.4792
 9897TIP3    H253887   7.493   1.196   1.176  1.3698  0.4373 -1.9637
 9898TIP3   OH253888   2.517   7.580   2.188  0.3543 -0.1099  0.5981
 9898TIP3    H153889   2.478   7.558   2.272  0.8195 -1.6787  0.4339
 9898TIP3    H253890   2.601   7.620   2.210  0.3035 -0.1573  0.8738
 9899TIP3   OH253891   6.314   6.843   2.227 -0.0764 -1.1045  0.4001
 9899TIP3    H153892   6.398   6.851   2.182  0.9097 -1.0991  2.1498
 9899TIP3    H253893   6.270   6.927   2.212  1.0850 -0.3555  1.0945
 9900TIP3   OH253894   5.262   3.585   2.341 -0.2020  0.0981 -0.4613
 9900TIP3    H153895   5.243   3.528   2.415  0.9713 -0.4613 -0.5666
 9900TIP3    H253896   5.252   3.674   2.375  0.3645 -0.1501  0.3948
 9901TIP3   OH253897   3.366   1.253   1.776  0.2215  0.4429 -0.0043
 9901TIP3    H153898   3.286   1.254   1.828  2.0138 -0.5390  3.0054
 9901TIP3    H253899   3.382   1.344   1.754  0.1072  1.1353  2.4908
 9902TIP3   OH253900   3.878   2.713   1.909  0.1055  0.0303  0.1896
 9902TIP3    H153901   3.848   2.677   1.825  0.6304  0.0593 -0.0101
 9902TIP3    H253902   3.936   2.785   1.885  1.2399 -0.7416  0.5545
 9903TIP3   OH253903   2.111   5.775   1.617  0.4708  0.6991 -0.0887
 9903TIP3    H153904   2.100   5.692   1.663  1.5255  0.3360 -0.4814
 9903TIP3    H253905   2.021   5.806   1.603  0.0654 -0.3982 -0.0086
 9904TIP3   OH253906   0.710   3.327   1.060 -0.6259  0.0286  0.0272
 9904TIP3    H153907   0.676   3.310   1.149  0.0130 -0.9566  0.0962
 9904TIP3    H253908   0.715   3.240   1.020 -0.6093  0.4385 -0.8730
 9905TIP3   OH253909   5.564   3.949   2.664 -0.7098 -0.0604  0.4131
 9905TIP3    H153910   5.614   3.873   2.635 -0.2319  0.3746  0.0948
 9905TIP3    H253911   5.607   3.977   2.745 -1.0065 -0.2413  0.6383
 9906TIP3   OH253912   5.669   6.669   3.348 -0.1434 -0.3476  0.3752
 9906TIP3    H153913   5.656   6.752   3.393 -0.9235  0.3811 -1.0933
 9906TIP3    H253914   5.758   6.674   3.313 -0.3168  0.0566 -0.0247
 9907TIP3   OH253915   0.676   4.614   0.958 -0.2575 -0.0401 -0.0845
 9907TIP3    H153916   0.630   4.531   0.967  1.2304 -0.9641 -0.6767
 9907TIP3    H253917   0.628   4.661   0.889 -1.3669 -0.1914  0.5540
 9908TIP3   OH253918   0.728   2.064   2.796  0.1066  0.0827  0.3851
 9908TIP3    H153919   0.697   2.147   2.760  2.3209  0.7480 -0.1614
 9908TIP3    H253920   0.781   2.090   2.872 -0.6658 -0.9925  1.3244
 9909TIP3   OH253921   6.595   3.018   0.556  0.0804  0.5356  0.3466
 9909TIP3    H153922   6.636   3.003   0.471  1.9252  0.0404  1.2796
 9909TIP3    H253923   6.551   2.935   0.577 -0.7144  0.7877 -0.2754
 9910TIP3   OH253924   5.836   6.958   0.844 -0.0294  0.6763 -0.1287
 9910TIP3    H153925   5.832   6.960   0.749 -0.1199 -0.5733 -0.1749
 9910TIP3    H253926   5.928   6.974   0.865 -0.1641  1.8486 -0.3671
 9911TIP3   OH253927   7.415   6.158   0.888 -0.8374 -0.1254  0.4299
 9911TIP3    H153928   7.477   6.226   0.915 -0.0002 -0.2682 -1.0586
 9911TIP3    H253929   7.467   6.077   0.887 -0.9515 -0.1958 -1.1185
 9912TIP3   OH253930   1.161   3.400   1.198  0.1993  0.4368 -0.6776
 9912TIP3    H153931   1.254   3.418   1.184  0.4289 -0.4333 -0.3472
 9912TIP3    H253932   1.156   3.370   1.289 -0.3483  0.1291 -0.8042
 9913TIP3   OH253933   2.979   4.162   2.827 -0.0929  0.3632  0.0889
 9913TIP3    H153934   3.028   4.105   2.887 -1.8747  0.1671  1.4651
 9913TIP3    H253935   2.889   4.158   2.860 -0.6869  2.1783 -1.1836
 9914TIP3   OH253936   5.863   0.906   1.779 -0.5521  0.5474  0.2370
 9914TIP3    H153937   5.856   0.921   1.685 -1.0508  1.6946  0.4365
 9914TIP3    H253938   5.848   0.812   1.790 -1.4299  0.5556 -0.7472
 9915TIP3   OH253939   7.064   3.453   1.729 -0.2668 -0.1322 -0.2747
 9915TIP3    H153940   7.032   3.363   1.717  1.4832 -1.0158  1.1827
 9915TIP3    H253941   7.128   3.464   1.658 -0.0651 -0.2700 -0.1181
 9916TIP3   OH253942   2.124   5.747   3.035  0.2699 -0.3776  0.1002
 9916TIP3    H153943   2.176   5.670   3.013  0.7230 -0.1664  0.4026
 9916TIP3    H253944   2.042   5.736   2.987 -0.1958 -1.6848  1.1297
 9917TIP3   OH253945   5.559   5.447   1.420 -0.1221 -0.3845  0.3422
 9917TIP3    H153946   5.584   5.513   1.356 -2.3787  1.4271  1.1741
 9917TIP3    H253947   5.473   5.476   1.451 -0.3000 -2.6593  2.2222
 9918TIP3   OH253948   5.754   0.930   0.794 -0.6562  0.1068 -0.2735
 9918TIP3    H153949   5.801   0.894   0.719 -1.1323  0.4443 -0.7430
 9918TIP3    H253950   5.798   1.012   0.814 -0.4743 -0.0266 -0.1243
 9919TIP3   OH253951   7.591   2.277   2.640  0.3044 -0.1242  0.1274
 9919TIP3    H153952   7.593   2.241   2.729  1.6337  0.7016  0.4680
 9919TIP3    H253953   7.658   2.346   2.641 -1.1149  1.3530 -0.9008
 9920TIP3   OH253954   5.295   7.088   2.492  0.1699 -0.0000 -0.6544
 9920TIP3    H153955   5.327   7.178   2.486  1.2399 -0.4096 -1.2009
 9920TIP3    H253956   5.236   7.089   2.567 -0.8474  1.4590 -1.4200
 9921TIP3   OH253957   7.430   5.333   0.521  0.4063  0.6650 -0.2190
 9921TIP3    H153958   7.359   5.282   0.480  1.2235  0.2184 -1.1139
 9921TIP3    H253959   7.401   5.424   0.515 -0.2315  0.4604 -0.2977
 9922TIP3   OH253960   6.876   0.528   1.693 -0.1285 -0.4847  0.2439
 9922TIP3    H153961   6.817   0.541   1.618 -0.4121 -0.9971  0.3750
 9922TIP3    H253962   6.960   0.561   1.662 -0.3969 -0.0708 -0.0692
 9923TIP3   OH253963   1.924   4.769   1.508 -0.4584  0.2402 -0.3523
 9923TIP3    H153964   1.922   4.792   1.601 -0.9017 -1.0656 -0.0203
 9923TIP3    H253965   1.832   4.765   1.482 -0.3547 -0.0724 -0.6741
 9924TIP3   OH253966   2.451   5.401   1.748 -0.0481  0.0967  0.0280
 9924TIP3    H153967   2.476   5.493   1.736 -0.6683  0.0732 -1.7553
 9924TIP3    H253968   2.513   5.352   1.694 -0.6043 -0.4013 -0.1707
 9925TIP3   OH253969   0.385   6.945   2.843  0.0649 -0.0488  0.1042
 9925TIP3    H153970   0.316   6.951   2.909  0.3800 -0.7696  0.5142
 9925TIP3    H253971   0.385   6.853   2.816  0.8178 -0.0463  0.0688
 9926TIP3   OH253972   1.697   6.900   1.159 -0.2455 -0.3441 -0.9512
 9926TIP3    H153973   1.767   6.852   1.114 -0.1099  0.1312 -1.2484
 9926TIP3    H253974   1.743   6.954   1.224 -0.5361 -2.3071  1.0109
 9927TIP3   OH253975   1.517   2.755   3.697  0.2095 -0.4500  0.3412
 9927TIP3    H153976   1.613   2.753   3.692  0.1838 -3.2077 -0.2403
 9927TIP3    H253977   1.488   2.715   3.615 -1.4827  0.5597  0.4052
 9928TIP3   OH253978   2.434   6.331   0.551  0.0105 -0.1472  0.2536
 9928TIP3    H153979   2.485   6.253   0.530 -1.6708 -0.9026 -1.3199
 9928TIP3    H253980   2.373   6.302   0.618 -0.7179 -0.2507 -0.4421
 9929TIP3   OH253981   2.959   6.162   2.220  0.0018  0.1385  0.0147
 9929TIP3    H153982   3.021   6.193   2.286 -1.1173  1.3895  0.5338
 9929TIP3    H253983   2.904   6.099   2.267 -0.3580  0.5098  0.0955
 9930TIP3   OH253984   3.916   0.867   1.867  0.2205  0.2452  0.6954
 9930TIP3    H153985   3.953   0.910   1.944  0.2322 -0.4193  1.0700
 9930TIP3    H253986   3.910   0.774   1.892 -0.0346  0.0680 -0.0022
 9931TIP3   OH253987   3.586   4.263   1.547  0.3675 -0.0729  0.4537
 9931TIP3    H153988   3.652   4.330   1.565 -0.3381  1.1101 -1.0635
 9931TIP3    H253989   3.558   4.232   1.633  1.4343  0.8724  1.1601
 9932TIP3   OH253990   0.192   2.421   0.956 -0.0554  0.3458 -0.0996
 9932TIP3    H153991   0.106   2.416   0.997 -0.5289  0.5075 -1.0452
 9932TIP3    H253992   0.182   2.374   0.873  0.5370  1.0598 -0.5945
 9933TIP3   OH253993   3.118   4.134   1.821 -0.3517  0.0714 -0.6050
 9933TIP3    H153994   3.118   4.185   1.740  1.3928 -0.9681 -1.3284
 9933TIP3    H253995   3.129   4.043   1.792 -0.4368 -0.3927  0.7591
 9934TIP3   OH253996   4.166   6.355   2.966 -0.2860  0.1095  0.3317
 9934TIP3    H153997   4.072   6.352   2.948 -0.8120 -0.4137  2.7323
 9934TIP3    H253998   4.181   6.441   3.004  0.2723  0.2843 -0.2647
 9935TIP3   OH253999   1.141   5.962   1.577  0.1428 -0.0276  0.3282
 9935TIP3    H154000   1.236   5.953   1.570  0.0902 -1.2733  0.9100
 9935TIP3    H254001   1.127   6.023   1.649  0.4940  1.5838 -0.9057
 9936TIP3   OH254002   1.781   5.127   1.851  0.3704  0.0605 -0.3330
 9936TIP3    H154003   1.773   5.221   1.862 -2.0815 -0.0332 -0.7291
 9936TIP3    H254004   1.773   5.091   1.939 -0.9512  0.1639 -0.3849
 9937TIP3   OH254005   2.207   4.804   1.753  0.1400  0.0313  0.0313
 9937TIP3    H154006   2.139   4.754   1.797  0.6808 -1.3225 -0.6041
 9937TIP3    H254007   2.230   4.752   1.676  0.7741  1.2433 -0.6481
 9938TIP3   OH254008   1.937   5.598   1.800  0.2622  0.1949 -0.0150
 9938TIP3    H154009   2.024   5.568   1.824 -0.3402  0.3809  2.6628
 9938TIP3    H254010   1.926   5.681   1.845 -1.7098 -0.3888  0.6897
 9939TIP3   OH254011   1.938   6.651   1.900  0.2583 -0.4031  0.1776
 9939TIP3    H154012   2.020   6.645   1.851 -0.4733  0.7934 -1.2656
 9939TIP3    H254013   1.966   6.665   1.990  1.6369 -0.3015 -0.2323
 9940TIP3   OH254014   6.912   4.352   1.370  0.3854 -0.4286 -0.3446
 9940TIP3    H154015   7.000   4.352   1.332  0.5219  0.5853 -0.0659
 9940TIP3    H254016   6.920   4.303   1.451  0.2143 -2.1427 -1.3216
 9941TIP3   OH254017   7.559   5.243   1.279  0.0949  0.3642  0.4761
 9941TIP3    H154018   7.547   5.196   1.361 -1.2518 -1.2598 -0.5915
 9941TIP3    H254019   7.504   5.320   1.287 -0.6666 -0.2031  0.7920
 9942TIP3   OH254020   3.841   1.613   0.522 -0.1187  0.7204  0.4441
 9942TIP3    H154021   3.929   1.578   0.508 -0.2174  0.9042 -0.7195
 9942TIP3    H254022   3.806   1.562   0.595  0.1387 -0.8765 -0.5002
 9943TIP3   OH254023   5.097   6.450   0.568  0.1804 -0.2090  0.2701
 9943TIP3    H154024   5.161   6.513   0.600  0.6742 -0.5311 -0.0722
 9943TIP3    H254025   5.082   6.476   0.477  0.7556 -0.8778 -0.0210
 9944TIP3   OH254026   7.131   6.896   1.830 -0.0269 -0.4245  0.3046
 9944TIP3    H154027   7.099   6.949   1.903 -1.0355  1.1327 -1.1866
 9944TIP3    H254028   7.213   6.936   1.805 -1.4288  1.4224 -1.6864
 9945TIP3   OH254029   1.344   6.419   2.063  0.7901 -0.1505  0.3327
 9945TIP3    H154030   1.280   6.395   2.130  0.8568 -1.6831 -0.1110
 9945TIP3    H254031   1.292   6.435   1.984  0.6563  2.2302  0.8488
 9946TIP3   OH254032   6.085   1.732   2.123  0.1203 -0.4653  0.1103
 9946TIP3    H154033   5.991   1.717   2.133  0.0838 -1.4417 -1.3816
 9946TIP3    H254034   6.125   1.648   2.146  0.5353 -0.4398 -0.5046
 9947TIP3   OH254035   2.924   3.865   1.942 -0.1274  0.1546  0.0039
 9947TIP3    H154036   2.883   3.921   1.876 -0.4358 -0.2205 -0.1263
 9947TIP3    H254037   3.018   3.870   1.923 -0.2004  0.1956 -0.3465
 9948TIP3   OH254038   3.994   7.144   2.204  0.2879  0.2994  0.0864
 9948TIP3    H154039   4.023   7.130   2.294  1.7770  1.2903 -0.1936
 9948TIP3    H254040   4.008   7.060   2.161 -1.2520 -0.4374  0.9541
 9949TIP3   OH254041   3.138   5.477   1.679  0.2979  0.0253 -0.5388
 9949TIP3    H154042   3.174   5.558   1.715 -1.2908  0.2199  0.7002
 9949TIP3    H254043   3.115   5.425   1.756 -2.1998 -0.0056 -1.2286
 9950TIP3   OH254044   5.375   5.763   2.930 -0.1278 -0.2071 -0.3074
 9950TIP3    H154045   5.391   5.675   2.894 -0.9237 -1.2566  1.7378
 9950TIP3    H254046   5.444   5.775   2.996  0.6249  1.2099 -1.2793
 9951TIP3   OH254047   5.801   4.503   1.363  0.2772  0.5978 -0.7975
 9951TIP3    H154048   5.817   4.526   1.271  0.0952  0.3426 -0.8978
 9951TIP3    H254049   5.798   4.586   1.409  1.0000  0.6970 -0.9171
 9952TIP3   OH254050   2.770   7.644   2.274 -0.1741  0.1810  0.4118
 9952TIP3    H154051   2.836   7.626   2.207  0.5419 -1.5377  1.5104
 9952TIP3    H254052   2.798   7.593   2.349 -2.5489 -0.2741  1.0664
 9953TIP3   OH254053   1.379   3.591   2.985 -0.7464  0.0235  0.1731
 9953TIP3    H154054   1.452   3.537   2.953 -0.8739  0.3095 -0.6101
 9953TIP3    H254055   1.301   3.552   2.945 -0.9386  0.1956  0.3815
 9954TIP3   OH254056   4.006   5.931   2.542  0.0864 -0.0685  0.3283
 9954TIP3    H154057   4.064   6.005   2.559  0.6484 -0.2802 -0.5896
 9954TIP3    H254058   4.012   5.877   2.621 -1.6356  1.6567  1.7176
 9955TIP3   OH254059   5.198   7.141   1.378  0.4350  0.3194  0.0264
 9955TIP3    H154060   5.228   7.063   1.331 -0.4202  0.5814 -0.9914
 9955TIP3    H254061   5.153   7.106   1.456 -1.9990 -0.3856 -1.5713
 9956TIP3   OH254062   6.247   5.942   2.950 -0.1584 -0.4498 -0.3153
 9956TIP3    H154063   6.260   5.961   3.043 -0.0220  0.0089 -0.4255
 9956TIP3    H254064   6.335   5.924   2.917  0.0209  0.9877 -0.6976
 9957TIP3   OH254065   4.554   0.758   2.819 -0.0974  0.2668  0.3279
 9957TIP3    H154066   4.645   0.773   2.795  0.3161  1.1760  2.2603
 9957TIP3    H254067   4.520   0.845   2.841 -0.3340 -0.4277  3.0822
 9958TIP3   OH254068   6.565   4.764   3.153  0.3397 -0.7673 -0.4359
 9958TIP3    H154069   6.634   4.701   3.173  0.0114 -0.7326  0.9721
 9958TIP3    H254070   6.607   4.850   3.159  0.3584 -0.7802 -0.3837
 9959TIP3   OH254071   2.806   4.344   1.775  0.1251  0.1687  0.1564
 9959TIP3    H154072   2.737   4.382   1.720 -0.1594  0.1685  0.5141
 9959TIP3    H254073   2.784   4.370   1.864  0.4963  0.0265  0.2933
 9960TIP3   OH254074   7.324   6.554   2.885 -0.3610  0.5783  0.0260
 9960TIP3    H154075   7.317   6.541   2.790 -1.1364  0.8125  0.0431
 9960TIP3    H254076   7.385   6.487   2.914  1.2915  1.6083 -0.8877
 9961TIP3   OH254077   7.488   4.028   2.939  0.4093  0.2351 -0.0208
 9961TIP3    H154078   7.567   3.992   2.899 -1.4200 -3.4344 -0.7830
 9961TIP3    H254079   7.459   3.961   3.000 -0.5501  2.8085  2.5971
 9962TIP3   OH254080   6.028   5.465   0.838  0.0000  0.0956 -0.5837
 9962TIP3    H154081   6.033   5.512   0.755 -1.6518  0.7841 -0.3387
 9962TIP3    H254082   6.049   5.530   0.904  1.5739 -0.5158 -0.4435
 9963TIP3   OH254083   4.628   4.100   0.429 -0.0043  0.3179  0.0200
 9963TIP3    H154084   4.550   4.050   0.407 -1.1842  1.1149  2.0636
 9963TIP3    H254085   4.595   4.188   0.450  1.8154  1.5932 -2.0202
 9964TIP3   OH254086   4.692   7.657   0.665  0.2485 -0.3603 -0.2238
 9964TIP3    H154087   4.698   7.715   0.589 -1.9289 -1.5602 -1.3852
 9964TIP3    H254088   4.761   7.591   0.650 -1.0613 -1.4143 -1.9651
 9965TIP3   OH254089   4.947   3.726   0.493  0.0494  0.2335  0.1381
 9965TIP3    H154090   4.887   3.788   0.452  1.8143  2.1574  0.3213
 9965TIP3    H254091   4.927   3.730   0.586 -0.8092 -0.5971 -0.0004
 9966TIP3   OH254092   5.808   2.353   1.955  0.3898  0.0226 -0.1904
 9966TIP3    H154093   5.827   2.263   1.928 -0.5616 -0.2887  0.1428
 9966TIP3    H254094   5.811   2.403   1.873  1.0711 -0.2798 -0.3571
 9967TIP3   OH254095   2.519   4.450   1.369  0.6153 -0.5034  0.1185
 9967TIP3    H154096   2.568   4.395   1.307  1.6050 -0.1075  0.5368
 9967TIP3    H254097   2.584   4.477   1.433 -0.2629 -0.3584  0.9651
 9968TIP3   OH254098   4.926   7.516   0.519 -0.2687  0.2021  0.1005
 9968TIP3    H154099   4.980   7.488   0.593  2.2607 -0.4349 -1.8303
 9968TIP3    H254100   4.956   7.605   0.500 -0.0123 -0.0844 -0.8897
 9969TIP3   OH254101   0.056   7.494   2.038  0.0453 -0.2000 -0.7059
 9969TIP3    H154102   0.001   7.554   1.987 -0.0834  0.0464 -0.2787
 9969TIP3    H254103  -0.006   7.443   2.091  0.0075 -1.9315 -2.3166
 9970TIP3   OH254104   3.377   1.752   1.919  0.0011  0.5053  0.4854
 9970TIP3    H154105   3.377   1.844   1.892 -0.1913  0.6651  1.0152
 9970TIP3    H254106   3.324   1.751   1.999 -1.1828 -0.2967 -0.2822
 9971TIP3   OH254107   6.640   3.369   2.480  0.1937  0.5448 -0.4801
 9971TIP3    H154108   6.715   3.323   2.443  0.7338  0.1306  1.0589
 9971TIP3    H254109   6.677   3.447   2.522 -0.1791  0.2260  0.4761
 9972TIP3   OH254110   6.499   2.797   1.820  0.0881  0.0496  0.0227
 9972TIP3    H154111   6.550   2.732   1.771 -0.7622 -0.3165 -0.4030
 9972TIP3    H254112   6.541   2.880   1.801 -0.0546 -0.1244 -1.1135
 9973TIP3   OH254113   0.766   2.770   0.757  0.7552  0.1449 -0.4875
 9973TIP3    H154114   0.721   2.742   0.837 -1.0114  1.4409 -0.9736
 9973TIP3    H254115   0.785   2.688   0.712  0.1144 -0.5217  0.3997
 9974TIP3   OH254116   2.341   5.681   1.444  0.0542  0.0212  0.1138
 9974TIP3    H154117   2.266   5.706   1.499 -0.4834  0.9570 -0.9791
 9974TIP3    H254118   2.358   5.759   1.391  1.4517 -0.3802 -0.0612
 9975TIP3   OH254119   1.706   6.180   2.454 -0.3255  0.6299 -0.3684
 9975TIP3    H154120   1.788   6.159   2.408  0.3115  1.2569  0.4402
 9975TIP3    H254121   1.638   6.143   2.399  0.4720  0.5264 -1.3256
 9976TIP3   OH254122   1.598   7.339   1.154 -0.0066  0.2792 -0.0816
 9976TIP3    H154123   1.558   7.355   1.239 -0.7467 -2.5291  0.1952
 9976TIP3    H254124   1.639   7.252   1.162  0.2464  0.1050 -2.4498
 9977TIP3   OH254125   5.049   3.130   0.805  0.2548 -0.1534  0.0559
 9977TIP3    H154126   5.060   3.180   0.724  1.0482 -0.9734 -0.3582
 9977TIP3    H254127   5.083   3.188   0.873  1.8385 -0.3786 -0.5036
 9978TIP3   OH254128   1.175   1.355   3.337 -0.5403 -0.2198  0.4543
 9978TIP3    H154129   1.131   1.272   3.355 -0.3275 -0.3360  0.4425
 9978TIP3    H254130   1.257   1.330   3.295 -0.0391 -0.0529  1.3027
 9979TIP3   OH254131   3.571   3.020   0.538  0.0077 -0.0333  0.7142
 9979TIP3    H154132   3.527   2.935   0.538 -0.0353 -0.0124  1.0455
 9979TIP3    H254133   3.648   3.007   0.592  1.3958 -0.5645 -1.2755
 9980TIP3   OH254134   6.484   7.556   1.234 -0.3613  0.2448  0.0617
 9980TIP3    H154135   6.479   7.638   1.283  0.6611  0.7713 -0.6572
 9980TIP3    H254136   6.559   7.568   1.175 -1.7610 -0.1901 -1.9117
 9981TIP3   OH254137   2.257   2.000   2.222  0.2637  0.1059 -0.5148
 9981TIP3    H154138   2.253   1.945   2.144 -1.7198 -0.8710  0.1921
 9981TIP3    H254139   2.310   1.950   2.284 -0.3163 -0.3457 -0.3733
 9982TIP3   OH254140   5.613   4.832   0.639  0.2954  0.3310 -0.3348
 9982TIP3    H154141   5.623   4.740   0.664  1.8631  0.4288 -0.4811
 9982TIP3    H254142   5.538   4.863   0.690  0.2567 -0.8114  0.3341
 9983TIP3   OH254143   1.379   2.899   2.093 -0.0458  0.0299 -0.0513
 9983TIP3    H154144   1.411   2.989   2.087 -1.8300  0.7786  0.8940
 9983TIP3    H254145   1.301   2.897   2.038 -0.2131 -0.8544  0.1946
 9984TIP3   OH254146   0.536   1.391   2.211  0.4658 -0.5569  0.1024
 9984TIP3    H154147   0.463   1.445   2.243  1.1082  1.1645 -1.1787
 9984TIP3    H254148   0.494   1.313   2.176 -0.9169  0.8194 -1.4911
 9985TIP3   OH254149   5.796   5.318   1.498  0.1323  0.3911 -0.7890
 9985TIP3    H154150   5.717   5.369   1.482  1.0602  1.8449 -0.9010
 9985TIP3    H254151   5.778   5.233   1.458 -1.4942  0.5722 -0.5145
 9986TIP3   OH254152   1.835   1.527   0.585  0.2237  0.3081  0.1205
 9986TIP3    H154153   1.798   1.606   0.624 -0.6427 -0.8013  1.6623
 9986TIP3    H254154   1.924   1.522   0.621  0.5919  0.9854 -0.6447
 9987TIP3   OH254155   4.961   2.422   2.362  0.0385  0.7313 -0.0592
 9987TIP3    H154156   4.988   2.332   2.345 -2.4783 -0.0972 -0.0692
 9987TIP3    H254157   5.014   2.475   2.302  1.1874 -0.7567 -0.4179
 9988TIP3   OH254158   6.879   6.503   2.936 -0.7330  0.3098 -0.6036
 9988TIP3    H154159   6.893   6.534   3.026 -2.3128 -1.5749  0.3695
 9988TIP3    H254160   6.809   6.558   2.903 -0.5332  0.6425 -0.4826
 9989TIP3   OH254161   4.951   1.874   1.488  0.4588 -0.4446 -0.1510
 9989TIP3    H154162   4.986   1.963   1.485 -0.2874 -0.1465 -0.3442
 9989TIP3    H254163   4.949   1.852   1.582  0.3311 -0.1309 -0.0801
 9990TIP3   OH254164   0.964   1.527   3.310  0.4993  0.8050 -0.5432
 9990TIP3    H154165   0.891   1.491   3.259  0.5944  0.7121 -0.6151
 9990TIP3    H254166   1.018   1.451   3.330  0.4703  0.8441 -0.3155
 9991TIP3   OH254167   1.282   1.472   1.055 -0.3639  0.7049  0.5745
 9991TIP3    H154168   1.233   1.536   1.004 -2.1653 -0.0322  1.2612
 9991TIP3    H254169   1.278   1.505   1.145 -0.6945  0.0222  0.8217
 9992TIP3   OH254170   2.319   0.861   0.673 -1.0357 -0.0095  0.0917
 9992TIP3    H154171   2.376   0.936   0.688  2.0284 -2.1855  0.2938
 9992TIP3    H254172   2.290   0.835   0.760  0.0474 -0.5727  0.2967
 9993TIP3   OH254173   1.989   1.594   1.159  0.0557 -0.2150 -0.4412
 9993TIP3    H154174   2.071   1.554   1.134  0.5753  0.2675  0.4346
 9993TIP3    H254175   1.922   1.542   1.114  0.7331 -1.6539  0.1498
 9994TIP3   OH254176   4.522   4.158   1.864  0.8681 -0.4646 -0.1751
 9994TIP3    H154177   4.533   4.122   1.776  1.5370  0.4448 -0.4841
 9994TIP3    H254178   4.607   4.196   1.885  0.4558  0.1124  0.4992
 9995TIP3   OH254179   5.395   0.436   0.344  0.0012  0.0306  0.5103
 9995TIP3    H154180   5.432   0.438   0.256 -1.1846  1.2108  0.0078
 9995TIP3    H254181   5.463   0.395   0.398  1.2380  0.3957 -0.7241
 9996TIP3   OH254182   0.467   7.222   0.477 -0.0214  0.3322  0.3362
 9996TIP3    H154183   0.434   7.296   0.425  0.0089  0.2468  0.1924
 9996TIP3    H254184   0.430   7.235   0.564 -0.9715 -0.1028  0.0157
 9997TIP3   OH254185   4.117   0.376   0.663  0.2880 -0.4563 -0.2744
 9997TIP3    H154186   4.099   0.386   0.570 -0.2112  0.4010 -0.0959
 9997TIP3    H254187   4.196   0.428   0.678 -1.2763  1.8782  0.3101
 9998TIP3   OH254188   5.431   6.020   2.828  0.1033  0.3018 -0.0433
 9998TIP3    H154189   5.356   6.032   2.886 -1.7569 -0.3754 -2.1639
 9998TIP3    H254190   5.454   5.928   2.835  0.1880  0.3227 -0.0368
 9999TIP3   OH254191   5.210   4.252   2.252  0.1255 -0.0263  0.3055
 9999TIP3    H154192   5.176   4.169   2.284  1.2416 -0.1211  1.3062
 9999TIP3    H254193   5.305   4.238   2.245  0.4113  1.3553  1.1076
10000TIP3   OH254194   5.998   6.380   2.457  0.5521 -0.0485  0.4294
10000TIP3    H154195   5.985   6.412   2.368  2.4797 -1.5438 -0.4922
10000TIP3    H254196   6.063   6.439   2.495  2.9962 -1.7553 -0.7613
10001TIP3   OH254197   6.347   3.112   2.781  0.5347  0.0269  0.5853
10001TIP3    H154198   6.406   3.186   2.764  0.8141 -0.0778  1.0677
10001TIP3    H254199   6.260   3.152   2.784 -0.4313 -0.5005 -6.0353
10002TIP3   OH254200   0.004   5.051   1.096  0.4823 -0.4792 -0.2073
10002TIP3    H154201  -0.060   5.103   1.143 -0.4449 -1.2797 -0.5592
10002TIP3    H254202  -0.043   4.972   1.069  1.4255 -0.7805 -1.0557
10003TIP3   OH254203   0.639   1.837   3.151  0.0090  0.4213  0.5972
10003TIP3    H154204   0.580   1.897   3.104  0.4315  0.0564 -0.4386
10003TIP3    H254205   0.609   1.840   3.241 -0.6063  1.4359  0.3785
10004TIP3   OH254206   2.247   5.755   2.482 -0.2807 -0.0698  0.6107
10004TIP3    H154207   2.159   5.773   2.516 -1.1736 -1.7833 -0.6380
10004TIP3    H254208   2.235   5.680   2.424  2.1122 -0.6418  0.7607
10005TIP3   OH254209   5.310   5.903   1.388 -0.6804  0.0559  0.1769
10005TIP3    H154210   5.220   5.934   1.397 -1.0956 -1.2248  0.6203
10005TIP3    H254211   5.360   5.981   1.365 -1.8481  0.8450  0.2425
10006TIP3   OH254212   0.836   4.209   0.523  0.3510 -0.1976 -0.3593
10006TIP3    H154213   0.920   4.164   0.529  0.4766  0.0349 -0.3475
10006TIP3    H254214   0.847   4.271   0.452  0.5393  0.5621  0.3176
10007TIP3   OH254215   7.233   4.922   1.605  0.2498  0.7802  0.3273
10007TIP3    H154216   7.215   4.837   1.565  1.0729  1.8903 -2.6470
10007TIP3    H254217   7.300   4.903   1.671 -0.0815 -0.9646  0.2124
10008TIP3   OH254218   7.627   2.419   0.632 -0.2732  0.3785  0.5471
10008TIP3    H154219   7.588   2.384   0.712  0.1870  0.3991  0.7819
10008TIP3    H254220   7.567   2.488   0.605 -0.3082  0.5352  1.0083
10009TIP3   OH254221   0.673   1.582   2.074  0.0368 -0.4179 -0.5588
10009TIP3    H154222   0.596   1.595   2.018  1.0688  0.3580 -1.8607
10009TIP3    H254223   0.647   1.514   2.135 -1.0390 -1.5731 -2.2190
10010TIP3   OH254224   4.062   2.097   2.569 -0.1898 -0.4715 -0.0053
10010TIP3    H154225   4.003   2.125   2.639 -2.2029 -1.8334 -1.0475
10010TIP3    H254226   4.096   2.013   2.599  0.0984 -0.3596 -0.0206
10011TIP3   OH254227   6.272   3.575   1.304  0.1930 -0.0187 -0.5497
10011TIP3    H154228   6.251   3.622   1.385 -0.6891 -2.9595  1.0540
10011TIP3    H254229   6.362   3.545   1.315  0.2003 -0.1185 -0.8586
10012TIP3   OH254230   2.280   0.097   0.568 -0.0830  0.2553  0.0099
10012TIP3    H154231   2.291   0.123   0.659 -1.2557 -0.2271  0.3160
10012TIP3    H254232   2.320   0.167   0.517  1.6474 -0.0241  0.8974
10013TIP3   OH254233   7.656   1.412   1.949  0.4185  0.1189 -0.0509
10013TIP3    H154234   7.617   1.324   1.948  0.4912  0.0553 -2.2447
10013TIP3    H254235   7.743   1.399   1.987  0.4741 -0.7886 -0.4653
10014TIP3   OH254236   0.402   1.809   1.509  0.5043  0.5769  0.0084
10014TIP3    H154237   0.488   1.773   1.488 -0.1630  0.4679 -2.8428
10014TIP3    H254238   0.395   1.799   1.604  3.0073 -0.7720  0.1356
10015TIP3   OH254239   4.512   7.506   1.608  0.7605 -0.5311  0.0891
10015TIP3    H154240   4.583   7.502   1.672  1.2721 -0.5620 -0.4850
10015TIP3    H254241   4.540   7.449   1.537  0.0484 -0.7448 -0.0296
10016TIP3   OH254242   2.058   5.017   0.489  0.0425 -0.1964  0.1985
10016TIP3    H154243   2.060   4.928   0.455 -2.8098 -0.7984  1.3444
10016TIP3    H254244   2.006   5.066   0.425 -0.9808 -0.1199  1.0620
10017TIP3   OH254245   0.785   3.344   1.481  0.2551  0.5486  0.0586
10017TIP3    H154246   0.718   3.324   1.415 -1.2236 -1.2620  1.9625
10017TIP3    H254247   0.868   3.332   1.436 -0.7005 -0.0871 -1.6043
10018TIP3   OH254248   5.855   5.963   1.130 -0.3066  0.4120 -0.4646
10018TIP3    H154249   5.905   5.882   1.130  0.1248  0.6655  0.3193
10018TIP3    H254250   5.769   5.939   1.095 -0.6842 -0.7072  1.1331
10019TIP3   OH254251   1.447   1.477   2.001  0.3983 -0.2128 -0.1366
10019TIP3    H154252   1.521   1.529   2.031 -0.8416  1.4897  0.0843
10019TIP3    H254253   1.445   1.490   1.906  0.4779 -0.3903 -0.1629
10020TIP3   OH254254   7.262   0.724   0.798  0.3462  0.3897 -0.1289
10020TIP3    H154255   7.278   0.630   0.798  0.2943  0.3687 -1.5074
10020TIP3    H254256   7.278   0.750   0.889 -0.8061 -1.1286  0.5659
10021TIP3   OH254257   1.946   3.341   1.314  0.0008  0.1684  0.1039
10021TIP3    H154258   1.984   3.258   1.284 -0.1924 -0.6160  1.9016
10021TIP3    H254259   1.936   3.392   1.234 -1.3001 -2.1007 -1.3077
10022TIP3   OH254260   1.226   7.471   1.287  0.0993  0.1904 -0.3884
10022TIP3    H154261   1.171   7.496   1.213 -3.6604 -0.8969  1.7443
10022TIP3    H254262   1.240   7.377   1.276 -0.5339  0.0127  0.3008
10023TIP3   OH254263   5.071   6.697   2.298 -0.4908 -0.1426 -0.5069
10023TIP3    H154264   5.068   6.792   2.305 -0.6971 -0.1582 -0.3827
10023TIP3    H254265   5.050   6.678   2.206  1.9593  0.0517 -1.1776
10024TIP3   OH254266   3.397   3.758   1.163 -0.4672 -0.3532  0.1993
10024TIP3    H154267   3.406   3.824   1.231 -0.9839  0.7681 -0.8003
10024TIP3    H254268   3.481   3.713   1.162 -0.0966  0.3138  0.8489
10025TIP3   OH254269   7.048   3.747   2.509 -0.4679  0.0252 -0.7619
10025TIP3    H154270   7.090   3.662   2.496  1.8031  0.7635  1.1464
10025TIP3    H254271   7.018   3.746   2.600 -0.7002  1.1392 -0.8088
10026TIP3   OH254272   6.341   5.064   0.859  0.2269  0.4064  0.1127
10026TIP3    H154273   6.421   5.102   0.824 -0.1752  1.1625 -0.0169
10026TIP3    H254274   6.271   5.100   0.804 -0.2081 -0.2063  0.2458
10027TIP3   OH254275   1.349   4.154   1.358 -0.6495 -0.0193 -0.2484
10027TIP3    H154276   1.306   4.214   1.419 -0.3536  1.8171 -1.7641
10027TIP3    H254277   1.278   4.102   1.321 -1.0841  0.2975  0.1313
10028TIP3   OH254278   4.652   5.203   0.765  0.1220 -0.3386 -0.2464
10028TIP3    H154279   4.695   5.131   0.718 -0.0170 -0.9189  0.5028
10028TIP3    H254280   4.686   5.197   0.854  0.8539  1.1316 -0.4015
10029TIP3   OH254281   1.305   2.650   1.397  1.0193 -0.6427  0.1348
10029TIP3    H154282   1.357   2.583   1.352 -1.7970 -2.1235 -1.1671
10029TIP3    H254283   1.272   2.706   1.326  2.6373  1.7627  1.1328
10030TIP3   OH254284   1.108   7.268   3.018  0.3902 -0.1553 -0.4649
10030TIP3    H154285   1.094   7.284   2.924  0.7917 -0.4986 -0.5862
10030TIP3    H254286   1.088   7.175   3.029 -0.8256  0.1374  0.0237
10031TIP3   OH254287   2.424   1.229   0.895 -0.5785  0.2747 -0.4512
10031TIP3    H154288   2.387   1.174   0.964  0.8871 -0.0261  0.1250
10031TIP3    H254289   2.472   1.169   0.839 -0.2296  0.7617 -0.6865
10032TIP3   OH254290   3.433   1.153   1.473 -0.2809 -0.3918  0.1998
10032TIP3    H154291   3.463   1.160   1.383 -0.6836 -0.7602  0.0338
10032TIP3    H254292   3.342   1.126   1.466 -0.5288  0.2679  0.7062
10033TIP3   OH254293   4.031   3.035   2.092  0.5283 -0.4123 -0.5049
10033TIP3    H154294   4.113   3.081   2.075 -0.2712  0.6170 -1.7986
10033TIP3    H254295   3.963   3.101   2.078 -0.6228 -1.7614 -1.5526
10034TIP3   OH254296   2.939   0.194   1.173 -0.3529 -0.8859  0.4411
10034TIP3    H154297   3.017   0.190   1.228 -0.9786 -0.2563  1.4046
10034TIP3    H254298   2.878   0.133   1.213 -0.1486 -1.9039 -0.7109
10035TIP3   OH254299   0.214   7.514   1.200  0.1137 -0.5661 -0.3690
10035TIP3    H154300   0.297   7.499   1.247  0.4325  0.0237 -0.7318
10035TIP3    H254301   0.147   7.483   1.260  0.4422  1.1015  0.9335
10036TIP3   OH254302   2.775   6.425   1.835 -0.2265 -0.0888 -0.3241
10036TIP3    H154303   2.716   6.375   1.779  0.9253 -1.3885 -0.4171
10036TIP3    H254304   2.801   6.363   1.903  1.4939  0.2709 -0.6275
10037TIP3   OH254305   0.059   1.636   1.172  0.3961 -0.1327  0.1761
10037TIP3    H154306   0.130   1.576   1.190  0.2528  0.1181  1.6831
10037TIP3    H254307   0.065   1.703   1.240 -1.0749  0.0706  0.1569
10038TIP3   OH254308   0.589   1.558   0.565  0.2067  0.0421 -0.4887
10038TIP3    H154309   0.615   1.471   0.593 -0.8098 -0.3789 -0.8194
10038TIP3    H254310   0.662   1.590   0.512  0.1642 -1.0143 -1.2015
10039TIP3   OH254311   5.884   2.332   1.120 -0.0844  0.2612 -0.2343
10039TIP3    H154312   5.850   2.247   1.149  1.0970  0.2640  1.2798
10039TIP3    H254313   5.885   2.326   1.025  0.4590 -1.6241 -0.1452
10040TIP3   OH254314   3.926   0.473   1.257 -0.1599 -0.2437  0.0215
10040TIP3    H154315   3.845   0.488   1.304 -0.4628  0.5345 -0.7129
10040TIP3    H254316   3.974   0.556   1.265  0.4975 -0.6427  0.3203
10041TIP3   OH254317   7.358   4.109   1.900  0.2528 -0.5901 -0.3912
10041TIP3    H154318   7.307   4.054   1.959 -0.2921  0.3383  0.0217
10041TIP3    H254319   7.322   4.197   1.912  2.2921  0.2102  0.3372
10042TIP3   OH254320   2.359   3.045   2.795 -0.0202 -0.3628 -0.5265
10042TIP3    H154321   2.291   3.093   2.842  0.6989  1.3967 -1.2107
10042TIP3    H254322   2.324   3.035   2.706 -0.0488 -0.8711 -0.4601
10043TIP3   OH254323   2.400   5.333   2.286 -0.1780 -0.4710 -0.7231
10043TIP3    H154324   2.458   5.347   2.211  0.1510 -1.1629 -0.6069
10043TIP3    H254325   2.458   5.299   2.355 -0.5143 -0.0383 -0.2225
10044TIP3   OH254326   1.073   2.260   0.493  0.7305  0.1662 -0.1306
10044TIP3    H154327   0.986   2.241   0.458  1.0180 -0.0647 -0.7338
10044TIP3    H254328   1.059   2.271   0.587  0.1532 -0.5253 -0.1226
10045TIP3   OH254329   0.605   5.937   0.938 -0.4550  0.2558 -0.1048
10045TIP3    H154330   0.620   5.919   1.030 -0.6262  1.7084  0.2295
10045TIP3    H254331   0.638   5.859   0.892 -0.0588 -0.3303  1.1419
10046TIP3   OH254332   2.123   3.814   2.744  0.1130 -0.0947 -0.5249
10046TIP3    H154333   2.057   3.854   2.687 -0.2595  1.8270  1.1120
10046TIP3    H254334   2.089   3.726   2.763  0.7692 -1.2255 -3.9719
10047TIP3   OH254335   3.242   6.975   1.851 -0.4400 -0.3915  0.0899
10047TIP3    H154336   3.287   6.982   1.936  1.9691 -1.5993 -0.9831
10047TIP3    H254337   3.248   6.882   1.829 -3.0653 -0.5015 -0.4043
10048TIP3   OH254338   2.832   1.427   0.819 -0.0259 -0.0071  0.1550
10048TIP3    H154339   2.921   1.427   0.783  0.0436 -0.9915  0.2926
10048TIP3    H254340   2.776   1.415   0.742  0.0799 -1.3225  0.2579
10049TIP3   OH254341   1.853   0.818   1.602 -0.3328  0.5049  0.2948
10049TIP3    H154342   1.783   0.816   1.538 -0.3773  0.1290  0.3558
10049TIP3    H254343   1.819   0.872   1.674 -0.5903  0.2542  0.3621
10050TIP3   OH254344   2.944   5.386   3.029 -0.3922  0.1761 -0.7825
10050TIP3    H154345   3.029   5.393   2.985 -0.7931  1.8092 -1.3617
10050TIP3    H254346   2.882   5.427   2.969 -1.4664 -0.2707 -0.0095
10051TIP3   OH254347   4.225   2.765   1.005 -0.3709 -0.2963  0.0397
10051TIP3    H154348   4.235   2.799   1.094 -0.9317  2.1381 -0.7651
10051TIP3    H254349   4.213   2.670   1.017 -1.9704  0.1540  2.6574
10052TIP3   OH254350   4.549   0.188   1.853 -0.3411 -0.1718  0.2710
10052TIP3    H154351   4.627   0.148   1.814  0.4045 -1.5962  2.9656
10052TIP3    H254352   4.581   0.270   1.890  0.0211 -0.8813  1.6121
10053TIP3   OH254353   0.587   4.132   1.591 -0.2244  0.4210  0.9951
10053TIP3    H154354   0.558   4.095   1.674 -1.0669 -2.2769 -0.3888
10053TIP3    H254355   0.507   4.162   1.548  0.1704  1.5104  0.9695
10054TIP3   OH254356   6.666   1.891   1.793  0.0570  0.6109  0.4314
10054TIP3    H154357   6.631   1.841   1.866 -1.6732 -0.1680 -0.8618
10054TIP3    H254358   6.689   1.976   1.831  1.2279 -0.4670  2.2700
10055TIP3   OH254359   6.303   5.814   1.221 -0.3109 -0.2693  0.5438
10055TIP3    H154360   6.366   5.859   1.165  1.8287 -0.3617  2.7196
10055TIP3    H254361   6.286   5.731   1.176  0.8109 -0.0624 -0.2950
10056TIP3   OH254362   2.656   0.034   0.440  0.2321 -0.3666 -0.7292
10056TIP3    H154363   2.611  -0.042   0.478 -0.3735 -0.6637 -2.0203
10056TIP3    H254364   2.588   0.099   0.427  1.2326  1.9967  3.8637
10057TIP3   OH254365   2.118   4.050   1.539  0.1623  0.5321  0.5690
10057TIP3    H154366   2.050   3.991   1.571  0.1602 -0.6186 -1.4184
10057TIP3    H254367   2.162   4.081   1.619 -2.5458  1.2251  1.9235
10058TIP3   OH254368   7.054   6.593   1.358  0.3350  0.0260 -0.4150
10058TIP3    H154369   7.055   6.504   1.393 -0.2021 -0.8368 -2.4749
10058TIP3    H254370   7.079   6.648   1.433  5.0272 -2.1499  0.0057
10059TIP3   OH254371   6.279   3.416   1.725  0.0052 -0.2111 -0.1456
10059TIP3    H154372   6.185   3.402   1.712  0.2047 -0.5285 -1.4284
10059TIP3    H254373   6.295   3.503   1.689  0.0835  0.1409  0.7330
10060TIP3   OH254374   3.467   6.030   1.908  0.1812 -0.2080  0.1087
10060TIP3    H154375   3.537   5.970   1.932 -0.6032 -0.5060  1.8400
10060TIP3    H254376   3.389   5.975   1.902 -0.7860  0.6697  2.8788
10061TIP3   OH254377   0.446   4.664   2.985 -0.1306 -0.2240 -0.6208
10061TIP3    H154378   0.427   4.758   2.977  0.6825  0.3029  2.3325
10061TIP3    H254379   0.382   4.622   2.928 -1.5750  2.0533 -0.8258
10062TIP3   OH254380   3.662   0.728   0.704  0.2702  0.2080 -0.3710
10062TIP3    H154381   3.593   0.774   0.656 -0.4685 -1.0583 -0.5834
10062TIP3    H254382   3.700   0.668   0.639 -0.9362 -1.7443  0.6147
10063TIP3   OH254383   2.974   0.326   0.907 -0.0591 -0.6314  0.7637
10063TIP3    H154384   2.990   0.337   1.000  0.8820  0.4428  0.5056
10063TIP3    H254385   2.906   0.390   0.886  0.7435  0.1545  0.4728
10064TIP3   OH254386   1.780   0.544   0.715  0.1139 -0.4395 -0.0316
10064TIP3    H154387   1.782   0.456   0.678  0.3839 -0.7279  0.6517
10064TIP3    H254388   1.729   0.595   0.652  0.4497 -0.9433 -0.7291
10065TIP3   OH254389   1.088   1.383   2.346  0.1846 -0.0326 -0.0567
10065TIP3    H154390   1.015   1.388   2.284  0.6677 -0.3250 -0.6635
10065TIP3    H254391   1.084   1.293   2.380 -0.6341  0.4004  1.0417
10066TIP3   OH254392   6.790   3.837   2.142  0.0879  0.1413  0.4917
10066TIP3    H154393   6.751   3.779   2.207  0.5056 -0.6458  0.0675
10066TIP3    H254394   6.878   3.854   2.174  0.7477 -1.2747 -0.4418
10067TIP3   OH254395   4.854   6.873   0.980  0.2975 -0.2302 -0.0276
10067TIP3    H154396   4.849   6.962   0.945  0.1169 -0.5075 -0.7271
10067TIP3    H254397   4.924   6.832   0.930  0.6657 -0.3589  0.5872
10068TIP3   OH254398   2.397   5.542   1.093  0.4522  0.1180 -0.2450
10068TIP3    H154399   2.313   5.545   1.048 -0.0121  0.0379  0.5934
10068TIP3    H254400   2.438   5.627   1.074 -0.4217  0.7174  0.4650
10069TIP3   OH254401   5.166   5.784   2.699  0.1549  0.1834  0.2055
10069TIP3    H154402   5.218   5.827   2.631 -0.4282  0.0622 -0.3254
10069TIP3    H254403   5.221   5.789   2.777  1.4859 -0.9768 -0.5939
10070TIP3   OH254404   7.353   6.946   1.517 -0.3834  0.1016 -0.1033
10070TIP3    H154405   7.394   6.861   1.498 -0.5540 -0.6561  2.4458
10070TIP3    H254406   7.426   7.001   1.545 -0.7135 -0.5556  2.2590
10071TIP3   OH254407   3.702   7.215   1.305 -0.0537 -0.1966  0.4453
10071TIP3    H154408   3.764   7.233   1.234  1.7251  1.3884  2.2938
10071TIP3    H254409   3.630   7.276   1.289  0.1987 -0.0395 -0.1404
10072TIP3   OH254410   6.146   5.273   2.503 -0.4003  0.3705  0.6009
10072TIP3    H154411   6.240   5.260   2.509 -0.6036 -1.6099  0.3140
10072TIP3    H254412   6.130   5.359   2.541  1.4454  0.4680  1.2162
10073TIP3   OH254413   1.422   1.154   1.674  0.5707 -0.2107 -0.3846
10073TIP3    H154414   1.449   1.132   1.584  0.8846  0.0986 -0.3713
10073TIP3    H254415   1.503   1.148   1.725  0.2378 -1.2260  0.0495
10074TIP3   OH254416   0.137   1.615   2.730  0.1310 -0.1994 -0.0126
10074TIP3    H154417   0.136   1.711   2.725 -0.2029 -0.1861  0.3431
10074TIP3    H254418   0.045   1.590   2.736  0.0468 -0.6721 -2.3995
10075TIP3   OH254419   2.457   4.974   1.773 -0.5052  0.4376  0.1053
10075TIP3    H154420   2.471   4.887   1.736 -0.6860  0.8115 -0.8688
10075TIP3    H254421   2.535   5.024   1.746 -0.2340  0.4901  0.9529
10076TIP3   OH254422   4.597   1.112   0.828  0.2017  0.0302  0.2903
10076TIP3    H154423   4.654   1.140   0.900 -1.7333 -0.3623  2.0772
10076TIP3    H254424   4.540   1.046   0.867 -1.5860  0.5053 -1.3529
10077TIP3   OH254425   6.663   4.116   1.643  0.0929  0.3537  0.2281
10077TIP3    H154426   6.720   4.048   1.607  0.4522  0.5064  0.4987
10077TIP3    H254427   6.576   4.094   1.612  0.4086  0.5564 -0.8470
10078TIP3   OH254428   2.771   3.588   2.235 -0.5368  0.2876 -0.2253
10078TIP3    H154429   2.679   3.588   2.258 -0.3143  1.6469  0.7805
10078TIP3    H254430   2.806   3.508   2.275 -0.7046  1.2631  2.0454
10079TIP3   OH254431   5.355   7.215   0.468  0.0558  0.0204  0.1237
10079TIP3    H154432   5.402   7.294   0.493  0.3832 -0.1083 -0.0871
10079TIP3    H254433   5.417   7.165   0.416  0.7134 -1.5204  2.2269
10080TIP3   OH254434   5.618   4.761   2.545 -0.2754  0.0066 -0.1089
10080TIP3    H154435   5.587   4.672   2.559 -0.9350  0.3593  0.8420
10080TIP3    H254436   5.570   4.792   2.468 -0.1173 -0.4194 -0.3805
10081TIP3   OH254437   0.158   3.980   1.066 -0.1085  0.5953 -0.0715
10081TIP3    H154438   0.218   3.947   1.133 -0.0875  0.1343 -0.3091
10081TIP3    H254439   0.154   3.909   1.002  1.5602  1.8744 -1.6772
10082TIP3   OH254440   6.624   6.296   1.728 -0.2199 -0.2243 -0.2468
10082TIP3    H154441   6.536   6.335   1.728 -0.9103 -1.6996 -0.2792
10082TIP3    H254442   6.621   6.232   1.799  1.1898  0.4144  0.4199
10083TIP3   OH254443   3.259   6.824   1.363 -0.0108  0.5636 -0.4758
10083TIP3    H154444   3.209   6.840   1.442 -0.1591 -1.3276 -0.1494
10083TIP3    H254445   3.336   6.880   1.372  0.0328  0.2945  1.0711
10084TIP3   OH254446   0.616   2.108   0.640 -0.9096 -0.4909 -0.1021
10084TIP3    H154447   0.570   2.130   0.721 -0.7665  0.1537 -0.1930
10084TIP3    H254448   0.574   2.028   0.610 -2.0327  0.1203 -0.2182
10085TIP3   OH254449   6.123   0.796   1.167  0.0867  0.0180 -0.4661
10085TIP3    H154450   6.047   0.740   1.156  1.0028 -1.4034  0.0895
10085TIP3    H254451   6.091   0.884   1.151 -1.2717 -0.7074 -2.0305
10086TIP3   OH254452   0.389   3.588   1.688  0.0788  0.1628 -0.2222
10086TIP3    H154453   0.472   3.611   1.729  0.2263 -1.5085  0.4791
10086TIP3    H254454   0.412   3.530   1.615 -0.3398  1.4325 -1.4054
10087TIP3   OH254455   1.129   4.296   2.020  0.5021  0.2697 -0.1220
10087TIP3    H154456   1.137   4.202   2.036 -0.9511  0.2552  0.7350
10087TIP3    H254457   1.035   4.310   2.004  0.1850  1.9206  2.5206
10088TIP3   OH254458   5.642   5.950   1.398 -0.0442 -0.1791 -0.4471
10088TIP3    H154459   5.727   5.989   1.418  0.2408 -0.9066 -0.1971
10088TIP3    H254460   5.635   5.955   1.302  0.3783 -0.3003 -0.4878
10089TIP3   OH254461   5.294   2.467   0.479 -0.1230  0.0159 -0.4295
10089TIP3    H154462   5.248   2.534   0.429  1.3821  1.3139 -0.1590
10089TIP3    H254463   5.322   2.512   0.559 -0.9318 -1.5432  0.7877
10090TIP3   OH254464   5.698   6.434   3.045  0.4214  0.2428  0.1056
10090TIP3    H154465   5.676   6.365   2.981  0.1836  0.6112 -0.2175
10090TIP3    H254466   5.618   6.445   3.096 -0.4793  2.1014 -1.5458
10091TIP3   OH254467   1.655   2.871   0.705  0.2459 -0.3850 -0.5424
10091TIP3    H154468   1.568   2.862   0.666  0.5688 -1.8317 -0.9691
10091TIP3    H254469   1.639   2.916   0.788 -1.2465 -2.6734  0.4963
10092TIP3   OH254470   1.914   7.519   0.363  0.6998  0.0418  0.0038
10092TIP3    H154471   1.981   7.452   0.352  0.6864  0.4310 -3.2673
10092TIP3    H254472   1.962   7.597   0.391  1.1961 -0.3680  0.3130
10093TIP3   OH254473   5.932   5.136   1.943  0.2068  0.0319  0.4122
10093TIP3    H154474   6.017   5.174   1.919 -0.0111  0.6984  0.6526
10093TIP3    H254475   5.927   5.147   2.038  0.2274 -0.8079  0.5122
10094TIP3   OH254476   6.620   4.928   0.716  0.0777 -0.3820  0.4859
10094TIP3    H154477   6.697   4.926   0.772  0.3115  0.2143  0.1962
10094TIP3    H254478   6.554   4.973   0.768  0.3874  0.4448  0.1828
10095TIP3   OH254479   0.329   2.053   2.213 -0.5150 -0.1983  0.6279
10095TIP3    H154480   0.350   1.999   2.289  1.1002  0.7484  0.9117
10095TIP3    H254481   0.234   2.044   2.202 -0.3461 -2.9323  0.7361
10096TIP3   OH254482   1.062   6.948   1.551 -0.2025 -0.2290 -0.1052
10096TIP3    H154483   1.146   6.916   1.582 -0.1120 -1.9489 -1.8995
10096TIP3    H254484   1.074   7.042   1.538  1.3653 -0.4216 -0.1690
10097TIP3   OH254485   0.626   2.359   1.259  0.1402  0.0073  0.2119
10097TIP3    H154486   0.608   2.331   1.169 -1.6457 -0.8680  0.8093
10097TIP3    H254487   0.547   2.405   1.286 -0.3287 -1.8012  2.1294
10098TIP3   OH254488   2.111   0.918   2.417 -0.6453 -0.8280 -0.2603
10098TIP3    H154489   2.153   0.908   2.331 -1.7704  1.0078 -1.0774
10098TIP3    H254490   2.018   0.903   2.399 -0.9849  0.3058  0.4747
10099TIP3   OH254491   6.126   4.217   2.923 -0.0505  0.8190 -0.2528
10099TIP3    H154492   6.076   4.148   2.880  0.1425  0.0796  0.6853
10099TIP3    H254493   6.069   4.250   2.992  0.6198  0.1854  0.6213
10100TIP3   OH254494   2.993   3.501   1.849 -0.4950 -0.5310  0.0463
10100TIP3    H154495   3.032   3.544   1.925  0.4540  0.6966 -1.0874
10100TIP3    H254496   3.063   3.445   1.815 -1.1199 -1.5692  0.4210
10101TIP3   OH254497   5.148   7.307   2.784 -0.5569  0.0642  0.4312
10101TIP3    H154498   5.070   7.308   2.839 -0.7240  0.1217  0.1921
10101TIP3    H254499   5.155   7.217   2.753 -0.3952  0.0030  0.6407
10102TIP3   OH254500   1.039   6.162   3.035 -0.1393  0.0178 -0.0034
10102TIP3    H154501   1.086   6.244   3.021  0.0260  0.0260  0.6098
10102TIP3    H254502   0.968   6.185   3.095 -1.0191  0.0337 -1.0079
10103TIP3   OH254503   2.517   6.206   2.263  0.0247 -0.1870 -0.2803
10103TIP3    H154504   2.528   6.125   2.313 -0.6846 -0.4992 -0.6129
10103TIP3    H254505   2.569   6.271   2.311  0.3640 -0.7662  0.1540
10104TIP3   OH254506   5.603   1.321   0.755  0.4669 -0.5468  0.1113
10104TIP3    H154507   5.652   1.402   0.771  0.5078 -0.7118  0.8693
10104TIP3    H254508   5.516   1.351   0.731  0.4654 -0.2692  0.4421
10105TIP3   OH254509   5.223   4.987   2.170 -0.6649  0.1345  0.0576
10105TIP3    H154510   5.245   5.052   2.103 -1.0332  0.3669  0.1621
10105TIP3    H254511   5.235   4.902   2.126  2.1100  0.1698  0.5750
10106TIP3   OH254512   1.542   6.401   2.458  0.2448 -0.2193 -0.6713
10106TIP3    H154513   1.621   6.347   2.459 -0.4062 -1.1884  0.1037
10106TIP3    H254514   1.471   6.339   2.470 -0.8249  0.3813 -3.2464
10107TIP3   OH254515   0.985   7.179   2.436 -0.8426  0.0989  0.0361
10107TIP3    H154516   0.962   7.192   2.344  0.0534  1.7636  0.0187
10107TIP3    H254517   0.966   7.262   2.478  0.9981  0.1649  0.8539
10108TIP3   OH254518   2.393   2.722   2.316 -0.2686 -0.2735  0.1468
10108TIP3    H154519   2.388   2.638   2.360  1.2690  0.0138  0.9614
10108TIP3    H254520   2.328   2.717   2.246 -0.7480 -1.8287  0.6658
10109TIP3   OH254521   5.036   4.295   2.061 -0.4853  0.0715 -0.1765
10109TIP3    H154522   5.126   4.305   2.092 -0.5242 -1.5132  0.5769
10109TIP3    H254523   4.991   4.373   2.091  0.3800  0.3318  0.4710
10110TIP3   OH254524   5.966   1.837   1.411  0.0113 -0.4141 -0.1681
10110TIP3    H154525   6.008   1.770   1.357  1.9772  0.5731  0.0317
10110TIP3    H254526   5.987   1.920   1.367 -0.4534  0.2256  0.7790
10111TIP3   OH254527   2.211   3.794   3.618  0.1337  0.3038  0.3215
10111TIP3    H154528   2.282   3.730   3.620 -1.4196 -1.6078 -1.3464
10111TIP3    H254529   2.182   3.800   3.709  1.7258  0.3234  0.8567
10112TIP3   OH254530   1.901   4.392   1.365 -0.0234 -0.2405 -0.2047
10112TIP3    H154531   1.882   4.302   1.339  0.2227  0.1172 -1.7242
10112TIP3    H254532   1.996   4.393   1.380 -0.0417 -0.2489 -0.0837
10113TIP3   OH254533   5.770   0.844   1.057 -0.0122  0.3475  0.3029
10113TIP3    H154534   5.772   0.854   0.962  0.1239 -1.3871  0.0809
10113TIP3    H254535   5.694   0.895   1.085 -1.6203 -1.1753 -1.0558
10114TIP3   OH254536   1.563   1.333   1.080 -0.2429  0.0861 -0.0839
10114TIP3    H154537   1.578   1.238   1.077  0.8381  0.2712 -1.4550
10114TIP3    H254538   1.492   1.347   1.017  0.1650  0.2778 -0.5023
10115TIP3   OH254539   0.812   0.513   1.034  0.0326  0.0199  0.2492
10115TIP3    H154540   0.886   0.515   0.973  0.0018 -0.2136  0.2031
10115TIP3    H254541   0.808   0.601   1.070 -0.8177  0.5974 -1.1346
10116TIP3   OH254542   5.138   4.665   2.666  0.1386 -0.6394 -0.1897
10116TIP3    H154543   5.164   4.756   2.679 -0.0371 -0.4714 -0.9888
10116TIP3    H254544   5.063   4.670   2.607 -0.2539 -1.2710  0.2412
10117TIP3   OH254545   1.422   4.065   2.158 -0.2598 -0.3015 -0.4981
10117TIP3    H154546   1.501   4.095   2.113  0.1921 -1.2920 -0.3794
10117TIP3    H254547   1.409   3.976   2.127  0.3963 -1.2461  1.7446
10118TIP3   OH254548   2.507   1.922   1.745 -0.2700 -0.3474  0.0404
10118TIP3    H154549   2.416   1.949   1.759 -0.2367 -0.3429  0.2482
10118TIP3    H254550   2.559   1.996   1.776 -0.2224  0.4275 -1.7639
10119TIP3   OH254551   0.650   4.805   2.218 -0.3427  0.2282  0.6035
10119TIP3    H154552   0.615   4.746   2.284 -2.1154 -0.8870 -1.1921
10119TIP3    H254553   0.572   4.847   2.180  0.8090  3.3087  1.3593
10120TIP3   OH254554   5.230   1.116   0.890  0.4391 -0.2876  0.1922
10120TIP3    H154555   5.308   1.101   0.836 -0.1377  0.0563 -0.7447
10120TIP3    H254556   5.156   1.102   0.831 -0.1892  0.9679  0.6522
10121TIP3   OH254557   3.137   4.734   1.998  0.0467 -0.1825  0.1156
10121TIP3    H154558   3.097   4.820   1.986 -1.2197 -0.7178  0.3244
10121TIP3    H254559   3.155   4.729   2.092  0.4988  0.0145  0.0392
10122TIP3   OH254560   6.549   1.971   3.070 -0.2649 -0.2857  0.1119
10122TIP3    H154561   6.619   1.914   3.039 -0.5964 -0.7135  0.1439
10122TIP3    H254562   6.482   1.967   3.002 -0.5885 -0.4831  0.4415
10123TIP3   OH254563   1.214   0.663   2.513  0.6781  0.2571 -0.5583
10123TIP3    H154564   1.211   0.588   2.453  1.0467  0.7832 -1.2479
10123TIP3    H254565   1.286   0.643   2.573  0.2465 -0.3162 -0.2095
10124TIP3   OH254566   3.622   6.693   3.081  0.3439  0.0612  0.2655
10124TIP3    H154567   3.610   6.747   3.003  0.0518 -1.5812 -0.8765
10124TIP3    H254568   3.714   6.704   3.103  0.7062 -0.2925 -0.9806
10125TIP3   OH254569   3.265   0.691   1.983 -0.1151 -0.4538  0.5097
10125TIP3    H154570   3.300   0.602   1.987  0.7395 -0.0946  1.4605
10125TIP3    H254571   3.204   0.689   1.909  1.1247 -1.3804 -0.5308
10126TIP3   OH254572   4.278   2.731   1.475 -0.7316  0.9101 -0.3273
10126TIP3    H154573   4.293   2.639   1.454 -0.2511  1.0296 -0.5091
10126TIP3    H254574   4.341   2.751   1.544 -0.6337  1.1861 -0.4964
10127TIP3   OH254575   1.057   2.367   2.066 -0.7960  0.5441 -0.6844
10127TIP3    H154576   1.126   2.362   2.132 -1.0489  1.1737 -0.3586
10127TIP3    H254577   1.101   2.353   1.983 -0.4292 -0.0060 -0.4020
10128TIP3   OH254578   3.021   4.783   1.485  0.3664 -0.4474  0.2236
10128TIP3    H154579   3.060   4.695   1.494  0.5713 -0.3411  0.3939
10128TIP3    H254580   3.082   4.830   1.427 -0.2517 -0.7147 -0.6650
10129TIP3   OH254581   5.028   7.325   1.236 -0.0338  0.3933  0.4335
10129TIP3    H154582   5.050   7.417   1.249 -0.8607  0.3950  2.0961
10129TIP3    H254583   5.091   7.276   1.289  0.4843 -0.0315 -0.5388
10130TIP3   OH254584   6.823   7.142   2.168 -0.0864 -0.4191  0.2424
10130TIP3    H154585   6.825   7.204   2.241 -1.4445 -0.7323  0.5567
10130TIP3    H254586   6.797   7.195   2.093 -0.5016 -0.4636  0.3564
10131TIP3   OH254587   0.845   0.317   1.956 -0.2595 -0.2142 -0.3799
10131TIP3    H154588   0.808   0.327   2.044  0.8539 -3.3219  0.5977
10131TIP3    H254589   0.798   0.382   1.903 -2.5300  0.3323  2.0406
10132TIP3   OH254590   1.117   4.446   2.370  0.0540  0.4542 -0.3529
10132TIP3    H154591   1.039   4.439   2.316 -0.4006  0.6272  0.2729
10132TIP3    H254592   1.184   4.398   2.322 -1.2097 -2.4217  0.5385
10133TIP3   OH254593   5.838   6.453   1.420 -0.2865 -0.3832 -0.2228
10133TIP3    H154594   5.853   6.368   1.377  1.0785 -0.2256 -0.0973
10133TIP3    H254595   5.920   6.500   1.409 -0.4778  0.3115  1.1123
10134TIP3   OH254596   6.511   7.577   1.848 -0.1977  0.9199 -0.2355
10134TIP3    H154597   6.429   7.554   1.806  0.5949 -0.7162 -0.9825
10134TIP3    H254598   6.530   7.666   1.818 -1.1241  0.8770 -0.9574
10135TIP3   OH254599   7.620   1.125   1.997  0.6301 -0.5993  0.4266
10135TIP3    H154600   7.528   1.151   2.005  0.3253 -1.6281  0.3245
10135TIP3    H254601   7.626   1.083   1.911  0.9677 -1.4533  0.8561
10136TIP3   OH254602   4.451   4.991   2.284 -0.1419  0.1967  0.7386
10136TIP3    H154603   4.511   5.015   2.213 -1.8623  1.6487 -0.3129
10136TIP3    H254604   4.401   4.918   2.249 -0.7248  0.6650  0.5629
10137TIP3   OH254605   1.943   6.568   2.179  0.1631  0.1774  0.5855
10137TIP3    H154606   1.892   6.489   2.159  0.2084 -0.0776  1.4346
10137TIP3    H254607   1.904   6.602   2.259  0.3514  0.8462  0.3960
10138TIP3   OH254608   3.595   6.134   0.975  0.0856  0.4531 -0.0859
10138TIP3    H154609   3.499   6.128   0.981  0.1449 -1.4584 -0.4973
10138TIP3    H254610   3.612   6.228   0.965 -1.6966  0.9053  0.6083
10139TIP3   OH254611   0.502   2.247   1.892  0.4524  0.2721  0.3276
10139TIP3    H154612   0.410   2.266   1.872  0.9762  1.5549 -0.9543
10139TIP3    H254613   0.510   2.152   1.879 -0.2533  0.4176 -1.4516
10140TIP3   OH254614   4.239   7.016   1.424  0.1655 -0.6309 -0.6327
10140TIP3    H154615   4.189   6.939   1.397 -1.0371 -0.3211  0.6127
10140TIP3    H254616   4.230   7.018   1.519 -0.6510  1.5718 -0.7034
10141TIP3   OH254617   7.629   0.572   1.811 -0.5358 -0.3871 -0.5938
10141TIP3    H154618   7.596   0.590   1.899 -0.9287  0.9674 -1.0041
10141TIP3    H254619   7.614   0.653   1.762  0.2660 -0.9031 -1.7372
10142TIP3   OH254620   6.870   2.557   1.773 -0.0602 -0.0428  0.0416
10142TIP3    H154621   6.849   2.612   1.848 -0.2751 -1.0551  0.7414
10142TIP3    H254622   6.826   2.474   1.791 -1.7519  0.2867 -2.1130
10143TIP3   OH254623   3.725   5.431   1.707 -0.1780  0.2007  0.1004
10143TIP3    H154624   3.751   5.505   1.762  0.4168 -0.6393  0.9877
10143TIP3    H254625   3.710   5.469   1.621  1.5007  1.1369  0.1790
10144TIP3   OH254626   5.799   7.576   2.844 -0.1157 -0.2055  0.4862
10144TIP3    H154627   5.804   7.588   2.939  1.2353  0.5935  0.3297
10144TIP3    H254628   5.712   7.609   2.820  0.9304  3.2383  0.9630
10145TIP3   OH254629   7.051   6.363   1.502 -0.2219  0.4116 -0.1335
10145TIP3    H154630   6.975   6.308   1.520  0.8915 -0.7109  1.4574
10145TIP3    H254631   7.067   6.410   1.585  1.5175 -0.3268  0.0020
10146TIP3   OH254632   0.286   3.843   1.259  0.2101 -0.3603  0.1258
10146TIP3    H154633   0.231   3.808   1.329  0.9577  0.0647  0.9452
10146TIP3    H254634   0.368   3.866   1.302 -0.1711  2.2841 -0.3638
10147TIP3   OH254635   4.333   1.588   0.868 -0.3923  0.1346 -0.4575
10147TIP3    H154636   4.286   1.663   0.831 -0.2476  0.4372 -0.0403
10147TIP3    H254637   4.412   1.627   0.907 -0.9910 -0.0485  0.9757
10148TIP3   OH254638   0.459   2.809   2.943  0.0165 -0.0873  0.1041
10148TIP3    H154639   0.425   2.768   2.863 -1.3748  1.4924 -0.1645
10148TIP3    H254640   0.426   2.754   3.014 -1.0281  0.0022 -0.2966
10149TIP3   OH254641   7.066   4.833   2.955  0.3364 -0.0532  0.7735
10149TIP3    H154642   7.076   4.874   2.869  0.2363 -1.3684  0.0980
10149TIP3    H254643   7.156   4.817   2.984  0.3772 -1.2182  0.0753
10150TIP3   OH254644   0.515   6.646   1.131  0.1690  0.4685 -0.3657
10150TIP3    H154645   0.606   6.655   1.158  0.5471  0.1343 -1.4738
10150TIP3    H254646   0.485   6.566   1.174 -0.1352  1.4542  1.3486
10151TIP3   OH254647   0.538   2.950   0.764  0.1461  0.6248 -0.7302
10151TIP3    H154648   0.604   2.891   0.728  1.6336  1.8810 -0.1948
10151TIP3    H254649   0.498   2.991   0.687 -0.5878 -0.6974 -1.0879
10152TIP3   OH254650   2.583   3.687   2.893 -0.1729 -0.0204 -0.1680
10152TIP3    H154651   2.518   3.748   2.929 -0.1008 -0.3254  0.4831
10152TIP3    H254652   2.641   3.667   2.966  2.1482  2.0980 -1.2692
10153TIP3   OH254653   6.684   7.481   0.989 -0.2827 -0.1180 -0.0005
10153TIP3    H154654   6.738   7.404   1.009  4.5591  2.9721  0.4850
10153TIP3    H254655   6.687   7.488   0.894 -0.1055 -0.1369  0.0026
10154TIP3   OH254656   0.058   3.398   1.913  0.1276  0.3001  0.4563
10154TIP3    H154657   0.120   3.325   1.913  0.7874  0.8383 -0.6520
10154TIP3    H254658  -0.025   3.359   1.886  0.2905 -0.1936  0.6641
10155TIP3   OH254659   6.318   5.017   1.423  0.0201  0.2282  0.4085
10155TIP3    H154660   6.374   5.087   1.457 -2.4835  3.0603 -0.8205
10155TIP3    H254661   6.251   5.006   1.490  0.5491 -1.3277  0.7274
10156TIP3   OH254662   4.369   6.719   0.407 -0.0569  0.0081 -0.0561
10156TIP3    H154663   4.409   6.806   0.416 -1.3858  0.6319 -0.0337
10156TIP3    H254664   4.425   6.662   0.459  1.7976  0.5216 -1.3792
10157TIP3   OH254665   3.436   5.564   1.871 -0.3420  0.2113 -0.5204
10157TIP3    H154666   3.524   5.554   1.907 -0.2123  1.4110 -0.4789
10157TIP3    H254667   3.448   5.557   1.776 -0.6472 -2.6716 -0.4345
10158TIP3   OH254668   5.084   3.332   0.544 -0.6084 -0.2067 -0.1704
10158TIP3    H154669   5.013   3.390   0.515  0.7954  0.8120 -1.8497
10158TIP3    H254670   5.159   3.391   0.557  0.2093 -1.3551  0.5096
10159TIP3   OH254671   3.519   0.482   0.719 -0.2369  0.0533  0.4138
10159TIP3    H154672   3.550   0.569   0.693  1.0947 -0.4278  0.3159
10159TIP3    H254673   3.424   0.486   0.707  0.0771  0.4036 -3.0627
10160TIP3   OH254674   4.608   5.165   1.791 -0.2577  0.1483 -0.4984
10160TIP3    H154675   4.585   5.139   1.879 -1.5266  1.0944 -0.5218
10160TIP3    H254676   4.659   5.092   1.756  1.4278  0.3177  1.4494
10161TIP3   OH254677   4.594   0.390   3.363  0.6801  0.1299  0.0450
10161TIP3    H154678   4.568   0.335   3.288 -2.1105  0.0684  0.9261
10161TIP3    H254679   4.631   0.469   3.324 -1.8816  0.6702 -1.5514
10162TIP3   OH254680   2.212   6.506   1.390  0.2434  0.2799 -0.3794
10162TIP3    H154681   2.171   6.437   1.338  1.8448 -1.8526  1.0023
10162TIP3    H254682   2.145   6.532   1.453 -0.1701 -0.4841 -0.4931
10163TIP3   OH254683   4.937   6.641   2.030 -0.1055 -0.5154 -0.3073
10163TIP3    H154684   4.879   6.617   1.958 -0.6973  2.5953 -1.0228
10163TIP3    H254685   4.974   6.726   2.004  0.1614  0.4270  2.7522
10164TIP3   OH254686   2.623   7.578   1.608 -0.0841  0.1222 -0.3229
10164TIP3    H154687   2.571   7.534   1.541 -0.0014 -0.4707 -0.0029
10164TIP3    H254688   2.573   7.569   1.688  0.3871 -0.2277 -0.0632
10165TIP3   OH254689   4.173   2.092   2.860  0.1518  0.3037  0.3961
10165TIP3    H154690   4.170   2.006   2.817 -1.4126  0.2087  0.6389
10165TIP3    H254691   4.086   2.129   2.844  0.6649  1.6730  0.6656
10166TIP3   OH254692   1.468   3.421   3.275  0.0800  0.3422 -0.4854
10166TIP3    H154693   1.436   3.380   3.355 -0.8258  1.2872 -0.3377
10166TIP3    H254694   1.487   3.511   3.300 -0.0236  0.5961 -1.2795
10167TIP3   OH254695   6.862   4.805   3.190 -0.4251 -0.3992  0.8797
10167TIP3    H154696   6.850   4.713   3.211  0.7095 -0.6271  0.6074
10167TIP3    H254697   6.922   4.805   3.115 -1.5041  0.5092 -0.0272
10168TIP3   OH254698   1.394   2.008   1.869 -0.5169  0.5828  0.0160
10168TIP3    H154699   1.460   1.984   1.935  0.0245  1.7912 -0.0583
10168TIP3    H254700   1.331   1.936   1.871 -0.0694  0.1956  1.2675
10169TIP3   OH254701   1.200   3.130   2.550 -0.0876  0.1748 -0.0675
10169TIP3    H154702   1.225   3.203   2.607 -0.2457  0.3033 -0.1626
10169TIP3    H254703   1.120   3.160   2.507  0.1667  0.1802 -0.5424
10170TIP3   OH254704   3.936   1.816   0.964 -0.0883 -0.0566  0.4310
10170TIP3    H154705   3.918   1.863   1.046  1.5830  0.1990  0.6706
10170TIP3    H254706   4.004   1.753   0.987 -0.2746 -0.6452 -0.5648
10171TIP3   OH254707   3.849   7.264   3.387  0.1257  0.1266  0.2532
10171TIP3    H154708   3.835   7.223   3.301  0.5684 -1.1555  0.7753
10171TIP3    H254709   3.767   7.310   3.404 -0.2738 -0.2659 -0.5070
10172TIP3   OH254710   6.949   2.217   0.511 -0.0297 -0.2225  0.3312
10172TIP3    H154711   7.002   2.194   0.435 -0.3073  1.4489 -0.4073
10172TIP3    H254712   6.930   2.133   0.554  0.2315 -1.1789 -1.3529
10173TIP3   OH254713   0.360   3.581   2.781  0.2496  0.0539 -0.0229
10173TIP3    H154714   0.279   3.597   2.732 -0.3839  1.0998  1.2894
10173TIP3    H254715   0.331   3.565   2.870  1.4313 -0.9092  0.2095
10174TIP3   OH254716   2.805   4.983   0.405 -0.1695 -0.1790 -0.7021
10174TIP3    H154717   2.730   4.928   0.428 -0.2872  0.0538 -0.5277
10174TIP3    H254718   2.868   4.922   0.365  0.4344 -0.8100  1.0797
10175TIP3   OH254719   5.048   3.521   0.789 -0.3055  0.0281  0.2261
10175TIP3    H154720   5.099   3.543   0.867 -0.3166  1.0886 -0.0529
10175TIP3    H254721   5.082   3.578   0.720 -1.4293  0.3248 -0.1165
10176TIP3   OH254722   1.497   4.503   2.401 -0.1992 -0.1604  0.4502
10176TIP3    H154723   1.415   4.549   2.382  0.1076  0.8570  1.4369
10176TIP3    H254724   1.490   4.421   2.353 -1.9746 -0.2706  0.7964
10177TIP3   OH254725   5.103   2.115   1.531  0.1264 -0.2286 -0.4472
10177TIP3    H154726   5.134   2.147   1.446  0.1200 -0.2179 -0.4456
10177TIP3    H254727   5.043   2.184   1.562  2.5051  1.3027  1.0254
10178TIP3   OH254728   4.378   6.251   1.435 -0.1309 -0.1896 -0.6508
10178TIP3    H154729   4.404   6.170   1.392 -2.4104 -0.9582 -0.7517
10178TIP3    H254730   4.383   6.232   1.528  0.3633 -0.0830 -0.6554
10179TIP3   OH254731   1.487   5.975   1.086 -0.5230  0.2242  0.4868
10179TIP3    H154732   1.522   5.888   1.067 -0.3255  0.3652  0.1986
10179TIP3    H254733   1.429   5.994   1.013  0.9125  1.1355 -0.4743
10180TIP3   OH254734   0.704   3.816   1.967 -0.9989 -0.0857  0.4911
10180TIP3    H154735   0.781   3.778   2.009 -1.5379 -1.2302  0.4940
10180TIP3    H254736   0.736   3.851   1.885 -0.5220 -0.8877  0.3216
10181TIP3   OH254737   6.629   0.053   3.165 -0.3828  0.0817  0.1156
10181TIP3    H154738   6.611  -0.028   3.116 -0.3836  0.7153 -0.9635
10181TIP3    H254739   6.544   0.093   3.177 -0.2237  0.7589 -0.8712
10182TIP3   OH254740   6.024   0.354   3.028  0.0311  0.4739 -0.2911
10182TIP3    H154741   5.968   0.320   3.097  0.7263  1.8979  1.0233
10182TIP3    H254742   6.092   0.287   3.017 -0.0900  0.2333  0.3838
10183TIP3   OH254743   2.021   5.882   2.218 -0.6828 -0.1959 -0.5588
10183TIP3    H154744   1.983   5.950   2.273  0.4196 -0.4580  0.5761
10183TIP3    H254745   2.103   5.920   2.186  0.7373 -1.5012  1.3647
10184TIP3   OH254746   0.099   7.364   1.653  0.6888 -0.7838 -0.2313
10184TIP3    H154747   0.051   7.285   1.677  0.7152 -0.6555  0.2569
10184TIP3    H254748   0.087   7.372   1.559  1.1957 -1.7162 -0.3862
10185TIP3   OH254749   6.099   2.804   0.965  0.2051  0.1940  0.1511
10185TIP3    H154750   6.055   2.723   0.938  1.7287 -0.6079 -0.0648
10185TIP3    H254751   6.031   2.855   1.009 -0.7008 -1.3842  0.6538
10186TIP3   OH254752   2.763   5.455   1.494 -0.0881 -0.7953  0.0226
10186TIP3    H154753   2.835   5.438   1.434  0.0229 -2.5303  0.5818
10186TIP3    H254754   2.695   5.495   1.439  0.8772 -0.1456 -0.7326
10187TIP3   OH254755   2.293   2.317   1.245  0.2734  0.0423 -0.3553
10187TIP3    H154756   2.229   2.276   1.302 -0.3171 -1.1880 -1.8513
10187TIP3    H254757   2.314   2.251   1.179  0.7535  1.4718 -1.7191
10188TIP3   OH254758   3.991   4.079   2.666 -0.1711 -0.0611  0.4017
10188TIP3    H154759   3.901   4.070   2.700  0.0051 -0.8840  0.6791
10188TIP3    H254760   4.040   4.118   2.739 -0.1083 -0.4710  0.5820
10189TIP3   OH254761   2.569   7.207   0.724  0.1411 -0.5801 -0.0962
10189TIP3    H154762   2.610   7.211   0.810 -0.2262  0.1591  0.0537
10189TIP3    H254763   2.625   7.149   0.673  2.0910  1.3532 -0.2802
10190TIP3   OH254764   3.006   7.562   2.128  0.1145  0.3117 -0.0175
10190TIP3    H154765   3.064   7.636   2.147 -0.1240  0.8247 -1.1469
10190TIP3    H254766   2.995   7.565   2.033  0.2498 -1.3122 -0.1083
10191TIP3   OH254767   2.714   7.627   3.132 -0.3755 -0.1374  0.5658
10191TIP3    H154768   2.766   7.630   3.212  0.6587 -1.0181 -0.0489
10191TIP3    H254769   2.721   7.716   3.096  1.3999 -0.4262  0.0885
10192TIP3   OH254770   6.020   3.810   2.546  0.3105 -0.0497  0.1095
10192TIP3    H154771   5.993   3.882   2.602  0.6064  0.6141 -0.5905
10192TIP3    H254772   6.110   3.790   2.573  1.2279  1.6521 -1.4733
10193TIP3   OH254773   1.602   2.601   1.667  0.0142  0.6077  0.5552
10193TIP3    H154774   1.563   2.650   1.594  0.1986  0.3942  0.3146
10193TIP3    H254775   1.693   2.589   1.642  0.1216  0.6911  0.9040
10194TIP3   OH254776   7.036   5.550   3.256  0.8665 -0.2692  0.1483
10194TIP3    H154777   6.967   5.484   3.261  2.3733 -1.9153 -0.0989
10194TIP3    H254778   6.989   5.633   3.251 -1.1100 -1.0720  2.9203
10195TIP3   OH254779   7.132   0.206   2.341  0.2243 -0.5639 -0.5411
10195TIP3    H154780   7.157   0.275   2.402  1.2486 -0.8310 -0.6422
10195TIP3    H254781   7.130   0.248   2.256  0.0379 -0.4766 -0.4942
10196TIP3   OH254782   2.798   4.463   2.272 -0.9379 -0.5955  0.3124
10196TIP3    H154783   2.816   4.431   2.360  0.2011  0.0961  0.3567
10196TIP3    H254784   2.821   4.556   2.276  0.5045 -0.8418 -1.0609
10197TIP3   OH254785   2.570   3.962   1.421  0.1779 -0.6159 -0.1110
10197TIP3    H154786   2.661   3.940   1.440 -0.0149 -0.7960  0.6392
10197TIP3    H254787   2.527   3.960   1.506 -0.8627 -2.1511 -0.6292
10198TIP3   OH254788   6.082   2.003   1.044 -0.4588  0.3073  0.3870
10198TIP3    H154789   6.174   1.980   1.027 -0.8987 -0.8290 -0.5159
10198TIP3    H254790   6.079   2.017   1.139  0.3705 -0.9631  0.6342
10199TIP3   OH254791   0.143   5.338   2.851  0.0792 -0.4226 -0.2324
10199TIP3    H154792   0.219   5.389   2.820 -0.0500 -0.7638 -1.1440
10199TIP3    H254793   0.158   5.328   2.945  1.4283 -0.9102 -0.4754
10200TIP3   OH254794   5.158   0.392   0.460  0.2237  0.3271 -0.5438
10200TIP3    H154795   5.134   0.484   0.452  0.7713  0.4293 -1.1069
10200TIP3    H254796   5.252   0.390   0.439  0.5463 -0.1630  0.8232
10201TIP3   OH254797   1.031   7.613   1.634 -0.3975  0.1887  0.2171
10201TIP3    H154798   1.082   7.675   1.687  1.3215 -0.4269 -0.6310
10201TIP3    H254799   1.091   7.540   1.619 -2.5519 -2.0754  1.7531
10202TIP3   OH254800   5.764   0.831   2.149 -0.1630 -0.3678 -0.0649
10202TIP3    H154801   5.836   0.807   2.090 -0.5568  0.2219 -0.8051
10202TIP3    H254802   5.760   0.759   2.212  0.7705 -0.6389 -0.2885
10203TIP3   OH254803   3.255   2.517   0.955 -0.0307  0.2382  0.3089
10203TIP3    H154804   3.188   2.548   1.017  0.2275 -1.1808  1.3583
10203TIP3    H254805   3.308   2.456   1.006  0.0627 -1.1623 -1.3581
10204TIP3   OH254806   0.346   1.127   3.098 -0.1014  0.3383 -0.0721
10204TIP3    H154807   0.425   1.179   3.106  0.3577 -0.3725  0.0994
10204TIP3    H254808   0.333   1.089   3.185  0.0475 -0.5035 -0.4043
10205TIP3   OH254809   0.610   1.906   2.135  0.0653  0.2538 -0.1267
10205TIP3    H154810   0.688   1.948   2.100 -0.0911  0.6149 -0.0567
10205TIP3    H254811   0.554   1.892   2.058  0.3577 -0.3610 -0.2313
10206TIP3   OH254812   5.192   3.828   1.256 -0.1436 -0.0254  0.4410
10206TIP3    H154813   5.165   3.917   1.280 -1.2676  0.0057 -0.7832
10206TIP3    H254814   5.111   3.786   1.226  0.5290 -1.1838  0.1770
10207TIP3   OH254815   0.951   6.119   2.209  0.1497  0.5594  0.0845
10207TIP3    H154816   0.856   6.127   2.204  0.1417  0.3147 -0.1551
10207TIP3    H254817   0.972   6.044   2.154  0.5336  0.9412 -0.2964
10208TIP3   OH254818   5.107   7.401   2.301  0.0977 -0.3226 -0.0467
10208TIP3    H154819   5.098   7.457   2.378 -0.1335 -0.5037  0.0606
10208TIP3    H254820   5.044   7.331   2.316 -0.7798  0.2572 -0.9528
10209TIP3   OH254821   2.419   7.362   2.997 -0.0627  0.4990  0.5763
10209TIP3    H154822   2.357   7.423   3.036 -0.4372  0.4980 -0.0046
10209TIP3    H254823   2.489   7.418   2.962 -1.8133  0.9472 -2.6187
10210TIP3   OH254824   2.891   3.708   1.645  0.1228 -0.1344  0.2376
10210TIP3    H154825   2.802   3.676   1.631 -0.7737  1.9706  0.6513
10210TIP3    H254826   2.917   3.672   1.729 -0.1657 -1.1014 -0.0781
10211TIP3   OH254827   6.780   5.122   1.777 -0.3227  0.5592  0.0217
10211TIP3    H154828   6.703   5.070   1.752 -0.8348  1.0989  0.4513
10211TIP3    H254829   6.794   5.102   1.869 -0.4849  1.1278  0.1748
10212TIP3   OH254830   5.242   4.956   0.536 -0.1559  0.2269  0.0997
10212TIP3    H154831   5.306   4.924   0.600 -0.7384  0.9107  1.0602
10212TIP3    H254832   5.238   5.050   0.553 -0.2043  0.4506 -1.0746
10213TIP3   OH254833   7.119   0.608   0.403  0.0519 -0.5072  0.1457
10213TIP3    H154834   7.077   0.650   0.478 -0.8889  0.5866 -0.9687
10213TIP3    H254835   7.185   0.670   0.374  0.3403 -0.8826 -0.0112
10214TIP3   OH254836   3.204   6.198   2.575  0.1102 -0.0157 -0.4125
10214TIP3    H154837   3.298   6.185   2.584 -0.0873 -1.6683 -0.5100
10214TIP3    H254838   3.165   6.115   2.603 -1.3573  0.8389  0.1898
10215TIP3   OH254839   2.357   2.084   1.502  0.0606  0.6813  0.1575
10215TIP3    H154840   2.408   2.004   1.515 -0.2259  0.6486  1.1609
10215TIP3    H254841   2.292   2.060   1.435  0.6315  0.3931 -0.3042
10216TIP3   OH254842   0.992   7.263   1.728 -0.9760  0.0850 -0.2678
10216TIP3    H154843   0.930   7.333   1.748 -0.5724  0.4131 -0.1646
10216TIP3    H254844   1.046   7.255   1.806 -0.0437  0.6974 -0.8203
10217TIP3   OH254845   1.163   3.704   2.036  0.2468 -0.5671  0.2660
10217TIP3    H154846   1.190   3.666   1.953 -0.6421 -2.0585  0.6221
10217TIP3    H254847   1.115   3.634   2.081  0.3627  0.3166  1.8699
10218TIP3   OH254848   4.458   0.850   0.906  0.4219  0.1262  0.0824
10218TIP3    H154849   4.479   0.915   0.973  2.0442 -0.4333  0.1674
10218TIP3    H254850   4.477   0.766   0.947  0.4869 -0.2761 -0.7511
10219TIP3   OH254851   2.217   4.283   1.393 -0.8337  0.1485  0.0581
10219TIP3    H154852   2.223   4.377   1.408 -0.0279  0.3293 -1.3306
10219TIP3    H254853   2.194   4.247   1.479  0.1895  1.4649  0.9194
10220TIP3   OH254854   2.208   5.870   0.955  0.0257 -0.2124  0.0585
10220TIP3    H154855   2.185   5.916   1.036 -0.8649  0.2189 -0.4107
10220TIP3    H254856   2.197   5.777   0.976  1.2029 -0.1949  0.8329
10221TIP3   OH254857   4.737   5.830   1.516  0.3716 -0.3792  0.4666
10221TIP3    H154858   4.782   5.822   1.432  2.1381  0.7642  1.2280
10221TIP3    H254859   4.805   5.809   1.581 -0.9022 -1.0670  1.6362
10222TIP3   OH254860   6.640   6.811   3.086  0.0036  0.2197 -0.1728
10222TIP3    H154861   6.651   6.739   3.025  2.4859 -0.2333  0.6583
10222TIP3    H254862   6.549   6.807   3.113  0.3472 -3.5854  0.9681
10223TIP3   OH254863   7.418   4.267   1.434  0.0493 -0.0908  0.4061
10223TIP3    H154864   7.496   4.287   1.486  0.2701  0.8031 -0.2483
10223TIP3    H254865   7.450   4.212   1.362 -0.2297 -1.1899  1.0886
10224TIP3   OH254866   3.577   3.660   0.400  0.7989  0.1589  0.3859
10224TIP3    H154867   3.555   3.579   0.355 -1.5408  1.0699 -0.2683
10224TIP3    H254868   3.507   3.672   0.464  1.1077  1.6465  0.4792
10225TIP3   OH254869   7.345   5.093   2.912 -0.0479  0.0131 -0.4605
10225TIP3    H154870   7.349   5.020   2.974 -0.9797 -1.2418 -1.8154
10225TIP3    H254871   7.281   5.065   2.847  0.7286  1.3851 -1.8629
10226TIP3   OH254872   7.106   5.619   2.405  0.4963  0.6360 -0.6039
10226TIP3    H154873   7.047   5.564   2.457  1.4284 -0.6162 -0.8195
10226TIP3    H254874   7.107   5.703   2.451 -0.4189  0.2634  0.1348
10227TIP3   OH254875   0.608   0.576   0.557  0.0046  0.1014 -0.1188
10227TIP3    H154876   0.613   0.577   0.653 -2.1203 -1.8076  0.0980
10227TIP3    H254877   0.638   0.488   0.532  2.3926  1.1871 -1.4417
10228TIP3   OH254878   3.169   7.401   3.177 -0.1087 -0.0544 -0.0694
10228TIP3    H154879   3.159   7.493   3.204  0.4286 -0.1495  0.4669
10228TIP3    H254880   3.163   7.351   3.258 -0.8831 -0.5450 -0.4167
10229TIP3   OH254881   6.279   5.410   0.549 -0.2127  0.5596  0.1841
10229TIP3    H154882   6.276   5.505   0.537 -0.4070  0.4411 -0.8190
10229TIP3    H254883   6.197   5.379   0.511  0.0737 -0.0552  0.0529
10230TIP3   OH254884   4.941   6.040   0.476  0.2574 -0.8548  0.0779
10230TIP3    H154885   4.901   6.125   0.457  0.5115 -0.8702 -0.5681
10230TIP3    H254886   4.867   5.981   0.491  0.0315 -0.8126 -0.8027
10231TIP3   OH254887   3.613   2.090   0.414  0.2062 -0.2256 -0.4090
10231TIP3    H154888   3.525   2.087   0.375 -1.0216 -0.6999  2.2081
10231TIP3    H254889   3.620   2.177   0.452  0.5413 -0.4589  0.0760
10232TIP3   OH254890   6.031   4.665   0.757  0.0022 -0.2351  0.0018
10232TIP3    H154891   6.029   4.759   0.740 -1.1251 -0.7156 -3.2684
10232TIP3    H254892   5.939   4.637   0.752  0.4207 -1.6759 -0.2416
10233TIP3   OH254893   7.396   0.818   1.611  0.4586  0.3257 -0.0136
10233TIP3    H154894   7.479   0.832   1.656  0.6564  2.2735 -0.9343
10233TIP3    H254895   7.335   0.793   1.682  1.7807 -1.2099  0.6566
10234TIP3   OH254896   5.721   0.826   2.562  0.5115 -0.1898  0.0836
10234TIP3    H154897   5.722   0.867   2.648  0.0244 -0.3446  0.1598
10234TIP3    H254898   5.812   0.800   2.547  0.6235 -0.0274  0.4826
10235TIP3   OH254899   0.084   6.678   2.354 -0.5864  0.2631 -0.2601
10235TIP3    H154900   0.174   6.687   2.322 -0.8030  0.5326 -0.8211
10235TIP3    H254901   0.092   6.637   2.440  0.1901  1.6990  0.3920
10236TIP3   OH254902   6.427   0.404   2.758  0.3137  0.1059 -0.3213
10236TIP3    H154903   6.374   0.379   2.682 -0.8192 -0.3337  0.6005
10236TIP3    H254904   6.388   0.485   2.790  0.7583  0.2623 -0.1581
10237TIP3   OH254905   1.986   4.362   0.923 -0.2704 -0.4221  0.2339
10237TIP3    H154906   1.890   4.364   0.917 -0.2307  0.3132 -0.2013
10237TIP3    H254907   2.009   4.272   0.900 -0.8418 -0.5486  0.1262
10238TIP3   OH254908   2.381   7.241   1.655  0.4593 -0.3434 -0.4248
10238TIP3    H154909   2.435   7.287   1.719 -0.5191  2.4385 -1.3991
10238TIP3    H254910   2.437   7.229   1.579  1.2631 -2.5589  0.4503
10239TIP3   OH254911   4.152   3.543   2.481 -0.0670 -0.2490 -0.1003
10239TIP3    H154912   4.216   3.493   2.532  0.2602 -0.7185 -0.9637
10239TIP3    H254913   4.135   3.621   2.534  0.7469 -0.4244  0.4287
10240TIP3   OH254914   1.964   4.176   3.039  0.2741  0.8213  0.3468
10240TIP3    H154915   1.974   4.124   3.119  1.8504  0.9850  0.2842
10240TIP3    H254916   2.042   4.156   2.988 -0.3647  1.2875 -0.8308
10241TIP3   OH254917   6.242   2.907   0.740  0.9276 -0.1953 -0.4084
10241TIP3    H154918   6.272   2.984   0.788  2.1592 -0.3073 -0.9716
10241TIP3    H254919   6.194   2.855   0.805 -0.4011  1.2707 -0.1400
10242TIP3   OH254920   5.185   3.730   0.662  0.3689  0.1707 -0.6150
10242TIP3    H154921   5.232   3.773   0.733  0.7430 -0.9454 -0.1630
10242TIP3    H254922   5.130   3.799   0.625  1.7153  1.2932 -0.6118
10243TIP3   OH254923   6.905   0.476   2.915 -0.4555  0.1576 -0.3933
10243TIP3    H154924   6.982   0.483   2.971 -0.4690  0.1721 -0.3763
10243TIP3    H254925   6.832   0.502   2.971 -0.6141 -0.8893 -0.0924
10244TIP3   OH254926   6.479   2.791   0.654  0.0458 -0.3115  0.7528
10244TIP3    H154927   6.496   2.819   0.744  0.3559  0.6071  0.4148
10244TIP3    H254928   6.395   2.831   0.632  0.4262  0.2654  0.3141
10245TIP3   OH254929   3.508   4.891   3.126  0.3862 -0.6071 -0.3498
10245TIP3    H154930   3.585   4.912   3.178  0.9002  0.1246 -1.3798
10245TIP3    H254931   3.437   4.885   3.190  1.4230 -2.1551  0.7293
10246TIP3   OH254932   4.885   3.363   1.998  0.3875 -0.2467 -0.2670
10246TIP3    H154933   4.826   3.340   2.069 -1.2359 -0.6028 -1.6627
10246TIP3    H254934   4.962   3.307   2.011  0.1184 -0.3108  1.1669
10247TIP3   OH254935   1.390   1.699   1.576 -0.0205 -0.5584  0.4407
10247TIP3    H154936   1.468   1.737   1.616  0.6629 -0.7457 -0.6525
10247TIP3    H254937   1.372   1.620   1.628 -0.8283  0.6485  2.0609
10248TIP3   OH254938   0.673   3.201   2.411  0.1507 -0.3908 -0.2861
10248TIP3    H154939   0.726   3.209   2.491  0.4745 -1.4678 -0.3803
10248TIP3    H254940   0.677   3.108   2.389 -0.2605 -0.1658 -1.3456
10249TIP3   OH254941   6.464   5.207   1.093 -0.2764  0.7352 -0.2608
10249TIP3    H154942   6.426   5.181   1.010 -1.4171  1.5534 -0.0304
10249TIP3    H254943   6.402   5.271   1.129  1.2568  2.0488  0.2119
10250TIP3   OH254944   6.905   0.935   1.008 -0.0180  0.0062  0.0548
10250TIP3    H154945   6.906   0.952   1.102  0.0912  0.5957 -0.0488
10250TIP3    H254946   6.888   1.020   0.969 -0.9262 -0.3900 -0.4258
10251TIP3   OH254947   1.686   6.533   1.008 -0.2832 -0.0135 -0.2125
10251TIP3    H154948   1.727   6.526   0.922 -1.3911  2.9071 -1.0773
10251TIP3    H254949   1.601   6.489   0.997 -0.6454  0.8162 -0.7828
10252TIP3   OH254950   2.851   1.501   1.746  0.1374  0.0255  0.3040
10252TIP3    H154951   2.783   1.436   1.728  0.3138 -0.4592  1.3281
10252TIP3    H254952   2.857   1.552   1.666 -0.6040 -0.6821 -0.2162
10253TIP3   OH254953   2.677   0.102   1.808 -0.2092 -0.2677 -0.8402
10253TIP3    H154954   2.675   0.059   1.723  0.2722  0.2181 -1.1005
10253TIP3    H254955   2.642   0.189   1.792  1.5327  0.4583 -0.9251
10254TIP3   OH254956   0.234   3.004   2.976  0.0529  0.4065 -0.4306
10254TIP3    H154957   0.327   3.015   2.999  0.0832  0.6936 -0.6941
10254TIP3    H254958   0.195   3.090   2.995 -0.2452  0.1612  0.0872
10255TIP3   OH254959   5.762   6.867   1.109 -1.5014 -0.0608  0.1946
10255TIP3    H154960   5.835   6.896   1.164 -1.7823 -1.1412  1.1937
10255TIP3    H254961   5.782   6.902   1.022 -0.1626  0.2594  0.5998
10256TIP3   OH254962   1.286   4.920   3.143 -0.0216 -0.1521  0.1222
10256TIP3    H154963   1.325   4.974   3.074  0.6918  0.1154  0.7190
10256TIP3    H254964   1.195   4.951   3.149  0.3849  1.0353  0.4821
10257TIP3   OH254965   1.218   1.032   1.815  0.4478  0.9441 -0.1584
10257TIP3    H154966   1.296   1.062   1.767  0.7528 -1.1600 -1.0990
10257TIP3    H254967   1.161   0.995   1.747  0.1889 -0.6736  0.8793
10258TIP3   OH254968   1.629   5.597   2.739  0.3585  0.4821  0.1453
10258TIP3    H154969   1.541   5.621   2.768 -0.6573 -0.4861 -1.9245
10258TIP3    H254970   1.655   5.526   2.798 -1.3740 -1.0056 -0.7781
10259TIP3   OH254971   0.946   4.797   2.224 -0.1830 -0.0851 -0.4382
10259TIP3    H154972   1.023   4.854   2.224 -0.3299  0.3286  2.8505
10259TIP3    H254973   0.872   4.857   2.223 -0.3513 -0.2070  1.3455
10260TIP3   OH254974   1.361   5.618   2.796  0.0488  0.3830  0.7762
10260TIP3    H154975   1.360   5.526   2.770  0.5072  0.3085  1.0066
10260TIP3    H254976   1.273   5.634   2.829 -0.5552  0.4954 -0.8423
10261TIP3   OH254977   2.515   6.517   2.075 -0.1331  0.1874 -0.2988
10261TIP3    H154978   2.592   6.461   2.079 -1.6896 -1.9966  1.8486
10261TIP3    H254979   2.539   6.596   2.123  0.5347 -0.8301  1.0902
10262TIP3   OH254980   5.457   0.734   2.109 -0.4756 -0.0207 -0.3585
10262TIP3    H154981   5.507   0.730   2.027 -0.0095 -0.9062 -0.0440
10262TIP3    H254982   5.521   0.765   2.173 -0.9337  1.0145 -0.3858
10263TIP3   OH254983   0.620   3.554   1.529 -0.1202 -0.3884  0.0798
10263TIP3    H154984   0.684   3.488   1.504  0.3391  0.5284 -1.2484
10263TIP3    H254985   0.602   3.603   1.448  0.1396  1.6102  1.1527
10264TIP3   OH254986   1.576   4.742   1.214  0.0411 -0.1619  0.0968
10264TIP3    H154987   1.486   4.712   1.226  0.2087 -0.7378 -0.0187
10264TIP3    H254988   1.627   4.661   1.205  0.3471  0.1574 -1.4039
10265TIP3   OH254989   4.716   0.858   1.587 -0.0182  0.1483  0.4812
10265TIP3    H154990   4.704   0.830   1.677 -1.3641 -1.5290 -0.1623
10265TIP3    H254991   4.762   0.785   1.544  0.7613  0.9909 -0.1675
10266TIP3   OH254992   2.187   6.684   2.301 -0.2271 -1.0403  0.0499
10266TIP3    H154993   2.107   6.638   2.275 -0.2520 -0.0101 -1.8523
10266TIP3    H254994   2.167   6.718   2.388 -0.6697 -3.4431  0.9627
10267TIP3   OH254995   1.668   7.218   2.072  0.6774  0.0211  0.1513
10267TIP3    H154996   1.709   7.241   1.988  0.6370 -0.3223  0.0317
10267TIP3    H254997   1.717   7.142   2.102 -0.5463 -1.0888 -0.5328
10268TIP3   OH254998   3.127   2.058   1.697  0.0783  0.1124 -0.3073
10268TIP3    H154999   3.145   2.050   1.604  0.2179 -0.6305 -0.2267
10268TIP3    H255000   3.212   2.043   1.740  0.0459  0.5956 -0.0633
10269TIP3   OH255001   6.337   3.576   0.532  0.1931  0.1135  0.2366
10269TIP3    H155002   6.401   3.540   0.593 -1.0947  1.8505  2.7595
10269TIP3    H255003   6.385   3.586   0.450  1.9887 -2.3195  0.8819
10270TIP3   OH255004   1.822   2.931   2.166 -0.1273  0.0019  0.8726
10270TIP3    H155005   1.896   2.950   2.224 -1.1473 -1.3378  2.7289
10270TIP3    H255006   1.826   2.836   2.152 -0.5973  0.1353 -0.3044
10271TIP3   OH255007   3.208   6.469   0.908  0.1956 -0.0891 -0.1311
10271TIP3    H155008   3.220   6.539   0.972  1.0209 -0.0153 -0.3520
10271TIP3    H255009   3.116   6.475   0.882 -0.1748 -0.1748  1.0998
10272TIP3   OH255010   1.751   5.088   2.882  0.0819 -0.1549 -0.1951
10272TIP3    H155011   1.747   5.076   2.977 -1.2556 -2.0349 -0.4435
10272TIP3    H255012   1.725   5.003   2.846  0.2073  0.6325 -2.2509
10273TIP3   OH255013   6.917   4.575   2.214  0.4351 -0.5092  0.4359
10273TIP3    H155014   6.941   4.667   2.227  0.1958 -0.3487 -0.2359
10273TIP3    H255015   6.973   4.527   2.275  0.2661  0.1136  1.0976
10274TIP3   OH255016   6.091   0.342   1.087  0.4508  0.0835 -0.5806
10274TIP3    H155017   5.998   0.329   1.107  1.0337 -0.9626  1.7802
10274TIP3    H255018   6.120   0.258   1.051  0.4882  0.4160 -1.3401
10275TIP3   OH255019   0.900   2.250   0.775  0.0505 -0.5394  0.0943
10275TIP3    H155020   0.820   2.203   0.752  1.5071 -2.7148 -0.8123
10275TIP3    H255021   0.923   2.217   0.862  0.0320 -0.0008  0.3090
10276TIP3   OH255022   4.325   3.215   3.207  0.3052  0.2136  0.2400
10276TIP3    H155023   4.406   3.265   3.210  1.1028 -0.9716 -0.8264
10276TIP3    H255024   4.350   3.130   3.172 -1.0959 -0.7909  1.5369
10277TIP3   OH255025   7.033   5.745   0.493 -0.2620 -0.1160  0.4527
10277TIP3    H155026   7.089   5.670   0.511  1.3611  1.2851  1.6346
10277TIP3    H255027   7.077   5.791   0.421  1.1521  1.8283  2.3827
10278TIP3   OH255028   1.439   2.382   1.402  0.2112 -0.0498  0.4599
10278TIP3    H155029   1.350   2.349   1.392 -0.7063  2.1048  1.0660
10278TIP3    H255030   1.459   2.372   1.495 -0.5884  2.1368  0.9344
10279TIP3   OH255031   5.206   0.178   1.231  0.1304  0.1746 -0.6767
10279TIP3    H155032   5.164   0.127   1.300  2.1155  0.4319  0.7809
10279TIP3    H255033   5.157   0.155   1.152 -1.9867 -0.3964  0.7174
10280TIP3   OH255034   1.657   2.379   2.130  1.0960 -0.1377  0.3424
10280TIP3    H155035   1.642   2.469   2.100  1.5841 -0.1872 -0.0527
10280TIP3    H255036   1.584   2.329   2.094 -0.6012  0.5162  2.5968
10281TIP3   OH255037   3.737   3.546   1.303 -0.6476 -0.2829  0.3463
10281TIP3    H155038   3.669   3.561   1.369 -0.9302  0.2430 -0.0596
10281TIP3    H255039   3.767   3.456   1.320 -1.4884 -0.5466  0.4790
10282TIP3   OH255040   2.667   0.897   1.522  0.0100  0.3213 -0.0316
10282TIP3    H155041   2.684   0.813   1.480 -2.5112  0.0528 -0.6346
10282TIP3    H255042   2.726   0.958   1.476  0.8422 -0.8274 -0.5632
10283TIP3   OH255043   1.380   3.810   3.201  0.2839 -0.1297  0.4023
10283TIP3    H155044   1.356   3.725   3.163  1.4328  0.1859 -1.1020
10283TIP3    H255045   1.456   3.790   3.256  0.4738 -0.0984  0.1518
10284TIP3   OH255046   5.550   6.740   0.824  0.5370  0.5032 -0.5471
10284TIP3    H155047   5.630   6.719   0.871 -1.7089 -1.1280  2.9991
10284TIP3    H255048   5.526   6.828   0.855 -1.0305 -0.6377  1.7886
10285TIP3   OH255049   0.061   1.020   2.220 -0.4575 -0.3109  0.6598
10285TIP3    H155050   0.012   1.063   2.150 -0.4224 -0.7489  0.3712
10285TIP3    H255051   0.029   1.062   2.300 -0.9483 -0.2501  0.4327
10286TIP3   OH255052   3.235   3.572   2.428  0.2025  0.7561 -0.3427
10286TIP3    H155053   3.151   3.603   2.396 -0.5940 -1.2080 -0.2382
10286TIP3    H255054   3.223   3.479   2.445  1.6805  0.9148  2.0752
10287TIP3   OH255055   5.613   1.898   2.123 -0.3140  0.3629  0.1320
10287TIP3    H155056   5.632   1.849   2.043  0.9138 -0.1527  0.7106
10287TIP3    H255057   5.697   1.903   2.169 -0.8213  1.3818  0.9914
10288TIP3   OH255058   5.034   0.527   1.546 -0.1149  0.3750  0.1683
10288TIP3    H155059   5.103   0.473   1.509 -0.2845 -0.0963  0.5322
10288TIP3    H255060   5.024   0.496   1.636  0.7256  1.9149  0.8449
10289TIP3   OH255061   1.550   5.342   2.096  0.2729  0.0451  0.1052
10289TIP3    H155062   1.547   5.246   2.102  0.7397 -0.0571 -1.0486
10289TIP3    H255063   1.542   5.372   2.187 -1.2552 -1.0343  0.3741
10290TIP3   OH255064   6.671   0.737   1.446 -0.5383 -0.7501 -0.4567
10290TIP3    H155065   6.605   0.667   1.448  0.2857 -1.5390 -0.0748
10290TIP3    H255066   6.624   0.813   1.412 -1.4619 -1.4843 -0.8818
10291TIP3   OH255067   2.382   7.279   0.497 -0.0270 -0.6754 -0.2152
10291TIP3    H155068   2.426   7.355   0.460 -0.2050 -0.8541 -0.8192
10291TIP3    H255069   2.440   7.249   0.567 -0.6625  0.8748  1.0374
10292TIP3   OH255070   4.544   3.941   2.846 -0.1949  0.3572  0.1972
10292TIP3    H155071   4.453   3.935   2.877 -0.4327  0.1556 -0.5225
10292TIP3    H255072   4.596   3.915   2.922 -0.8085 -1.0702  0.1639
10293TIP3   OH255073   4.768   1.745   2.375 -0.0911  0.7279 -0.1068
10293TIP3    H155074   4.774   1.769   2.468  0.8066 -1.0198  0.3393
10293TIP3    H255075   4.691   1.690   2.369  0.3322  0.1350 -0.2104
10294TIP3   OH255076   5.927   6.250   2.135  0.7685 -0.9000  0.1801
10294TIP3    H155077   5.971   6.332   2.114  0.9156 -1.1780 -0.6225
10294TIP3    H255078   5.930   6.199   2.054 -0.9299 -0.9690  0.1241
10295TIP3   OH255079   6.676   6.851   2.785 -0.3326 -0.1470 -0.3127
10295TIP3    H155080   6.624   6.776   2.756 -0.5204  0.2385 -1.0005
10295TIP3    H255081   6.722   6.879   2.706  1.2009 -0.6883  0.3461
10296TIP3   OH255082   3.140   3.036   2.530 -0.3455 -0.2257  0.1255
10296TIP3    H155083   3.087   2.986   2.592  0.2146 -0.3458  0.5227
10296TIP3    H255084   3.225   3.044   2.573  0.1250 -0.5084 -0.7299
10297TIP3   OH255085   2.327   5.043   1.352  0.1464 -0.6527  0.6689
10297TIP3    H155086   2.272   5.055   1.430 -0.8614 -2.6557  0.3196
10297TIP3    H255087   2.340   5.132   1.318  0.1885  0.2300  2.7938
10298TIP3   OH255088   5.141   0.650   2.574 -0.0922  0.9027 -0.3473
10298TIP3    H155089   5.095   0.623   2.653 -1.3657 -0.9018 -1.6268
10298TIP3    H255090   5.093   0.727   2.543 -0.2339  0.9848  0.0719
10299TIP3   OH255091   2.109   2.382   0.982  0.4686  0.3315 -0.7331
10299TIP3    H155092   2.082   2.426   1.063  1.5442 -0.6349  0.1785
10299TIP3    H255093   2.097   2.289   0.999 -0.1197  0.1503 -2.0171
10300TIP3   OH255094   2.784   2.835   0.626  0.3188  0.0817 -0.1043
10300TIP3    H155095   2.752   2.902   0.687 -0.8224  0.2375 -0.8452
10300TIP3    H255096   2.858   2.876   0.582  1.8031 -0.3706  1.8177
10301TIP3   OH255097   7.655   7.042   1.325 -0.0827  0.0283 -0.0919
10301TIP3    H155098   7.659   6.948   1.339 -0.6871  0.2451  1.9967
10301TIP3    H255099   7.634   7.078   1.412 -2.4178  1.8883 -1.2952
10302TIP3   OH255100   5.421   1.466   2.180 -0.3649 -0.2210 -0.2054
10302TIP3    H155101   5.456   1.471   2.091 -0.5555  0.2595 -0.2567
10302TIP3    H255102   5.345   1.525   2.179 -1.7489 -1.8928 -0.3715
10303TIP3   OH255103   4.336   0.592   2.752  1.2013  0.4474  0.3095
10303TIP3    H155104   4.355   0.511   2.799  1.5214  0.4424  0.1730
10303TIP3    H255105   4.413   0.647   2.767  0.4377  1.2475  1.5183
10304TIP3   OH255106   2.920   0.094   0.427 -0.1569 -0.6699  0.2209
10304TIP3    H155107   2.940   0.053   0.511  1.0778 -1.7571 -0.5479
10304TIP3    H255108   2.829   0.069   0.410  0.0312 -1.6761  0.5832
10305TIP3   OH255109   1.224   4.018   3.062  0.5068  0.2758 -0.3562
10305TIP3    H155110   1.243   4.110   3.077 -0.9068  0.2440  2.1007
10305TIP3    H255111   1.302   3.972   3.094  0.7834  0.5595 -0.6162
10306TIP3   OH255112   6.316   1.953   0.916 -0.3471 -0.1962  0.0969
10306TIP3    H155113   6.398   1.905   0.911  0.1119  0.5932 -0.1449
10306TIP3    H255114   6.313   2.003   0.835 -0.7437  0.2857  0.4019
10307TIP3   OH255115   4.951   0.325   1.275 -0.0367  0.6360  0.0007
10307TIP3    H155116   5.040   0.360   1.283 -0.5926  1.8540  1.1688
10307TIP3    H255117   4.953   0.242   1.323  0.5823  0.3888 -0.4283
10308TIP3   OH255118   6.090   0.002   2.721  0.2844  0.0770  0.4053
10308TIP3    H155119   6.009  -0.047   2.707 -0.5109  1.3636  0.2976
10308TIP3    H255120   6.125   0.017   2.633  2.0249 -2.5839  0.5191
10309TIP3   OH255121   2.593   1.770   2.155 -1.0128  0.3265 -0.0157
10309TIP3    H155122   2.644   1.850   2.150 -1.0611  0.3747  0.2242
10309TIP3    H255123   2.647   1.703   2.113 -1.2328  0.6111 -0.7551
10310TIP3   OH255124   6.600   1.073   1.990  0.7488 -0.3581 -0.4119
10310TIP3    H155125   6.549   1.095   2.068 -1.3623  2.7942 -2.4425
10310TIP3    H255126   6.685   1.114   2.005  1.1178 -1.5479  1.0117
10311TIP3   OH255127   4.609   5.080   2.065 -0.6053 -0.1476 -0.1704
10311TIP3    H155128   4.642   4.991   2.062 -0.2149 -0.0099 -0.0044
10311TIP3    H255129   4.686   5.135   2.052 -0.9118  0.1580 -0.7600
10312TIP3   OH255130   5.614   6.292   0.678 -0.1660  0.4427  0.0896
10312TIP3    H155131   5.601   6.208   0.722  0.1153  0.9998  1.2819
10312TIP3    H255132   5.531   6.308   0.633  0.3084 -1.1860 -1.4442
10313TIP3   OH255133   0.349   3.020   1.345 -0.2446  0.3293  0.6157
10313TIP3    H155134   0.419   2.969   1.384 -0.1242  1.0256  1.3247
10313TIP3    H255135   0.342   3.099   1.399  1.5899  2.5711 -2.1048
10314TIP3   OH255136   2.506   4.676   1.225 -0.1563  0.3321  0.2852
10314TIP3    H155137   2.416   4.705   1.235 -0.7227 -1.8491  2.3172
10314TIP3    H255138   2.511   4.594   1.274  2.9410  0.3696  0.2345
10315TIP3   OH255139   5.561   7.475   2.562 -0.2436  0.7015 -0.1576
10315TIP3    H155140   5.595   7.500   2.476  1.2034 -1.8829 -0.4232
10315TIP3    H255141   5.466   7.473   2.551 -0.0750  0.3776 -1.7090
10316TIP3   OH255142   1.566   0.300   1.737  0.1480  0.0192 -0.3715
10316TIP3    H155143   1.549   0.240   1.665 -0.1422 -0.8923  0.4374
10316TIP3    H255144   1.504   0.372   1.723 -0.0773 -0.2679 -0.8793
10317TIP3   OH255145   5.684   5.635   1.268 -0.6027 -0.0426 -0.1551
10317TIP3    H155146   5.660   5.722   1.236 -2.1869 -0.9810 -1.6887
10317TIP3    H255147   5.701   5.584   1.189  1.3550 -0.8891  0.7420
10318TIP3   OH255148   7.548   2.936   2.289  0.4313  0.2437 -0.0674
10318TIP3    H155149   7.532   2.981   2.206 -2.7210  1.8981  1.2971
10318TIP3    H255150   7.522   2.845   2.272 -1.0458  0.7493 -0.7040
10319TIP3   OH255151   3.958   5.342   2.380 -0.3596  0.5432 -0.7035
10319TIP3    H155152   3.877   5.295   2.399  0.8660 -1.6881 -0.6158
10319TIP3    H255153   3.963   5.409   2.448 -1.3049 -0.3892  0.3441
10320TIP3   OH255154   1.452   3.857   2.478 -0.0595  0.1694 -0.2846
10320TIP3    H155155   1.398   3.935   2.489  0.6743  0.8978 -1.5063
10320TIP3    H255156   1.531   3.889   2.433  1.3933 -0.8525  1.4058
10321TIP3   OH255157   0.922   2.426   1.262 -0.5850  0.0135 -0.1011
10321TIP3    H155158   0.881   2.509   1.239 -1.0014 -0.0568  0.3523
10321TIP3    H255159   0.924   2.426   1.358 -0.1021 -0.2659 -0.1064
10322TIP3   OH255160   6.542   4.464   1.418 -0.0666 -0.8384  0.4606
10322TIP3    H155161   6.516   4.416   1.339  0.7218 -0.6945  0.1080
10322TIP3    H255162   6.637   4.472   1.411 -0.2027  1.0055  0.3761
10323TIP3   OH255163   0.869   5.304   2.437 -0.3107 -0.1935 -0.2520
10323TIP3    H155164   0.798   5.344   2.487 -0.6970 -1.4345  0.2286
10323TIP3    H255165   0.862   5.210   2.456  1.8812 -0.2917  0.3529
10324TIP3   OH255166   1.018   5.591   0.874 -0.1207 -0.2820 -0.6302
10324TIP3    H155167   1.069   5.626   0.948 -1.9029  0.1075  0.4671
10324TIP3    H255168   1.081   5.539   0.824  1.1588 -0.4863  1.1110
10325TIP3   OH255169   0.103   0.252   2.879  0.0188  0.1904 -0.3790
10325TIP3    H155170   0.156   0.291   2.948 -1.4887  0.0917  0.8936
10325TIP3    H255171   0.112   0.311   2.804  0.5895  1.0403  0.3511
10326TIP3   OH255172   7.193   7.294   1.934 -0.0125 -0.3797  0.6928
10326TIP3    H155173   7.250   7.228   1.973 -0.3114 -0.9938  0.0905
10326TIP3    H255174   7.245   7.334   1.865  0.3330  0.3549  1.3532
10327TIP3   OH255175   1.563   5.755   2.019 -0.1762  0.4311 -0.0353
10327TIP3    H155176   1.658   5.755   2.036 -0.1760  0.7045 -0.0365
10327TIP3    H255177   1.529   5.684   2.075  0.2562 -0.8312 -1.3133
10328TIP3   OH255178   5.823   2.551   1.477  0.5026 -0.4281 -0.5253
10328TIP3    H155179   5.758   2.566   1.408 -1.2148 -2.4618  0.5555
10328TIP3    H255180   5.904   2.533   1.429 -0.3107 -0.3580 -1.9951
10329TIP3   OH255181   6.235   1.222   1.002  0.3808 -0.2343 -0.3295
10329TIP3    H155182   6.186   1.159   0.949  2.1116 -1.0119 -1.0814
10329TIP3    H255183   6.318   1.232   0.956  1.1655  0.6081  1.1964
10330TIP3   OH255184   1.996   1.959   1.848 -0.0114 -0.0715  0.3776
10330TIP3    H155185   1.927   1.893   1.845  0.0446 -0.2237  1.9342
10330TIP3    H255186   2.073   1.911   1.879  0.7016  0.1914 -0.9082
10331TIP3   OH255187   4.523   7.114   2.021 -0.1024 -0.5597  0.0589
10331TIP3    H155188   4.430   7.104   2.043 -0.9808 -0.3959 -3.0822
10331TIP3    H255189   4.528   7.199   1.978  1.8053 -0.0192  1.2183
10332TIP3   OH255190   5.303   3.274   1.748  0.2319  0.7060 -0.1828
10332TIP3    H155191   5.361   3.325   1.804  0.9971  1.1352 -1.3428
10332TIP3    H255192   5.293   3.191   1.794  0.0279  1.4046  1.0792
10333TIP3   OH255193   7.598   2.931   3.278  0.7477 -0.4002  0.1173
10333TIP3    H155194   7.528   2.986   3.243  0.6377 -0.1953  0.6522
10333TIP3    H255195   7.650   2.990   3.332  1.8362 -0.3427 -0.9299
10334TIP3   OH255196   4.545   2.565   0.788  0.6317 -0.6267 -0.4456
10334TIP3    H155197   4.479   2.628   0.758  0.9070 -0.8719 -1.5951
10334TIP3    H255198   4.509   2.531   0.870 -0.3285 -0.2173 -0.6767
10335TIP3   OH255199   4.937   3.500   2.277  0.2585 -0.3799  0.2191
10335TIP3    H155200   4.879   3.449   2.333  2.4103 -1.7416  1.3643
10335TIP3    H255201   5.007   3.439   2.253  2.1601  1.6005  0.3872
10336TIP3   OH255202   2.837   2.522   2.422  0.2493 -0.0702 -0.1268
10336TIP3    H155203   2.856   2.602   2.373 -3.3949 -0.1422 -2.0549
10336TIP3    H255204   2.791   2.466   2.359  0.7428 -2.8138  1.7821
10337TIP3   OH255205   3.545   5.708   3.106 -0.4073 -0.0262  0.6416
10337TIP3    H155206   3.508   5.630   3.063  1.8165 -0.8265  0.0226
10337TIP3    H255207   3.589   5.755   3.035 -0.7259  1.2160  1.2374
10338TIP3   OH255208   4.484   3.477   2.352 -0.3333  0.7988  0.1437
10338TIP3    H155209   4.403   3.484   2.301 -1.1831 -1.6535  0.9987
10338TIP3    H255210   4.456   3.437   2.434  1.7677 -0.3580  0.3559
10339TIP3   OH255211   4.418   3.071   2.827  0.0838 -0.3604 -0.0220
10339TIP3    H155212   4.429   3.163   2.803  0.6498 -0.3169  0.3833
10339TIP3    H255213   4.500   3.029   2.800  0.4414 -0.4460  1.1676
10340TIP3   OH255214   3.471   5.112   0.480  0.5407 -0.5656 -0.7520
10340TIP3    H155215   3.558   5.114   0.439  0.2632  1.5810 -1.3210
10340TIP3    H255216   3.489   5.101   0.574  1.5194  1.1970 -0.7055
10341TIP3   OH255217   6.729   3.400   2.199 -0.1221 -0.1762 -0.3619
10341TIP3    H155218   6.711   3.438   2.112  1.5169  2.2187  0.2498
10341TIP3    H255219   6.787   3.326   2.181  0.8066  0.7394 -1.2774
10342TIP3   OH255220   2.160   2.014   2.812  0.1090 -0.3437  0.0260
10342TIP3    H155221   2.071   2.031   2.842  0.6500  1.9664  0.5337
10342TIP3    H255222   2.167   1.919   2.810 -2.4454 -0.5776 -0.3315
10343TIP3   OH255223   0.751   7.347   2.091 -0.3868 -0.0366  0.2249
10343TIP3    H155224   0.670   7.302   2.114  0.7707 -1.9806  0.7954
10343TIP3    H255225   0.771   7.314   2.003 -1.1565  1.9166 -0.7348
10344TIP3   OH255226   6.752   3.258   2.815 -0.1864 -0.3163 -0.0234
10344TIP3    H155227   6.761   3.338   2.764 -0.8104 -0.4374 -0.3229
10344TIP3    H255228   6.751   3.288   2.906  1.3122 -0.1316 -0.0277
10345TIP3   OH255229   3.667   6.097   3.099 -0.4694  0.0007  0.1336
10345TIP3    H155230   3.670   6.179   3.148 -0.5754 -0.4075  0.8366
10345TIP3    H255231   3.757   6.064   3.102 -0.5434 -0.1821  0.3165
10346TIP3   OH255232   5.640   5.237   1.004  0.1642  0.3406  0.8385
10346TIP3    H155233   5.619   5.194   1.087 -1.0835  0.0786  0.4131
10346TIP3    H255234   5.671   5.167   0.948  0.0584  0.3473  0.7721
10347TIP3   OH255235   0.739   0.318   0.493  0.2387 -0.6491  0.0871
10347TIP3    H155236   0.803   0.316   0.423 -1.2560 -2.2305 -1.3263
10347TIP3    H255237   0.701   0.230   0.494 -0.7134 -0.2805  2.0243
10348TIP3   OH255238   1.542   2.206   0.467 -0.6416 -0.4292 -1.4655
10348TIP3    H155239   1.476   2.262   0.507 -0.0693 -0.7966  0.0714
10348TIP3    H255240   1.605   2.267   0.428 -1.0708 -0.0621 -1.5961
10349TIP3   OH255241   4.630   5.287   2.325 -0.4019  0.2149  0.0736
10349TIP3    H155242   4.619   5.214   2.386 -1.5522 -0.4213 -0.8714
10349TIP3    H255243   4.725   5.299   2.320 -0.2360 -0.5833  0.9687
10350TIP3   OH255244   6.756   7.348   0.533  0.0130  0.2179 -0.5030
10350TIP3    H155245   6.689   7.403   0.492 -1.2973 -1.4072 -0.6808
10350TIP3    H255246   6.709   7.268   0.557  1.5875 -0.3759  0.7633
10351TIP3   OH255247   5.224   0.697   1.000  0.0556 -0.3555  0.2621
10351TIP3    H155248   5.291   0.644   1.044 -0.2433 -0.7931  0.1945
10351TIP3    H255249   5.172   0.634   0.950 -0.8323 -0.1178  0.8532
10352TIP3   OH255250   6.533   4.413   0.993 -0.6304 -0.2748  0.4942
10352TIP3    H155251   6.455   4.460   1.019 -0.1830  1.1714 -0.6746
10352TIP3    H255252   6.603   4.478   0.994  0.1921 -1.1015 -0.3073
10353TIP3   OH255253   2.290   0.180   1.087  0.7017  0.4980  0.3631
10353TIP3    H155254   2.314   0.179   0.994 -1.8477 -1.0151 -0.3626
10353TIP3    H255255   2.300   0.090   1.116 -3.7941 -0.3485 -0.0605
10354TIP3   OH255256   7.620   4.377   1.633  0.0344 -0.2170 -0.2781
10354TIP3    H155257   7.661   4.328   1.705 -0.3747 -1.2073 -0.7122
10354TIP3    H255258   7.693   4.397   1.574 -0.2343 -3.2586 -1.8014
10355TIP3   OH255259   5.972   7.601   2.238  0.5309 -0.8809 -0.2032
10355TIP3    H155260   6.051   7.593   2.185 -0.2076 -0.1016 -1.4692
10355TIP3    H255261   5.924   7.674   2.198 -1.5831 -2.3369 -0.4509
10356TIP3   OH255262   4.630   7.448   1.979 -0.0149 -0.3452 -0.7692
10356TIP3    H155263   4.535   7.442   1.968 -0.0697  0.5589 -0.8972
10356TIP3    H255264   4.641   7.474   2.070  0.1720 -1.6238 -0.4100
10357TIP3   OH255265   2.992   2.847   2.703  0.9613  0.2492  0.1336
10357TIP3    H155266   2.915   2.798   2.673  1.5976 -0.5556 -0.2128
10357TIP3    H255267   2.964   2.885   2.787 -0.6667  2.1113 -1.1648
10358TIP3   OH255268   6.557   0.699   1.775  0.2151 -0.2485 -0.4093
10358TIP3    H155269   6.581   0.677   1.865 -1.9899 -0.3799  0.2161
10358TIP3    H255270   6.633   0.744   1.739  0.6329  1.0619  1.9756
10359TIP3   OH255271   5.420   6.279   1.719  0.4517  0.4166 -0.5807
10359TIP3    H155272   5.399   6.290   1.812 -0.9065 -0.8762 -0.7034
10359TIP3    H255273   5.420   6.368   1.684  0.3482  0.8664  0.5241
10360TIP3   OH255274   3.049   5.549   0.690 -0.4536  0.3815 -0.0223
10360TIP3    H155275   2.958   5.576   0.678  0.3646  2.9461 -1.1155
10360TIP3    H255276   3.068   5.572   0.781 -0.6860  0.5479 -0.0143
10361TIP3   OH255277   4.075   0.658   2.249 -0.2706  0.2404  0.5894
10361TIP3    H155278   4.074   0.747   2.213 -0.9625 -0.0158 -0.0726
10361TIP3    H255279   4.115   0.667   2.335  1.4947  0.8825 -0.2372
10362TIP3   OH255280   5.665   1.025   1.995  0.5460 -0.1311  0.3357
10362TIP3    H155281   5.683   0.993   1.907  0.0045 -1.1712  0.5842
10362TIP3    H255282   5.682   0.950   2.052  0.1540  0.3044  1.0433
10363TIP3   OH255283   4.371   6.949   3.319 -0.4267  0.8546 -0.0040
10363TIP3    H155284   4.306   6.896   3.273 -0.0124 -0.5571  0.9865
10363TIP3    H255285   4.453   6.903   3.307 -0.1390  0.9869  1.2991
10364TIP3   OH255286   5.846   1.447   1.905 -0.4215  0.0516 -0.0657
10364TIP3    H155287   5.907   1.398   1.850 -0.0768  0.2025  0.1813
10364TIP3    H255288   5.897   1.522   1.937 -0.3707 -0.4808  1.1412
10365TIP3   OH255289   3.161   3.704   2.700  0.7761 -0.1030 -0.5515
10365TIP3    H155290   3.214   3.764   2.648  1.8756 -1.5016 -1.0960
10365TIP3    H255291   3.070   3.726   2.677  1.2026 -1.4289 -4.0062
10366TIP3   OH255292   5.095   7.002   2.314 -0.3758 -0.2658  0.4837
10366TIP3    H155293   5.184   7.021   2.344 -0.5130 -0.3224  0.9223
10366TIP3    H255294   5.047   7.083   2.329 -0.5991 -0.4942  1.0012
10367TIP3   OH255295   3.143   5.996   2.861  0.0362 -0.2962 -0.5630
10367TIP3    H155296   3.179   6.073   2.905 -0.6254 -0.6838  0.7281
10367TIP3    H255297   3.064   5.975   2.911  1.4566 -3.2485  0.7190
10368TIP3   OH255298   5.451   4.852   2.879 -0.1574 -0.0210 -0.1644
10368TIP3    H155299   5.361   4.860   2.912 -0.2136  0.9002 -0.5195
10368TIP3    H255300   5.502   4.826   2.956 -0.2181  2.4378  0.8016
10369TIP3   OH255301   3.348   3.969   2.192 -0.0451 -0.3018 -0.7077
10369TIP3    H155302   3.335   3.990   2.099  0.1238 -0.1338 -0.6948
10369TIP3    H255303   3.443   3.962   2.201 -0.0585 -0.2523 -0.5339
10370TIP3   OH255304   5.337   5.605   1.799  0.0156  0.3704 -0.2106
10370TIP3    H155305   5.265   5.661   1.771 -1.0838 -1.3676 -1.0161
10370TIP3    H255306   5.411   5.632   1.743 -1.1350 -0.5239 -2.2676
10371TIP3   OH255307   7.002   2.029   2.501  0.0688 -0.1013 -0.3061
10371TIP3    H155308   6.934   2.062   2.442 -0.8454  0.7756  1.2046
10371TIP3    H255309   6.983   1.935   2.508  0.2351 -0.2339 -1.4428
10372TIP3   OH255310   4.304   4.178   1.458  0.0046  0.1856  0.0400
10372TIP3    H155311   4.333   4.245   1.396  0.3904 -0.7099 -0.7781
10372TIP3    H255312   4.316   4.218   1.544 -1.6028  1.8861 -0.4501
10373TIP3   OH255313   1.556   0.656   0.549 -0.2678 -0.0128 -0.2745
10373TIP3    H155314   1.582   0.621   0.464  1.4478 -1.5243  0.7783
10373TIP3    H255315   1.540   0.749   0.533  0.2314 -0.2059 -2.1898
10374TIP3   OH255316   5.545   4.214   1.875  0.0020 -0.4244  0.4216
10374TIP3    H155317   5.489   4.255   1.940  2.3157  0.8269  1.7550
10374TIP3    H255318   5.603   4.157   1.926  1.6226  0.2933 -0.5455
10375TIP3   OH255319   6.044   1.040   1.957  0.0286  0.2392 -0.2283
10375TIP3    H155320   5.979   1.006   1.896 -0.2565  0.3507  0.0164
10375TIP3    H255321   6.013   1.127   1.980 -0.0902  0.0270  0.4187
10376TIP3   OH255322   0.811   4.053   1.220  0.2641 -0.5497  0.0486
10376TIP3    H155323   0.720   4.067   1.194 -0.3990  0.3812  2.5903
10376TIP3    H255324   0.845   3.992   1.154 -1.8478 -0.0824 -1.5939
10377TIP3   OH255325   5.201   2.232   0.664  0.0481 -0.1790  0.1409
10377TIP3    H155326   5.108   2.240   0.644 -0.1667 -1.9765  0.2189
10377TIP3    H255327   5.245   2.271   0.589 -0.7278  1.4113  0.4563
10378TIP3   OH255328   5.603   5.459   1.967 -0.1368  0.2070  0.4922
10378TIP3    H155329   5.696   5.481   1.982  0.0814 -0.1248 -0.3545
10378TIP3    H255330   5.602   5.411   1.885 -1.1338  0.6650  0.2175
10379TIP3   OH255331   3.373   0.167   2.065 -0.2517 -0.5249 -0.2256
10379TIP3    H155332   3.440   0.140   2.127  0.5904  0.0883 -0.8281
10379TIP3    H255333   3.361   0.091   2.008  0.0286 -0.6044 -0.1832
10380TIP3   OH255334   0.997   1.765   2.583  0.5225 -0.8431 -0.3623
10380TIP3    H155335   0.914   1.760   2.536  0.3036 -0.9251  0.0263
10380TIP3    H255336   1.005   1.857   2.607  0.4291 -0.8773 -0.1982
10381TIP3   OH255337   4.868   3.024   1.798 -0.4614 -0.4393  0.6949
10381TIP3    H155338   4.856   3.100   1.742  1.4503  0.6039  1.6095
10381TIP3    H255339   4.934   2.971   1.753 -0.4050 -0.6114  0.9725
10382TIP3   OH255340   7.039   6.988   2.084  0.2669  0.6946  0.4326
10382TIP3    H155341   6.962   7.042   2.066  0.8648  1.1683 -0.9140
10382TIP3    H255342   7.009   6.923   2.147 -1.2308  0.8679 -0.0531
10383TIP3   OH255343   4.369   7.585   1.827  0.0582  0.2685 -0.0432
10383TIP3    H155344   4.392   7.556   1.739  0.0792  0.0342  0.0400
10383TIP3    H255345   4.402   7.675   1.831 -1.1373  0.7517 -0.7305
10384TIP3   OH255346   4.870   1.180   1.566  0.2218 -0.4484 -0.0857
10384TIP3    H155347   4.928   1.110   1.536  0.7381 -0.1645  0.2495
10384TIP3    H255348   4.924   1.234   1.624  0.4575  1.4277 -1.9197
10385TIP3   OH255349   0.575   7.253   1.142  0.0668  0.2046 -0.8467
10385TIP3    H155350   0.614   7.216   1.221 -2.4019  1.4897  1.0963
10385TIP3    H255351   0.649   7.269   1.084  1.8695 -1.7037  0.7534
10386TIP3   OH255352   1.911   6.395   1.274  0.5321 -0.4072  0.2006
10386TIP3    H155353   1.881   6.308   1.302 -0.7857  0.1929  0.7091
10386TIP3    H255354   1.863   6.456   1.330 -0.9668  0.8079 -2.2373
10387TIP3   OH255355   1.776   1.479   2.368  0.2039  0.0423  0.4481
10387TIP3    H155356   1.828   1.539   2.421  0.6924  2.4715 -2.4382
10387TIP3    H255357   1.719   1.537   2.317  1.6142 -1.6823 -3.5371
10388TIP3   OH255358   4.384   6.330   2.771  0.0785  0.0330 -0.1824
10388TIP3    H155359   4.312   6.343   2.832  1.1364  0.4829  1.0266
10388TIP3    H255360   4.385   6.409   2.717 -0.2346  0.0886 -0.1071
10389TIP3   OH255361   1.583   0.872   1.443 -0.2702  0.1955  0.2331
10389TIP3    H155362   1.635   0.948   1.417  1.4494 -1.5963 -1.9663
10389TIP3    H255363   1.494   0.906   1.450  0.5813  2.6336  0.5584
10390TIP3   OH255364   3.811   0.544   0.542 -0.1369  0.5461 -0.0960
10390TIP3    H155365   3.767   0.459   0.538 -0.9199  0.9406 -0.0036
10390TIP3    H255366   3.886   0.534   0.483 -0.6165  0.0171 -0.6407
10391TIP3   OH255367   3.787   2.095   2.399 -0.5746 -0.3138 -0.4127
10391TIP3    H155368   3.776   2.069   2.490 -1.6234 -0.8607 -0.6795
10391TIP3    H255369   3.867   2.147   2.398  0.0690 -1.2524  0.6182
10392TIP3   OH255370   2.181   1.740   2.898  0.6447  0.0835 -0.4154
10392TIP3    H155371   2.240   1.716   2.969 -0.3885 -0.8100  0.1770
10392TIP3    H255372   2.161   1.657   2.854 -0.2199  0.3535 -0.5507
10393TIP3   OH255373   4.095   5.778   0.714  0.0325 -0.7704  0.3487
10393TIP3    H155374   4.171   5.819   0.673  0.2019  0.1349  1.5015
10393TIP3    H255375   4.132   5.721   0.781 -0.2621 -1.6360 -0.2084
10394TIP3   OH255376   2.108   5.179   0.955 -0.2676 -0.8938 -0.3089
10394TIP3    H155377   2.050   5.130   0.896 -0.5021 -0.2901 -0.5872
10394TIP3    H255378   2.150   5.244   0.899 -1.4230  0.5198  0.4022
10395TIP3   OH255379   5.270   0.421   1.909  0.3327  0.3173 -0.2551
10395TIP3    H155380   5.344   0.395   1.964 -1.7526 -2.7677  1.3952
10395TIP3    H255381   5.213   0.471   1.967 -0.2253  0.1455 -0.6414
10396TIP3   OH255382   2.282   1.305   2.785  0.3034  0.5136  0.3451
10396TIP3    H155383   2.298   1.218   2.746 -0.4785  0.7004 -0.4341
10396TIP3    H255384   2.326   1.301   2.870 -1.8556 -1.5805  1.4988
10397TIP3   OH255385   4.097   5.558   2.057  0.2223  0.5981 -0.6553
10397TIP3    H155386   4.120   5.632   2.114  0.1296 -0.5389  0.9282
10397TIP3    H255387   4.152   5.487   2.087 -2.8215 -1.2822  1.0402
10398TIP3   OH255388   0.815   5.900   2.957  0.0968  0.6004 -0.3609
10398TIP3    H155389   0.782   5.825   2.908 -0.8348 -0.4590  1.7558
10398TIP3    H255390   0.765   5.975   2.923 -0.0106  0.0415 -1.4845
10399TIP3   OH255391   3.529   2.181   1.434 -0.1147  0.2041 -0.2078
10399TIP3    H155392   3.597   2.240   1.402  1.9120 -0.8559  1.8710
10399TIP3    H255393   3.509   2.213   1.521 -0.5415 -0.9197  0.1211
10400TIP3   OH255394   1.571   0.628   3.274  0.1710 -0.0803  0.7504
10400TIP3    H155395   1.600   0.541   3.299  0.9393 -0.1012 -0.1666
10400TIP3    H255396   1.573   0.628   3.178  1.1786  1.2573  0.7337
10401TIP3   OH255397   0.507   3.409   2.631 -0.1534 -0.2648  0.4964
10401TIP3    H155398   0.473   3.491   2.667  0.4020  1.2337 -2.1486
10401TIP3    H255399   0.597   3.404   2.663  0.4172  1.1681 -0.7974
10402TIP3   OH255400   6.191   6.576   2.154 -0.7121 -0.3651  0.1703
10402TIP3    H155401   6.216   6.663   2.186  0.9456 -0.3735 -0.9831
10402TIP3    H255402   6.102   6.563   2.187 -0.7767  1.5149  0.8603
10403TIP3   OH255403   3.404   1.913   0.998  0.5675 -0.3190  0.0578
10403TIP3    H155404   3.340   1.984   1.006 -0.1964 -1.0856  1.0249
10403TIP3    H255405   3.351   1.837   0.972  1.5941 -0.2029 -2.7020
10404TIP3   OH255406   6.672   1.733   0.621  0.6391 -0.2751 -0.3979
10404TIP3    H155407   6.728   1.687   0.558  0.3150 -1.5858  0.2522
10404TIP3    H255408   6.728   1.804   0.654  1.2962 -0.4468 -1.1054
10405TIP3   OH255409   2.491   6.779   1.829  0.1811  0.6765  0.0348
10405TIP3    H155410   2.488   6.875   1.831  0.6642  0.6897  0.2323
10405TIP3    H255411   2.580   6.757   1.854  0.8869  0.2385 -2.5690
10406TIP3   OH255412   4.117   6.678   0.324  0.0400 -0.4791 -0.0771
10406TIP3    H155413   4.129   6.599   0.271 -1.5082 -1.3713  0.8478
10406TIP3    H255414   4.206   6.710   0.339  0.5743 -0.5920 -2.5612
10407TIP3   OH255415   3.544   2.268   2.702  0.1521 -0.7210  0.1630
10407TIP3    H155416   3.456   2.232   2.706 -0.1914  0.2071  1.9072
10407TIP3    H255417   3.597   2.208   2.754  0.0246  0.0366  1.1972
10408TIP3   OH255418   7.584   5.141   1.572 -0.4748  0.3335  0.6682
10408TIP3    H155419   7.610   5.143   1.665  0.2369 -2.1714  0.6149
10408TIP3    H255420   7.564   5.049   1.556 -0.8277  0.7700 -1.6292
10409TIP3   OH255421   7.078   1.042   2.384 -0.6096 -0.1838 -0.3435
10409TIP3    H155422   7.033   0.978   2.440 -0.3037  0.0992  0.2260
10409TIP3    H255423   7.157   1.064   2.432 -0.2767 -0.0382 -0.9553
10410TIP3   OH255424   5.130   3.273   1.024 -0.2641  0.0663 -0.1397
10410TIP3    H155425   5.137   3.248   1.116 -0.9717  0.4381  0.0201
10410TIP3    H255426   5.171   3.359   1.020  0.0192 -0.0718 -0.2286
10411TIP3   OH255427   3.786   6.558   1.775 -0.2749 -0.0978 -0.0625
10411TIP3    H155428   3.698   6.551   1.814  0.8200 -1.1116  2.4341
10411TIP3    H255429   3.786   6.494   1.704 -1.4496 -0.2858  0.0809
10412TIP3   OH255430   5.644   5.906   2.316 -0.2533 -1.3155 -0.1999
10412TIP3    H155431   5.609   5.868   2.236  0.5391 -2.4276 -0.0428
10412TIP3    H255432   5.736   5.924   2.297 -0.2605 -0.8062  0.1985
10413TIP3   OH255433   1.852   4.548   2.684  0.0526  0.4736  0.1398
10413TIP3    H155434   1.836   4.459   2.716 -0.2219  1.3739  2.7237
10413TIP3    H255435   1.943   4.565   2.705  0.2647  0.6314 -0.8607
10414TIP3   OH255436   5.484   6.954   1.864 -0.0921 -0.2875 -0.7212
10414TIP3    H155437   5.579   6.946   1.864 -0.0266  0.1469  1.0247
10414TIP3    H255438   5.453   6.874   1.907 -0.4244  0.2121 -0.0103
10415TIP3   OH255439   3.253   2.239   1.965 -0.5428  0.8525  0.1841
10415TIP3    H155440   3.172   2.281   1.994 -0.8450 -0.1168  0.7796
10415TIP3    H255441   3.314   2.311   1.952 -0.8658  1.4549  1.7719
10416TIP3   OH255442   6.622   0.320   2.390  0.0304 -0.4174 -0.5403
10416TIP3    H155443   6.655   0.397   2.436 -1.1051 -1.0744  1.4912
10416TIP3    H255444   6.696   0.292   2.336  1.6517  0.1272  1.2592
10417TIP3   OH255445   1.142   2.279   3.016  0.8509  0.4311  0.3245
10417TIP3    H155446   1.230   2.259   3.049 -0.0776 -0.0226  2.6414
10417TIP3    H255447   1.086   2.211   3.052 -1.2330  3.2088  2.7935
10418TIP3   OH255448   5.864   3.434   0.778 -0.0488  0.0671  0.3406
10418TIP3    H155449   5.832   3.344   0.773 -1.7568  0.6554  0.0574
10418TIP3    H255450   5.929   3.440   0.709  1.2904 -1.3861  1.4054
10419TIP3   OH255451   7.277   6.871   2.547 -0.6842 -0.1343  0.2174
10419TIP3    H155452   7.352   6.925   2.573  0.1701 -0.9673 -0.4740
10419TIP3    H255453   7.220   6.931   2.500 -1.0579  0.8014  1.7881
10420TIP3   OH255454   5.338   0.573   1.658  0.0604 -0.2499  0.2926
10420TIP3    H155455   5.269   0.637   1.672 -0.6415 -1.1743  1.2371
10420TIP3    H255456   5.335   0.517   1.736  2.3302  0.0953  0.7122
10421TIP3   OH255457   5.341   3.971   1.807 -0.1405  0.2071 -0.7856
10421TIP3    H155458   5.248   3.989   1.800  0.1034  1.0333 -2.3013
10421TIP3    H255459   5.380   4.056   1.829  0.3142  0.0052 -0.7924
10422TIP3   OH255460   3.823   1.404   0.717 -0.3184  0.0941 -0.0122
10422TIP3    H155461   3.738   1.369   0.689 -0.9336  1.4468  0.0697
10422TIP3    H255462   3.887   1.344   0.679 -1.2599 -0.0699 -1.4310
10423TIP3   OH255463   3.209   3.027   3.249  0.4527 -0.5835  0.5210
10423TIP3    H155464   3.175   2.937   3.243  0.1894 -0.5234  1.0275
10423TIP3    H255465   3.208   3.046   3.343 -0.6569  0.3947  0.3327
10424TIP3   OH255466   1.174   6.265   1.023  0.3534  0.4057  0.3744
10424TIP3    H155467   1.081   6.278   1.040  0.3768 -0.1821  1.0100
10424TIP3    H255468   1.206   6.352   0.999 -0.7531  0.2574 -1.8831
10425TIP3   OH255469   5.461   0.099   1.264 -0.3661 -0.0287  0.5420
10425TIP3    H155470   5.377   0.145   1.257  0.7269  2.3863  1.9050
10425TIP3    H255471   5.444   0.024   1.321 -1.6447  0.2564  0.5484
10426TIP3   OH255472   0.054   2.356   2.328  0.0592  0.6164  0.2935
10426TIP3    H155473  -0.003   2.298   2.277  0.8599 -1.3710  1.5352
10426TIP3    H255474   0.112   2.297   2.375 -0.9395  2.2408  3.9292
10427TIP3   OH255475   4.230   5.084   1.403 -0.2180 -0.2812  0.0920
10427TIP3    H155476   4.203   5.171   1.431 -0.2784  0.2601 -1.5079
10427TIP3    H255477   4.238   5.092   1.308  0.3907 -1.8596 -0.0107
10428TIP3   OH255478   1.938   1.184   0.878  0.0090 -0.1534 -0.6773
10428TIP3    H155479   1.934   1.265   0.928  0.8329  0.8499 -2.1686
10428TIP3    H255480   1.968   1.210   0.791  0.1866 -2.0415 -1.2388
10429TIP3   OH255481   1.650   4.168   1.836  0.0180  0.1061  0.0543
10429TIP3    H155482   1.586   4.229   1.799 -0.2964 -1.4303 -2.1428
10429TIP3    H255483   1.707   4.147   1.763  0.0581 -2.2762  0.6925
10430TIP3   OH255484   3.185   2.340   1.504 -0.0753 -0.1817  0.3153
10430TIP3    H155485   3.151   2.417   1.550  0.5869  0.8894 -0.9299
10430TIP3    H255486   3.134   2.336   1.423  0.4105 -0.6110  0.0274
10431TIP3   OH255487   2.875   2.742   2.297 -0.4078  0.0612  0.4417
10431TIP3    H155488   2.826   2.795   2.235 -0.3556  0.5133  0.7889
10431TIP3    H255489   2.962   2.782   2.299  0.0114 -0.7785 -0.2295
10432TIP3   OH255490   1.095   5.548   2.265 -0.4986 -0.4611 -0.3655
10432TIP3    H155491   1.139   5.633   2.260  1.1366 -1.3204 -2.1458
10432TIP3    H255492   1.108   5.521   2.356  1.1988  0.1242 -0.3811
10433TIP3   OH255493   6.431   0.350   2.154 -0.5821 -0.0768 -0.0842
10433TIP3    H155494   6.337   0.337   2.153 -0.6828  0.4133  1.3927
10433TIP3    H255495   6.453   0.368   2.245  0.8739  0.3106 -0.4722
10434TIP3   OH255496   2.414   0.949   0.989 -0.2354 -0.3282 -0.3575
10434TIP3    H155497   2.457   0.940   1.074 -1.8615 -1.7966  0.3849
10434TIP3    H255498   2.367   0.866   0.978 -0.5344  0.0651 -2.4361
10435TIP3   OH255499   1.004   5.872   2.380  0.0559 -0.0612 -0.0242
10435TIP3    H155500   1.002   5.949   2.324 -2.1832 -0.4022 -0.5124
10435TIP3    H255501   1.076   5.819   2.346  1.1584  1.4405 -0.1345
10436TIP3   OH255502   4.633   1.485   1.154 -0.2738 -0.2212 -0.2100
10436TIP3    H155503   4.682   1.541   1.214  2.6089 -0.4690 -2.1447
10436TIP3    H255504   4.604   1.545   1.085 -1.1585 -0.4014 -0.0057
10437TIP3   OH255505   0.880   0.221   1.074  0.1420  0.6633 -1.1459
10437TIP3    H155506   0.887   0.286   1.004  0.8550 -0.6270 -2.3555
10437TIP3    H255507   0.868   0.271   1.154  0.2810  2.2446 -2.0852
10438TIP3   OH255508   6.487   6.093   1.544  0.4542  0.8632  0.6451
10438TIP3    H155509   6.410   6.116   1.596  1.2612  0.1586  2.2328
10438TIP3    H255510   6.533   6.176   1.531 -0.8208  1.3884 -0.8209
10439TIP3   OH255511   4.090   5.124   0.717 -0.0286  0.0965  0.5820
10439TIP3    H155512   4.096   5.029   0.711  1.6155  0.2498 -0.9339
10439TIP3    H255513   3.997   5.142   0.705 -0.6311 -1.3685  2.5516
   7.68049   7.68049  30.00000
