Title
55513
    1DOPE     N    1   4.780   5.274  13.816  0.0901 -0.0337 -0.9068
    1DOPE   HN1    2   4.696   5.333  13.801  0.0673 -0.3210 -1.9637
    1DOPE   HN2    3   4.742   5.185  13.852  0.7287  0.7326  1.9290
    1DOPE   HN3    4   4.844   5.308  13.891 -2.1044 -0.1391  1.1319
    1DOPE   C12    5   4.843   5.260  13.687 -0.8175  0.5534  0.0673
    1DOPE  H12A    6   4.861   5.363  13.649  1.7164 -0.1854 -0.9239
    1DOPE  H12B    7   4.767   5.215  13.620 -1.1258  0.8133  0.2384
    1DOPE   C11    8   4.964   5.161  13.692 -0.3691  0.1272  0.4100
    1DOPE  H11A    9   5.053   5.218  13.725  0.8186 -1.4693  0.0537
    1DOPE  H11B   10   4.992   5.130  13.589  1.1028 -0.3909  0.9504
    1DOPE     P   11   4.858   4.926  13.718  0.7805 -0.3877 -0.1707
    1DOPE   O13   12   4.773   4.871  13.827 -0.0357  0.0476 -0.1922
    1DOPE   O14   13   4.948   4.834  13.651  0.0032 -0.6856  0.3374
    1DOPE   O11   14   4.762   4.991  13.604  0.0476  0.1603  0.1479
    1DOPE   O12   15   4.945   5.045  13.774 -0.0948 -0.8791  0.5164
    1DOPE    C1   16   4.639   4.931  13.567 -0.0730  0.3962 -0.2044
    1DOPE    HA   17   4.566   4.939  13.651  0.7082 -0.0561  0.5295
    1DOPE    HB   18   4.648   4.822  13.549  0.6207 -0.2567  3.3723
    1DOPE    C2   19   4.584   4.995  13.439 -0.4732 -0.2596 -0.1802
    1DOPE    HS   20   4.513   4.924  13.391  1.9838 -3.5900  0.8147
    1DOPE   O21   21   4.692   5.035  13.352 -0.0329 -0.5052  0.2855
    1DOPE   C21   22   4.740   4.934  13.279 -0.5737  0.4218 -0.3653
    1DOPE   O22   23   4.691   4.821  13.277  0.1678 -0.3348 -0.7712
    1DOPE   C22   24   4.860   4.974  13.195 -0.1504 -0.1072 -0.6635
    1DOPE   H2R   25   4.906   4.877  13.167  0.0471  0.1204 -1.1304
    1DOPE   H2S   26   4.930   5.025  13.264 -1.2523 -0.6067  0.8783
    1DOPE    C3   27   4.497   5.120  13.480  0.0891 -0.2597  0.2694
    1DOPE    HX   28   4.561   5.185  13.543 -0.3307  0.4615 -0.0351
    1DOPE    HY   29   4.407   5.083  13.534 -1.0899  0.0281 -1.4240
    1DOPE   O31   30   4.460   5.184  13.353 -0.2759  0.4479  0.0654
    1DOPE   C31   31   4.450   5.311  13.358 -0.3293  0.1039  0.2603
    1DOPE   O32   32   4.444   5.381  13.456 -0.0019  0.1059  0.0567
    1DOPE   C32   33   4.444   5.374  13.219 -0.2419  0.3799 -0.3135
    1DOPE   H2X   34   4.532   5.438  13.198 -0.6319  0.5490 -1.5139
    1DOPE   H2Y   35   4.442   5.294  13.142 -0.5798 -0.2487  0.3403
    1DOPE   C23   36   4.824   5.058  13.071 -0.1892  0.3849  0.2042
    1DOPE   H3R   37   4.910   5.121  13.039  1.6385 -1.6282  0.9002
    1DOPE   H3S   38   4.741   5.130  13.087  0.1817  0.3718  2.5325
    1DOPE   C24   39   4.787   4.969  12.956 -0.2457 -0.1506  0.4897
    1DOPE   H4R   40   4.681   4.938  12.950  0.8101 -4.0291 -1.1771
    1DOPE   H4S   41   4.851   4.878  12.960  0.0163  0.0486  0.8781
    1DOPE   C25   42   4.816   5.045  12.823 -0.2974  1.1237 -1.0373
    1DOPE   H5R   43   4.924   5.069  12.818  0.5504 -1.7810  0.4715
    1DOPE   H5S   44   4.750   5.130  12.851  0.4738  1.4908 -0.2790
    1DOPE   C26   45   4.782   4.971  12.692 -0.1062 -0.6430 -0.5373
    1DOPE   H6R   46   4.678   4.977  12.655 -0.1479  0.9125 -0.2070
    1DOPE   H6S   47   4.798   4.863  12.713 -0.6897 -0.4661  0.9782
    1DOPE   C27   48   4.862   5.029  12.574 -0.4256  0.2935  0.6524
    1DOPE   H7R   49   4.957   5.063  12.620 -0.8031 -0.2039  1.8315
    1DOPE   H7S   50   4.814   5.119  12.529  0.2956  1.4859  2.1860
    1DOPE   C28   51   4.874   4.933  12.451 -0.1186  0.6772 -0.4679
    1DOPE   H8R   52   4.784   4.929  12.387  0.9496 -2.4990 -1.9504
    1DOPE   H8S   53   4.886   4.828  12.484 -2.4433  0.3893 -0.3743
    1DOPE   C29   54   4.989   4.972  12.369 -0.2642  0.1696  0.4196
    1DOPE   H9R   55   5.087   4.952  12.415  0.1115  0.8022 -0.0862
    1DOPE  C210   56   4.996   5.004  12.240 -0.2874 -0.0162  0.8348
    1DOPE  H10R   57   5.093   5.045  12.207 -0.0670  0.3463  1.8768
    1DOPE  C211   58   4.884   5.021  12.142  0.3503  0.4380 -0.2905
    1DOPE  H11R   59   4.865   5.128  12.117  0.3744 -0.1445 -3.0897
    1DOPE  H11S   60   4.783   4.982  12.169  0.9981 -0.9868  0.1711
    1DOPE  C212   61   4.925   4.958  12.006 -0.1719  0.2122  0.1810
    1DOPE  H12R   62   4.910   4.848  12.012  0.6881  0.1307  1.0864
    1DOPE  H12S   63   5.030   4.974  11.973  0.2351  0.9560  1.7592
    1DOPE  C213   64   4.846   5.016  11.885 -0.0539 -0.6118  0.7712
    1DOPE  H13R   65   4.872   5.123  11.872  1.8426 -1.0685  0.3757
    1DOPE  H13S   66   4.738   5.006  11.909 -0.0384  0.9350  1.5970
    1DOPE  C214   67   4.865   4.943  11.749 -0.0706 -0.3356 -0.7267
    1DOPE  H14R   68   4.865   4.837  11.780  0.2434 -0.1612 -0.1198
    1DOPE  H14S   69   4.961   4.976  11.702 -0.0910  1.4579  0.4085
    1DOPE  C215   70   4.735   4.972  11.655 -0.3710  0.1470 -0.7297
    1DOPE  H15R   71   4.763   5.021  11.559 -0.2310 -0.6198 -1.0847
    1DOPE  H15S   72   4.673   5.047  11.709  1.4982  0.5282  1.0042
    1DOPE  C216   73   4.660   4.840  11.633  0.0336 -0.1800 -0.3880
    1DOPE  H16R   74   4.633   4.797  11.732  1.5459  0.7262  0.4380
    1DOPE  H16S   75   4.723   4.762  11.586 -0.4163 -1.3248  0.8319
    1DOPE  C217   76   4.530   4.838  11.543 -0.1190  0.4040 -0.1890
    1DOPE  H17R   77   4.444   4.890  11.591 -0.6093  0.3227 -0.9759
    1DOPE  H17S   78   4.507   4.731  11.528  0.5516  0.1436  0.5570
    1DOPE  C218   79   4.538   4.913  11.408  0.8962  0.2424 -0.5896
    1DOPE  H18R   80   4.618   4.877  11.341  1.9637  3.3033 -1.1313
    1DOPE  H18S   81   4.583   5.014  11.418  2.0381 -0.3291  0.2186
    1DOPE  H18T   82   4.440   4.922  11.356  0.7919 -1.2263 -0.6794
    1DOPE   C33   83   4.328   5.476  13.205 -0.4239 -0.3184 -0.1478
    1DOPE   H3X   84   4.335   5.562  13.274 -1.0783 -0.4184  0.0516
    1DOPE   H3Y   85   4.239   5.414  13.230  0.9471 -2.4281 -0.1939
    1DOPE   C34   86   4.314   5.529  13.063  0.3338  0.4132 -0.2498
    1DOPE   H4X   87   4.399   5.596  13.036 -0.3483  2.6013  2.5380
    1DOPE   H4Y   88   4.312   5.435  13.004  0.3346 -0.5086  1.1616
    1DOPE   C35   89   4.185   5.607  13.045  0.5875 -0.1921 -0.1296
    1DOPE   H5X   90   4.195   5.685  13.124  0.4077 -0.2771 -0.0218
    1DOPE   H5Y   91   4.095   5.543  13.056 -0.5118  1.0180 -1.7035
    1DOPE   C36   92   4.182   5.674  12.904 -0.8050 -0.0527 -0.0663
    1DOPE   H6X   93   4.285   5.709  12.884 -0.3296 -0.6792  1.1870
    1DOPE   H6Y   94   4.117   5.764  12.913  1.1544  1.2485  2.3692
    1DOPE   C37   95   4.147   5.576  12.791  0.2115  0.1988 -0.0348
    1DOPE   H7X   96   4.213   5.486  12.789 -1.8133 -1.3566 -1.2208
    1DOPE   H7Y   97   4.044   5.537  12.808  0.7984 -0.5220  2.2266
    1DOPE   C38   98   4.184   5.625  12.649  0.0923 -0.4661  0.2596
    1DOPE   H8X   99   4.194   5.542  12.575  0.9914 -0.4640  0.3751
    1DOPE   H8Y  100   4.289   5.660  12.648  0.0721 -0.3722 -1.0488
    1DOPE   C39  101   4.083   5.735  12.603  0.3590  0.2698  0.0714
    1DOPE   H9X  102   4.086   5.827  12.664  1.7374 -1.2001  2.4025
    1DOPE  C310  103   3.996   5.717  12.501 -0.1917  0.0639  0.6593
    1DOPE  H10X  104   3.914   5.788  12.483 -2.2097 -1.9637  1.4355
    1DOPE  C311  105   3.992   5.598  12.417  0.3072  0.0752  0.1204
    1DOPE  H11X  106   4.021   5.505  12.471 -3.6150 -2.2435 -1.3495
    1DOPE  H11Y  107   3.884   5.589  12.395  0.0176 -0.3352  1.6364
    1DOPE  C312  108   4.063   5.610  12.279  0.0647  0.0951 -0.5273
    1DOPE  H12X  109   4.171   5.621  12.302 -0.6153 -0.4714  3.6929
    1DOPE  H12Y  110   4.037   5.698  12.216 -0.8548 -0.0825 -0.4146
    1DOPE  C313  111   4.039   5.480  12.199  0.5473 -0.5794  0.1288
    1DOPE  H13X  112   4.076   5.407  12.275  0.3458  1.1969  2.0077
    1DOPE  H13Y  113   3.936   5.458  12.165  1.0684 -0.2425 -1.8296
    1DOPE  C314  114   4.125   5.458  12.079 -0.5567 -0.3218  0.0298
    1DOPE  H14X  115   4.140   5.348  12.081 -0.4250 -0.2999  1.9184
    1DOPE  H14Y  116   4.226   5.500  12.099 -0.2564 -0.8064 -0.4634
    1DOPE  C315  117   4.076   5.513  11.938  0.0080 -0.3832  0.2238
    1DOPE  H15X  118   4.056   5.622  11.940  2.8234  0.2161  0.3019
    1DOPE  H15Y  119   3.986   5.456  11.908  0.4147 -0.5873 -0.6411
    1DOPE  C316  120   4.187   5.513  11.833  0.5745 -0.4925  1.2082
    1DOPE  H16X  121   4.228   5.411  11.816  0.0754 -0.9259  2.4982
    1DOPE  H16Y  122   4.279   5.565  11.869 -0.6990  0.8569  2.6816
    1DOPE  C317  123   4.141   5.569  11.693  0.0486  0.3922 -0.0908
    1DOPE  H17X  124   4.091   5.667  11.706  1.2888  1.7264 -3.9963
    1DOPE  H17Y  125   4.233   5.584  11.632  0.8106  1.6100  1.2750
    1DOPE  C318  126   4.032   5.482  11.628  0.1720 -0.2846  0.1060
    1DOPE  H18X  127   3.944   5.458  11.691 -0.0231  0.2150  0.0338
    1DOPE  H18Y  128   3.983   5.550  11.555  0.1909  0.0364  0.3918
    1DOPE  H18Z  129   4.069   5.382  11.596  0.0558 -0.8949  1.8104
    2DOPE     N  130   5.185   5.063  14.014  0.0781 -0.0771  0.3461
    2DOPE   HN1  131   5.132   5.147  14.045 -1.4058 -1.1625  0.8887
    2DOPE   HN2  132   5.116   4.985  14.009 -3.3502  2.7109  0.4200
    2DOPE   HN3  133   5.240   5.039  14.099  2.9999  2.6357 -0.5828
    2DOPE   C12  134   5.275   5.065  13.897  0.0224 -0.4834  0.7896
    2DOPE  H12A  135   5.212   5.053  13.806 -1.8238  0.4857  1.8980
    2DOPE  H12B  136   5.340   4.975  13.902 -1.8956 -2.1559 -1.6460
    2DOPE   C11  137   5.354   5.204  13.896 -0.4193 -0.3444 -0.5013
    2DOPE  H11A  138   5.394   5.226  13.795 -0.0034  0.4533 -0.1636
    2DOPE  H11B  139   5.444   5.195  13.960 -0.1866 -0.4195 -0.8386
    2DOPE     P  140   5.300   5.456  13.915  0.1631 -0.1622 -0.2558
    2DOPE   O13  141   5.414   5.502  13.993 -0.9623 -0.0748  0.7176
    2DOPE   O14  142   5.179   5.539  13.926  0.1873 -0.5120 -0.6037
    2DOPE   O11  143   5.338   5.453  13.762  0.1886 -0.0609 -0.1711
    2DOPE   O12  144   5.270   5.305  13.937  0.7551 -0.9342 -0.2083
    2DOPE    C1  145   5.250   5.437  13.651  0.0531 -0.3225 -0.0713
    2DOPE    HA  146   5.145   5.410  13.678 -0.3389  0.2035 -1.0086
    2DOPE    HB  147   5.291   5.355  13.588  1.6085 -1.2455  2.0407
    2DOPE    C2  148   5.258   5.566  13.560 -0.3316  0.5252 -0.1099
    2DOPE    HS  149   5.216   5.657  13.609  1.3304  1.2641  0.0247
    2DOPE   O21  150   5.198   5.539  13.430  0.0915  0.0989 -0.4587
    2DOPE   C21  151   5.068   5.565  13.423  0.7121 -0.0312 -0.2624
    2DOPE   O22  152   5.003   5.610  13.519 -0.7509  0.0500  0.1624
    2DOPE   C22  153   5.027   5.545  13.283  0.4525 -0.1068  0.5899
    2DOPE   H2R  154   5.061   5.446  13.245  0.3562  0.1403 -0.1557
    2DOPE   H2S  155   5.063   5.621  13.210 -0.3598  0.6422  0.9472
    2DOPE    C3  156   5.413   5.611  13.530  0.2196  0.4595  0.3991
    2DOPE    HX  157   5.462   5.528  13.475 -0.5531 -1.2292  2.1674
    2DOPE    HY  158   5.447   5.620  13.635 -0.2345 -0.8389  0.6697
    2DOPE   O31  159   5.411   5.738  13.461 -0.5980  0.1006  0.4877
    2DOPE   C31  160   5.464   5.749  13.337  0.3981  0.2026  0.1831
    2DOPE   O32  161   5.483   5.654  13.260 -0.3800 -0.2836 -0.1230
    2DOPE   C32  162   5.480   5.900  13.314  0.3132 -0.3001  0.2141
    2DOPE   H2X  163   5.382   5.952  13.322  0.1848 -0.5797  0.4756
    2DOPE   H2Y  164   5.546   5.941  13.393  1.8043 -2.3503  0.1033
    2DOPE   C23  165   4.871   5.558  13.268 -0.2969  0.1847  0.2134
    2DOPE   H3R  166   4.835   5.656  13.306 -0.4917 -0.5812  2.1114
    2DOPE   H3S  167   4.822   5.475  13.324 -0.6543  0.3612  0.1649
    2DOPE   C24  168   4.825   5.555  13.122 -0.3008 -0.1062  0.1596
    2DOPE   H4R  169   4.854   5.649  13.069 -0.1269 -0.7334 -0.9000
    2DOPE   H4S  170   4.714   5.555  13.121 -0.3108 -1.5100  0.1859
    2DOPE   C25  171   4.875   5.430  13.044 -0.1063  0.0207 -0.1571
    2DOPE   H5R  172   4.845   5.336  13.094 -0.1274  0.0063 -0.1973
    2DOPE   H5S  173   4.986   5.433  13.042 -0.0326 -1.5584  0.3299
    2DOPE   C26  174   4.818   5.452  12.899 -0.3052  0.5241  0.0901
    2DOPE   H6R  175   4.860   5.388  12.818 -0.6152 -0.1295  0.4424
    2DOPE   H6S  176   4.850   5.553  12.864  0.3161  0.3027  0.0060
    2DOPE   C27  177   4.663   5.437  12.884  0.3737 -0.1002 -0.4915
    2DOPE   H7R  178   4.600   5.493  12.956 -1.6339 -2.3620 -0.3738
    2DOPE   H7S  179   4.631   5.334  12.911 -0.1198  0.3266  0.5897
    2DOPE   C28  180   4.607   5.471  12.743  0.4516  0.1429 -0.0838
    2DOPE   H8R  181   4.654   5.570  12.723  2.9503 -0.5852  1.6944
    2DOPE   H8S  182   4.498   5.491  12.737  0.3065 -0.6588 -0.1597
    2DOPE   C29  183   4.650   5.361  12.649  0.7335 -0.1862  0.6091
    2DOPE   H9R  184   4.739   5.307  12.684 -0.0031 -1.0670  1.1477
    2DOPE  C210  185   4.582   5.328  12.539  0.3322  0.1527 -0.6938
    2DOPE  H10R  186   4.609   5.238  12.482 -0.2201  0.2414 -1.1015
    2DOPE  C211  187   4.454   5.387  12.495 -1.1793 -0.4228  0.3490
    2DOPE  H11R  188   4.479   5.494  12.482  0.5536 -0.9706 -1.2895
    2DOPE  H11S  189   4.379   5.388  12.577 -0.6958 -1.4238  0.8258
    2DOPE  C212  190   4.397   5.345  12.356 -0.6414 -0.5022 -0.3480
    2DOPE  H12R  191   4.313   5.413  12.330 -0.6974 -0.6379 -0.5215
    2DOPE  H12S  192   4.352   5.244  12.370  0.0009 -1.0982 -2.2386
    2DOPE  C213  193   4.509   5.353  12.251 -0.0688 -0.8052  0.4834
    2DOPE  H13R  194   4.602   5.305  12.288  1.1126  3.0712  3.2040
    2DOPE  H13S  195   4.534   5.461  12.244  0.2931 -0.9016  0.2727
    2DOPE  C214  196   4.450   5.304  12.117  0.1075  0.1405 -0.4878
    2DOPE  H14R  197   4.391   5.387  12.072 -0.7391  1.5760  2.9036
    2DOPE  H14S  198   4.371   5.230  12.143  0.7361  0.4401  2.8243
    2DOPE  C215  199   4.556   5.255  12.021 -0.4352  0.5485  0.5611
    2DOPE  H15R  200   4.590   5.153  12.046 -0.3311  0.2321 -0.7681
    2DOPE  H15S  201   4.647   5.320  12.020  0.8153 -1.1111 -0.9969
    2DOPE  C216  202   4.510   5.259  11.868  0.0799  0.3244 -0.1376
    2DOPE  H16R  203   4.600   5.267  11.803  0.4184  0.1551  0.3022
    2DOPE  H16S  204   4.440   5.343  11.850 -2.3391 -1.0475  2.1668
    2DOPE  C217  205   4.429   5.131  11.828 -0.5234  0.7326  0.1864
    2DOPE  H17R  206   4.348   5.119  11.903 -0.9819  0.1122 -0.3894
    2DOPE  H17S  207   4.489   5.040  11.850 -0.5641  0.8134  0.6232
    2DOPE  C218  208   4.363   5.138  11.698  0.6341  0.0738 -0.2706
    2DOPE  H18R  209   4.320   5.037  11.681  1.1840 -0.6529  2.1634
    2DOPE  H18S  210   4.432   5.151  11.613  2.3947  2.5750  1.4115
    2DOPE  H18T  211   4.288   5.220  11.689 -0.4264 -0.6761  1.1727
    2DOPE   C33  212   5.555   5.940  13.174  0.0706  0.3363 -0.4618
    2DOPE   H3X  213   5.623   5.854  13.155 -0.6709 -0.7416  1.5181
    2DOPE   H3Y  214   5.630   6.021  13.189  1.1156 -0.3913 -1.5517
    2DOPE   C34  215   5.455   5.958  13.061  0.7938  0.8328 -0.5288
    2DOPE   H4X  216   5.385   5.873  13.069  0.4415  1.2305  1.0215
    2DOPE   H4Y  217   5.386   6.042  13.086 -0.6483 -0.4636 -0.0118
    2DOPE   C35  218   5.529   5.963  12.930 -0.8616  0.2799 -0.1481
    2DOPE   H5X  219   5.567   5.860  12.915 -2.1527 -0.5245  1.6179
    2DOPE   H5Y  220   5.613   6.036  12.930  2.1426 -2.8732  2.1198
    2DOPE   C36  221   5.453   6.002  12.810 -0.2827 -0.5865 -0.6989
    2DOPE   H6X  222   5.410   6.103  12.831 -1.0558 -1.3187  1.5532
    2DOPE   H6Y  223   5.366   5.936  12.787 -0.9152  0.7144 -2.2298
    2DOPE   C37  224   5.533   6.014  12.688 -0.0762  0.5993  0.3833
    2DOPE   H7X  225   5.619   6.085  12.697 -0.0228  0.4137  1.4959
    2DOPE   H7Y  226   5.571   5.912  12.669  0.3655  0.4766  1.7952
    2DOPE   C38  227   5.451   6.056  12.567  0.4069  0.2974  0.2154
    2DOPE   H8X  228   5.517   6.101  12.490  0.8684 -0.4557  0.1693
    2DOPE   H8Y  229   5.392   6.147  12.593 -1.3933 -0.2040 -1.8372
    2DOPE   C39  230   5.366   5.939  12.513  0.4070 -0.7264 -0.1064
    2DOPE   H9X  231   5.372   5.845  12.570  0.8348 -1.2249 -0.9501
    2DOPE  C310  232   5.294   5.958  12.402  0.3035 -0.5580 -0.4881
    2DOPE  H10X  233   5.229   5.878  12.363 -1.2620  0.5366 -0.2435
    2DOPE  C311  234   5.289   6.075  12.316  0.4192 -0.6618  1.1398
    2DOPE  H11X  235   5.245   6.167  12.360  1.8733  1.1059 -0.8378
    2DOPE  H11Y  236   5.389   6.108  12.280  0.5070 -0.1983  1.7832
    2DOPE  C312  237   5.205   6.063  12.185  0.1653  0.8346 -0.4271
    2DOPE  H12X  238   5.099   6.071  12.216 -0.0189  2.0682 -1.3228
    2DOPE  H12Y  239   5.219   5.962  12.141 -3.3783 -0.9521  2.0009
    2DOPE  C313  240   5.228   6.180  12.090 -0.4811  0.4160  0.9532
    2DOPE  H13X  241   5.171   6.272  12.119 -0.3697  0.5389  0.7820
    2DOPE  H13Y  242   5.334   6.205  12.070 -0.3105 -0.8967  0.1393
    2DOPE  C314  243   5.175   6.151  11.943  0.8801  0.5492 -0.7434
    2DOPE  H14X  244   5.165   6.252  11.899  0.5968  1.1732  0.7027
    2DOPE  H14Y  245   5.066   6.131  11.939  0.7320  1.5052 -2.4254
    2DOPE  C315  246   5.269   6.066  11.853  0.6002  0.3867 -0.4959
    2DOPE  H15X  247   5.297   5.978  11.914 -1.1488  1.3549  1.8768
    2DOPE  H15Y  248   5.365   6.119  11.839  1.0468 -0.4972 -0.8659
    2DOPE  C316  249   5.212   6.031  11.715  0.2631  0.0048  0.6743
    2DOPE  H16X  250   5.122   5.965  11.713  1.0008 -1.0573  1.5458
    2DOPE  H16Y  251   5.281   5.969  11.654 -0.8825 -0.9749  0.3200
    2DOPE  C317  252   5.187   6.153  11.617 -0.3387  0.0409 -0.2853
    2DOPE  H17X  253   5.124   6.227  11.669  0.2143  0.4860 -0.2423
    2DOPE  H17Y  254   5.286   6.203  11.610 -0.2326 -0.1493 -0.1528
    2DOPE  C318  255   5.127   6.104  11.487 -0.3905 -0.0518  0.1492
    2DOPE  H18X  256   5.199   6.029  11.449  2.4790  1.7608  1.6756
    2DOPE  H18Y  257   5.026   6.058  11.500  0.2263 -2.1980 -1.9016
    2DOPE  H18Z  258   5.121   6.188  11.415  1.7179  2.6991  2.9351
    3DOPE     N  259   2.969   4.943  13.794  0.2564 -0.3055  0.4683
    3DOPE   HN1  260   2.999   5.035  13.756 -0.0561 -0.0942  0.7266
    3DOPE   HN2  261   3.053   4.892  13.829  0.2494  1.2271  3.0363
    3DOPE   HN3  262   2.928   4.885  13.718  1.0570  0.3125 -0.4757
    3DOPE   C12  263   2.870   4.964  13.908  0.7437  0.2497  0.4371
    3DOPE  H12A  264   2.863   4.866  13.960  1.6421 -0.3739 -0.5777
    3DOPE  H12B  265   2.777   5.003  13.863  0.6858 -1.1464 -0.7398
    3DOPE   C11  266   2.929   5.071  14.009 -0.6778 -0.5277 -0.3370
    3DOPE  H11A  267   3.014   5.023  14.061 -0.3647  0.4607  0.0900
    3DOPE  H11B  268   2.867   5.096  14.098  0.6879  1.8656  0.0197
    3DOPE     P  269   2.978   5.331  14.010 -0.1696  0.1783  0.0018
    3DOPE   O13  270   3.085   5.333  14.108 -0.0466 -0.6326  0.1426
    3DOPE   O14  271   2.847   5.377  14.053 -0.1396 -0.1554 -0.8667
    3DOPE   O11  272   3.027   5.426  13.892 -0.6320  0.4056  0.5112
    3DOPE   O12  273   2.969   5.188  13.941 -0.1058 -0.7650 -0.4532
    3DOPE    C1  274   2.929   5.477  13.799 -0.0706  0.0160  0.3302
    3DOPE    HA  275   2.949   5.586  13.786  0.7329 -0.2615 -0.9025
    3DOPE    HB  276   2.824   5.459  13.833  0.9275 -4.8631  1.5965
    3DOPE    C2  277   2.920   5.394  13.666  0.0341  0.0680  0.5523
    3DOPE    HS  278   2.857   5.308  13.698  0.8024 -0.2718  1.1942
    3DOPE   O21  279   3.049   5.359  13.620  0.3446  0.1693 -0.1176
    3DOPE   C21  280   3.074   5.241  13.571 -0.3624  0.3216 -0.0223
    3DOPE   O22  281   2.989   5.154  13.569  0.4856 -0.5261  0.4059
    3DOPE   C22  282   3.212   5.232  13.502 -0.3583  0.2192 -0.8523
    3DOPE   H2R  283   3.228   5.139  13.444  3.1018  0.1650  0.0062
    3DOPE   H2S  284   3.289   5.243  13.581  1.6552 -2.6759 -2.2431
    3DOPE    C3  285   2.861   5.490  13.551 -0.2729  0.6463 -0.7168
    3DOPE    HX  286   2.939   5.566  13.528 -0.5330  0.2225 -3.2469
    3DOPE    HY  287   2.775   5.548  13.592 -0.2494  1.7637 -2.1789
    3DOPE   O31  288   2.832   5.428  13.426  0.1822 -0.2009  0.1230
    3DOPE   C31  289   2.717   5.369  13.425  0.0127  1.0219  0.3883
    3DOPE   O32  290   2.651   5.334  13.521  0.1721 -0.2925 -0.6873
    3DOPE   C32  291   2.665   5.336  13.285  0.3780  0.5696  0.4099
    3DOPE   H2X  292   2.678   5.226  13.276  1.3625  0.8021 -1.4553
    3DOPE   H2Y  293   2.555   5.353  13.280  0.0766 -1.4982 -1.2254
    3DOPE   C23  294   3.236   5.348  13.392  1.0138  0.7021  0.0056
    3DOPE   H3R  295   3.341   5.356  13.358  1.0105 -1.1217 -0.5702
    3DOPE   H3S  296   3.232   5.450  13.436  1.3333  0.7505 -0.0748
    3DOPE   C24  297   3.149   5.338  13.264 -0.4319  0.0166 -0.5636
    3DOPE   H4R  298   3.044   5.343  13.298 -0.2703 -3.3181  0.8291
    3DOPE   H4S  299   3.167   5.241  13.212 -2.7472 -0.9184  0.2748
    3DOPE   C25  300   3.181   5.452  13.171  0.4396 -0.4144 -0.3291
    3DOPE   H5R  301   3.284   5.450  13.130  0.0935 -0.3907 -1.2262
    3DOPE   H5S  302   3.169   5.551  13.219  0.7954  0.1765 -1.4192
    3DOPE   C26  303   3.087   5.449  13.049 -0.0926 -0.4108  0.2342
    3DOPE   H6R  304   2.997   5.511  13.067  0.3329  0.1227  0.5813
    3DOPE   H6S  305   3.054   5.344  13.042  0.5686 -0.5674 -0.8852
    3DOPE   C27  306   3.152   5.501  12.918  0.2473 -0.3002  0.0756
    3DOPE   H7R  307   3.252   5.456  12.900  0.6271  0.7831 -0.6048
    3DOPE   H7S  308   3.175   5.608  12.939  0.5455 -0.2381 -0.5514
    3DOPE   C28  309   3.069   5.486  12.792  0.2367 -0.3241  0.0125
    3DOPE   H8R  310   2.973   5.541  12.796  1.2369  1.4657  1.1090
    3DOPE   H8S  311   3.049   5.378  12.780  1.6363 -0.6635  0.4419
    3DOPE   C29  312   3.156   5.546  12.684 -0.0356  0.0825 -0.1529
    3DOPE   H9R  313   3.198   5.640  12.722 -3.0574  1.6102 -0.2664
    3DOPE  C210  314   3.183   5.498  12.560 -0.5430  0.0320  0.3605
    3DOPE  H10R  315   3.254   5.560  12.504 -1.0793  1.0434  0.7707
    3DOPE  C211  316   3.118   5.384  12.493 -0.6255 -0.1738 -0.0722
    3DOPE  H11R  317   3.057   5.326  12.566  1.1121 -2.1750 -0.1117
    3DOPE  H11S  318   3.193   5.303  12.476 -0.1692  0.3281 -0.4839
    3DOPE  C212  319   3.057   5.429  12.363  0.2041  0.1172 -0.0256
    3DOPE  H12R  320   2.987   5.511  12.387 -0.4720 -0.9316  1.8811
    3DOPE  H12S  321   3.004   5.340  12.322  1.1013 -0.3168 -0.2642
    3DOPE  C213  322   3.163   5.480  12.263  0.5189  0.3682  0.2662
    3DOPE  H13R  323   3.244   5.404  12.257 -0.7393 -0.9009 -1.8322
    3DOPE  H13S  324   3.213   5.573  12.299 -0.5168  1.5560 -1.2177
    3DOPE  C214  325   3.102   5.499  12.125 -0.4763  0.2606  0.3256
    3DOPE  H14R  326   3.014   5.565  12.143  0.0050  0.9497  0.1599
    3DOPE  H14S  327   3.055   5.409  12.079  1.8624 -1.0987  0.4338
    3DOPE  C215  328   3.205   5.549  12.026 -0.2978 -0.4118 -0.3752
    3DOPE  H15R  329   3.284   5.471  12.020  1.5653  1.2019  1.4001
    3DOPE  H15S  330   3.251   5.643  12.063  0.3748 -1.3525  1.3095
    3DOPE  C216  331   3.139   5.578  11.891 -0.0939 -0.4566  0.2924
    3DOPE  H16R  332   3.040   5.624  11.912 -1.5235 -3.0489 -0.3768
    3DOPE  H16S  333   3.113   5.480  11.846 -2.1348  0.3825 -0.4687
    3DOPE  C217  334   3.231   5.659  11.790 -0.0595  0.2483 -0.3761
    3DOPE  H17R  335   3.282   5.746  11.837  2.4897 -0.6643 -1.2759
    3DOPE  H17S  336   3.162   5.695  11.711 -0.9212 -1.6531 -0.5504
    3DOPE  C218  337   3.328   5.567  11.723 -0.8305  0.1581 -0.2540
    3DOPE  H18R  338   3.394   5.624  11.653  0.1119  1.2875  1.4976
    3DOPE  H18S  339   3.281   5.487  11.662  0.3069 -1.3172  0.7232
    3DOPE  H18T  340   3.403   5.525  11.793 -0.3777 -1.4358 -1.6259
    3DOPE   C33  341   2.743   5.409  13.169  0.6909 -0.0144  0.3665
    3DOPE   H3X  342   2.835   5.348  13.157  1.1911  1.0693 -2.0817
    3DOPE   H3Y  343   2.777   5.505  13.212 -4.1481  1.4523  1.5374
    3DOPE   C34  344   2.657   5.434  13.046 -0.1658  0.3752 -0.7138
    3DOPE   H4X  345   2.641   5.335  12.997  0.4728  0.3202 -0.8101
    3DOPE   H4Y  346   2.560   5.484  13.070 -1.0153 -0.9672 -1.2197
    3DOPE   C35  347   2.716   5.527  12.940  0.0542 -0.4536 -0.2919
    3DOPE   H5X  348   2.819   5.488  12.921  0.5663  1.0070 -0.6232
    3DOPE   H5Y  349   2.720   5.630  12.979 -0.2604 -0.0285 -1.3352
    3DOPE   C36  350   2.637   5.537  12.801  0.2196  0.5662  0.3006
    3DOPE   H6X  351   2.539   5.583  12.824  0.4878 -0.3752  3.8659
    3DOPE   H6Y  352   2.607   5.440  12.755  0.6192  0.2226  0.7602
    3DOPE   C37  353   2.712   5.628  12.700  0.1904  0.2401 -0.6004
    3DOPE   H7X  354   2.756   5.714  12.753 -2.1869  1.1941 -0.0202
    3DOPE   H7Y  355   2.794   5.569  12.653  3.1869  1.8845  2.1778
    3DOPE   C38  356   2.624   5.690  12.587 -0.2054  0.3765  0.4695
    3DOPE   H8X  357   2.545   5.750  12.636 -0.5872  0.1212  0.1720
    3DOPE   H8Y  358   2.588   5.606  12.523  0.5091  1.0211 -0.8175
    3DOPE   C39  359   2.712   5.781  12.503  0.5315 -0.0291  0.0189
    3DOPE   H9X  360   2.787   5.844  12.554 -1.7108  0.6422  2.6831
    3DOPE  C310  361   2.708   5.792  12.370 -0.5252  0.7824  0.7176
    3DOPE  H10X  362   2.776   5.867  12.327  0.9430 -0.2107  1.2150
    3DOPE  C311  363   2.625   5.726  12.268  0.4932  0.5947  0.8603
    3DOPE  H11X  364   2.564   5.643  12.309 -0.1166  1.1535  1.1134
    3DOPE  H11Y  365   2.547   5.801  12.241  0.3332  0.3241  0.5564
    3DOPE  C312  366   2.699   5.690  12.140 -0.2900  0.4087 -0.3517
    3DOPE  H12X  367   2.776   5.612  12.160  0.1550  0.9980  0.2751
    3DOPE  H12Y  368   2.763   5.774  12.106  0.3872 -1.1064 -3.1313
    3DOPE  C313  369   2.608   5.667  12.022 -0.1928  0.3759  0.4701
    3DOPE  H13X  370   2.549   5.579  12.054  2.1060 -0.8508  1.6056
    3DOPE  H13Y  371   2.541   5.755  12.013  1.5103  1.7222  0.4830
    3DOPE  C314  372   2.683   5.649  11.888 -0.6118  0.4065 -0.0792
    3DOPE  H14X  373   2.713   5.543  11.877 -1.1503  0.2161  0.2269
    3DOPE  H14Y  374   2.775   5.710  11.885 -1.1793  1.4348  1.8023
    3DOPE  C315  375   2.603   5.699  11.769 -0.4710  0.1586 -0.1403
    3DOPE  H15X  376   2.575   5.803  11.794  0.2903  0.5092 -0.7367
    3DOPE  H15Y  377   2.516   5.630  11.766  0.4697 -1.0507 -2.2858
    3DOPE  C316  378   2.691   5.698  11.643  0.0255 -0.1943 -0.5502
    3DOPE  H16X  379   2.640   5.650  11.556 -2.4853  0.2131  0.5975
    3DOPE  H16Y  380   2.770   5.623  11.665 -1.5371 -1.3003  1.6584
    3DOPE  C317  381   2.758   5.833  11.610  0.6802  0.2726  0.0361
    3DOPE  H17X  382   2.671   5.900  11.594  0.2468 -0.7961 -2.6357
    3DOPE  H17Y  383   2.825   5.880  11.685 -0.1413 -0.4155  1.2554
    3DOPE  C318  384   2.836   5.829  11.474 -0.4397 -0.1908  0.1399
    3DOPE  H18X  385   2.911   5.749  11.491  2.5000  2.3734 -0.1351
    3DOPE  H18Y  386   2.766   5.798  11.393 -0.8504 -2.3946  1.2445
    3DOPE  H18Z  387   2.893   5.922  11.459  4.1774 -2.7892 -0.2329
    4DOPE     N  388   5.012   4.457  13.878 -0.1209 -0.8311 -0.4015
    4DOPE   HN1  389   4.991   4.503  13.969  2.0166  0.0489 -0.2746
    4DOPE   HN2  390   5.018   4.354  13.893  1.4574 -0.7849 -0.5443
    4DOPE   HN3  391   5.107   4.487  13.847 -0.7960 -2.0059 -4.2275
    4DOPE   C12  392   4.923   4.506  13.768  0.3713 -0.3578 -0.5235
    4DOPE  H12A  393   4.967   4.482  13.669  0.7623 -1.2649 -0.1387
    4DOPE  H12B  394   4.921   4.617  13.776 -1.9888 -0.3498 -0.6275
    4DOPE   C11  395   4.775   4.458  13.783 -0.0178  0.3237  1.0982
    4DOPE  H11A  396   4.713   4.486  13.696 -0.4431  0.1895  1.3573
    4DOPE  H11B  397   4.723   4.500  13.872 -1.1588  0.4073  0.4146
    4DOPE     P  398   4.714   4.211  13.703 -0.1223 -0.1925  0.2650
    4DOPE   O13  399   4.570   4.219  13.711  0.5385  0.0328  0.1077
    4DOPE   O14  400   4.769   4.073  13.708 -0.1626 -0.2666  0.2441
    4DOPE   O11  401   4.744   4.274  13.564 -0.0816 -0.3586 -0.0455
    4DOPE   O12  402   4.779   4.310  13.798  0.0823 -0.1305 -0.2778
    4DOPE    C1  403   4.872   4.276  13.501 -0.2305  0.3063 -0.2194
    4DOPE    HA  404   4.943   4.245  13.580 -1.6688 -0.4216  0.8433
    4DOPE    HB  405   4.903   4.379  13.472 -0.6245  0.0684 -1.5745
    4DOPE    C2  406   4.868   4.179  13.378 -0.0227 -0.0326 -0.3056
    4DOPE    HS  407   4.841   4.076  13.409 -0.9503 -0.3279 -1.9629
    4DOPE   O21  408   5.004   4.185  13.326 -0.2166 -0.5766  0.7120
    4DOPE   C21  409   5.028   4.070  13.253 -0.0206 -0.5309 -0.3342
    4DOPE   O22  410   4.948   3.986  13.225 -0.4847  0.0586 -0.0596
    4DOPE   C22  411   5.164   4.083  13.199 -0.4060 -0.1588 -0.0825
    4DOPE   H2R  412   5.240   4.072  13.280 -0.6399 -0.7704  0.0620
    4DOPE   H2S  413   5.179   4.184  13.155 -1.4488  0.2536  0.4693
    4DOPE    C3  414   4.756   4.223  13.284  0.5595 -0.4431 -0.5463
    4DOPE    HX  415   4.779   4.330  13.264 -0.4433 -0.5712 -2.6685
    4DOPE    HY  416   4.665   4.246  13.343  2.2510  1.1577  1.5937
    4DOPE   O31  417   4.747   4.162  13.158  0.5138  0.1936 -1.0056
    4DOPE   C31  418   4.679   4.043  13.152 -0.2944  0.7376 -0.1372
    4DOPE   O32  419   4.613   3.998  13.239  0.2503  0.4518 -0.5216
    4DOPE   C32  420   4.698   3.987  13.011 -0.1209  0.4131 -0.5911
    4DOPE   H2X  421   4.701   4.070  12.937 -1.3983  0.1262 -0.9913
    4DOPE   H2Y  422   4.787   3.919  13.013 -0.1833  0.3515  0.7557
    4DOPE   C23  423   5.204   3.977  13.093 -0.4302 -0.5813 -0.4207
    4DOPE   H3R  424   5.171   3.879  13.135  0.9244 -0.9376 -0.1524
    4DOPE   H3S  425   5.314   3.984  13.082 -0.6296  0.6731 -2.0077
    4DOPE   C24  426   5.143   3.997  12.953 -0.3338  0.0370  0.0105
    4DOPE   H4R  427   5.040   4.036  12.936 -0.2813  0.2290  0.1288
    4DOPE   H4S  428   5.137   3.893  12.914  3.3711 -0.5914  0.7763
    4DOPE   C25  429   5.236   4.079  12.869  0.3811  0.9232 -0.7442
    4DOPE   H5R  430   5.343   4.049  12.877 -0.0975 -0.5469  0.6603
    4DOPE   H5S  431   5.232   4.187  12.895 -1.1225  1.0312 -1.3041
    4DOPE   C26  432   5.190   4.082  12.722 -0.2216 -0.5167 -0.0511
    4DOPE   H6R  433   5.091   4.131  12.711  0.3286  0.8591  0.8621
    4DOPE   H6S  434   5.179   3.976  12.689 -1.0041  0.1409 -2.0345
    4DOPE   C27  435   5.287   4.157  12.638 -0.2602 -0.1170  0.4212
    4DOPE   H7R  436   5.390   4.124  12.665  0.6133  1.7814 -0.3352
    4DOPE   H7S  437   5.279   4.264  12.666  1.3723 -0.0689  0.8198
    4DOPE   C28  438   5.250   4.146  12.491 -0.6773 -0.2855 -0.0195
    4DOPE   H8R  439   5.155   4.202  12.476  1.0295  3.3022  1.4450
    4DOPE   H8S  440   5.248   4.039  12.460 -0.8555 -0.8116  1.7187
    4DOPE   C29  441   5.354   4.203  12.400  0.9915  0.0658  0.9974
    4DOPE   H9R  442   5.443   4.246  12.447  0.7161  2.9567 -0.8559
    4DOPE  C210  443   5.364   4.174  12.267  0.1493 -0.1631  0.2734
    4DOPE  H10R  444   5.439   4.232  12.212  1.3707 -2.1999 -0.3400
    4DOPE  C211  445   5.251   4.115  12.187  0.2382 -0.0426  0.7370
    4DOPE  H11R  446   5.158   4.103  12.247 -0.4468  1.4656  0.0319
    4DOPE  H11S  447   5.290   4.016  12.153  1.6189  0.1327  1.7281
    4DOPE  C212  448   5.210   4.201  12.066 -0.3647 -0.0681  0.4045
    4DOPE  H12R  449   5.298   4.226  12.002 -0.4784  0.7089  0.5445
    4DOPE  H12S  450   5.162   4.297  12.093 -1.5626 -0.1837 -1.1270
    4DOPE  C213  451   5.115   4.134  11.962  0.0386  0.1518  0.4734
    4DOPE  H13R  452   5.024   4.091  12.009 -0.8060  0.8559 -0.4698
    4DOPE  H13S  453   5.173   4.047  11.924  0.0766 -0.0972  1.0801
    4DOPE  C214  454   5.065   4.230  11.847  0.1031 -0.2090  0.7490
    4DOPE  H14R  455   5.158   4.264  11.797 -0.2811  2.8527  1.8759
    4DOPE  H14S  456   5.016   4.317  11.897 -1.8077 -0.8667  0.0849
    4DOPE  C215  457   4.974   4.170  11.737 -0.6217  0.4254  0.2523
    4DOPE  H15R  458   4.950   4.244  11.658  1.7987  0.4658 -0.5129
    4DOPE  H15S  459   4.881   4.127  11.781 -1.0039  1.6537  0.6753
    4DOPE  C216  460   5.049   4.061  11.657 -0.2963 -0.0979 -0.1521
    4DOPE  H16R  461   5.066   3.982  11.733  0.6026 -0.5193 -0.7663
    4DOPE  H16S  462   5.139   4.104  11.608  1.4026 -2.7112  0.4702
    4DOPE  C217  463   4.956   4.022  11.541 -0.6253  0.0463 -0.0794
    4DOPE  H17R  464   4.853   4.059  11.556 -0.8810 -0.2840 -0.9401
    4DOPE  H17S  465   4.953   3.912  11.526 -0.6722  0.1935 -1.2033
    4DOPE  C218  466   5.002   4.077  11.405 -0.4637  0.2332 -0.3226
    4DOPE  H18R  467   4.940   4.037  11.322  1.7138 -0.7305 -1.5670
    4DOPE  H18S  468   5.108   4.055  11.376 -0.9304 -0.1500 -1.8586
    4DOPE  H18T  469   5.000   4.188  11.407  3.0862  0.4583 -1.4867
    4DOPE   C33  470   4.588   3.895  12.946 -0.5525 -0.0796  0.1384
    4DOPE   H3X  471   4.486   3.936  12.960 -0.4319 -0.3216  1.9652
    4DOPE   H3Y  472   4.576   3.808  13.013 -2.1141  1.2780  1.7383
    4DOPE   C34  473   4.616   3.833  12.806 -0.4946 -0.3236 -0.4382
    4DOPE   H4X  474   4.699   3.762  12.825 -0.2714 -0.0795 -0.4988
    4DOPE   H4Y  475   4.529   3.770  12.776 -1.2555 -0.6100  2.1609
    4DOPE   C35  476   4.632   3.940  12.694 -0.2855 -0.0699  0.3508
    4DOPE   H5X  477   4.719   4.005  12.719 -1.8228  1.5875  1.6240
    4DOPE   H5Y  478   4.546   4.005  12.670  0.3058  0.8969  0.7908
    4DOPE   C36  479   4.662   3.871  12.551  0.0279 -0.0022  0.2333
    4DOPE   H6X  480   4.584   3.796  12.524 -0.0952  0.1776  0.0841
    4DOPE   H6Y  481   4.755   3.813  12.562 -1.0343 -1.7539  0.2876
    4DOPE   C37  482   4.666   3.966  12.431  0.9718  0.5889 -0.5294
    4DOPE   H7X  483   4.571   4.022  12.426  0.0397 -0.7894  0.7494
    4DOPE   H7Y  484   4.758   4.027  12.446  0.3045  1.0431  2.1883
    4DOPE   C38  485   4.692   3.889  12.301  0.4334 -0.3081 -1.1104
    4DOPE   H8X  486   4.621   3.804  12.295 -0.9985  0.7087  0.4377
    4DOPE   H8Y  487   4.787   3.834  12.313  0.5750  0.1362 -0.0905
    4DOPE   C39  488   4.684   3.972  12.181  0.7904  0.7761 -0.0619
    4DOPE   H9X  489   4.624   4.063  12.194 -0.5936 -0.0524 -0.4532
    4DOPE  C310  490   4.710   3.927  12.054  0.5085 -0.1267 -0.3828
    4DOPE  H10X  491   4.685   4.002  11.977  0.5080  0.5327  0.2513
    4DOPE  C311  492   4.764   3.789  12.013  0.9771  0.0338 -0.1574
    4DOPE  H11X  493   4.874   3.806  12.015  0.7269  1.9035  1.4276
    4DOPE  H11Y  494   4.738   3.719  12.095  1.5858 -0.9996 -0.8296
    4DOPE  C312  495   4.706   3.742  11.877  0.3930 -0.2302  0.0130
    4DOPE  H12X  496   4.707   3.828  11.807  1.4223  0.2026  0.5364
    4DOPE  H12Y  497   4.603   3.702  11.886  1.2771 -2.7174 -0.0414
    4DOPE  C313  498   4.772   3.623  11.810  0.2194 -0.5164  0.7522
    4DOPE  H13X  499   4.798   3.545  11.885 -1.7794 -1.9516  0.0474
    4DOPE  H13Y  500   4.704   3.576  11.736  0.5625 -0.7412  0.5713
    4DOPE  C314  501   4.904   3.669  11.729 -0.3336 -0.2921  0.2054
    4DOPE  H14X  502   4.976   3.688  11.811 -1.3858  1.8703  0.6925
    4DOPE  H14Y  503   4.882   3.771  11.691 -1.2174 -0.9246 -1.0345
    4DOPE  C315  504   4.945   3.571  11.619  0.0180 -0.2986  0.3816
    4DOPE  H15X  505   4.992   3.479  11.658  3.4935  0.5192 -1.4135
    4DOPE  H15Y  506   5.026   3.619  11.560 -1.0399  1.9450  0.6115
    4DOPE  C316  507   4.836   3.550  11.506 -0.2175  0.0134  0.3038
    4DOPE  H16X  508   4.741   3.506  11.544 -0.9262 -1.7718 -3.1849
    4DOPE  H16Y  509   4.877   3.469  11.443 -1.1886 -0.3572  0.1434
    4DOPE  C317  510   4.821   3.680  11.423  0.4038  0.1963 -0.9101
    4DOPE  H17X  511   4.783   3.758  11.493 -0.3814 -1.7958  1.0096
    4DOPE  H17Y  512   4.917   3.718  11.383  0.4871 -1.2972 -2.2275
    4DOPE  C318  513   4.724   3.664  11.306  0.4109 -0.2097  0.4412
    4DOPE  H18X  514   4.734   3.749  11.235 -3.2338 -0.9327 -1.1603
    4DOPE  H18Y  515   4.743   3.567  11.255 -0.7793  0.6273 -1.7715
    4DOPE  H18Z  516   4.623   3.661  11.351 -0.3985  1.3575 -1.1471
    5DOPE     N  517   2.747   4.203  13.501  0.2156  0.9348  0.1212
    5DOPE   HN1  518   2.734   4.190  13.399  1.7433  0.0385  0.0092
    5DOPE   HN2  519   2.786   4.123  13.555 -1.7830  0.5792  1.1312
    5DOPE   HN3  520   2.647   4.211  13.528 -0.8193 -0.7875 -2.7386
    5DOPE   C12  521   2.831   4.332  13.519  1.0417  0.0221 -0.0391
    5DOPE  H12A  522   2.816   4.359  13.626 -2.4911 -2.2248  0.2112
    5DOPE  H12B  523   2.785   4.410  13.455  0.3326 -1.8807 -1.9832
    5DOPE   C11  524   2.973   4.312  13.479 -0.1462  0.8476  0.5487
    5DOPE  H11A  525   2.975   4.291  13.370  0.0509 -0.4115  0.7718
    5DOPE  H11B  526   3.007   4.221  13.533  0.7984 -0.1976 -1.6531
    5DOPE     P  527   3.087   4.543  13.445  0.1541  0.0858  0.2647
    5DOPE   O13  528   3.197   4.619  13.505  0.0599 -0.0160 -0.1103
    5DOPE   O14  529   2.959   4.615  13.428 -0.7195  0.5731 -0.1750
    5DOPE   O11  530   3.120   4.488  13.299  0.3036 -0.3517 -0.3922
    5DOPE   O12  531   3.060   4.412  13.524  0.3635 -0.1270  0.1728
    5DOPE    C1  532   3.241   4.407  13.273  0.5288 -0.5778 -0.0668
    5DOPE    HA  533   3.233   4.348  13.179  0.5456  0.1620 -0.5409
    5DOPE    HB  534   3.266   4.341  13.359 -1.5637 -0.2763  0.8422
    5DOPE    C2  535   3.360   4.498  13.242  0.0871  0.5288  0.0646
    5DOPE    HS  536   3.384   4.559  13.331  0.6336 -1.2446  1.1807
    5DOPE   O21  537   3.344   4.571  13.121  0.5010  0.0731  0.1720
    5DOPE   C21  538   3.428   4.673  13.112 -0.4457  0.3677 -0.1473
    5DOPE   O22  539   3.507   4.709  13.198 -0.3885  0.2699 -0.5076
    5DOPE   C22  540   3.405   4.733  12.978  0.1174 -0.6068 -0.4408
    5DOPE   H2R  541   3.349   4.828  12.988  0.0673 -0.8090  1.4905
    5DOPE   H2S  542   3.358   4.666  12.903 -1.7907  1.3436 -1.0684
    5DOPE    C3  543   3.490   4.418  13.233  0.2505 -0.1922  0.2884
    5DOPE    HX  544   3.534   4.398  13.333  0.8068 -4.1997 -0.5602
    5DOPE    HY  545   3.578   4.478  13.199  1.6218 -2.3163 -0.1160
    5DOPE   O31  546   3.482   4.290  13.161 -0.1258 -0.1020 -0.2226
    5DOPE   C31  547   3.492   4.308  13.027 -0.2560 -0.9158  0.1067
    5DOPE   O32  548   3.543   4.409  12.978  0.2941  0.6626  0.4487
    5DOPE   C32  549   3.446   4.187  12.950  0.1833  0.6975  0.0205
    5DOPE   H2X  550   3.525   4.108  12.956  0.4291  0.7773 -1.5362
    5DOPE   H2Y  551   3.356   4.141  12.996  0.8760 -0.8184 -0.0599
    5DOPE   C23  552   3.539   4.765  12.911  0.7487  0.1960 -0.2504
    5DOPE   H3R  553   3.599   4.672  12.911  1.5783  0.7077  1.2724
    5DOPE   H3S  554   3.599   4.844  12.961  1.1235  0.3309 -0.8915
    5DOPE   C24  555   3.519   4.807  12.767 -0.1479  1.2365  0.0529
    5DOPE   H4R  556   3.447   4.891  12.762 -1.4484  0.1240 -0.8409
    5DOPE   H4S  557   3.472   4.726  12.707  1.4665 -1.1744  1.8118
    5DOPE   C25  558   3.650   4.847  12.694  0.5169 -0.7101  0.0505
    5DOPE   H5R  559   3.726   4.766  12.683  1.3580 -0.0384  0.7477
    5DOPE   H5S  560   3.700   4.914  12.766 -0.3923  0.7792 -0.6619
    5DOPE   C26  561   3.629   4.914  12.556 -0.2177  0.2481 -0.3335
    5DOPE   H6R  562   3.720   4.972  12.531 -0.6447  1.4091  0.6944
    5DOPE   H6S  563   3.547   4.988  12.568 -0.0034  0.2897  1.0980
    5DOPE   C27  564   3.603   4.812  12.448 -0.3222  0.3175 -0.1315
    5DOPE   H7R  565   3.540   4.728  12.485  3.1607 -1.5058  2.2101
    5DOPE   H7S  566   3.694   4.752  12.425 -1.7890 -1.7010 -1.0351
    5DOPE   C28  567   3.542   4.863  12.318  0.6889  0.4586  0.1199
    5DOPE   H8R  568   3.615   4.928  12.265  1.0100 -0.5364 -0.6985
    5DOPE   H8S  569   3.460   4.927  12.357  0.2516 -1.4023  2.4860
    5DOPE   C29  570   3.474   4.758  12.234 -0.2863  0.7934 -0.5192
    5DOPE   H9R  571   3.376   4.721  12.267 -0.7253  0.6515 -1.9476
    5DOPE  C210  572   3.522   4.719  12.112  0.6637  0.2439  0.7563
    5DOPE  H10R  573   3.458   4.645  12.061 -0.7885  0.5815  1.9829
    5DOPE  C211  574   3.643   4.765  12.040 -0.2428  0.1680  0.7125
    5DOPE  H11R  575   3.734   4.716  12.083 -0.6102 -1.1127  0.0779
    5DOPE  H11S  576   3.657   4.875  12.050  1.2898  0.1157 -0.5171
    5DOPE  C212  577   3.652   4.734  11.890  0.1698  0.6069 -0.0124
    5DOPE  H12R  578   3.568   4.785  11.837 -1.3908 -0.2100  1.5455
    5DOPE  H12S  579   3.647   4.624  11.881 -1.6029  0.7952 -2.1844
    5DOPE  C213  580   3.798   4.779  11.843 -0.0221  0.4723  0.5678
    5DOPE  H13R  581   3.865   4.714  11.902 -0.0685  0.8137  0.9971
    5DOPE  H13S  582   3.814   4.886  11.871 -0.0007 -0.0087  2.4943
    5DOPE  C214  583   3.821   4.759  11.693 -0.1923  0.1564  1.1082
    5DOPE  H14R  584   3.729   4.777  11.633  0.0762  1.2512  0.9959
    5DOPE  H14S  585   3.846   4.654  11.666 -1.8579  0.5087 -2.4202
    5DOPE  C215  586   3.937   4.837  11.628 -0.3508 -0.5460  0.1850
    5DOPE  H15R  587   3.930   4.946  11.647  0.8784 -0.5626  0.8023
    5DOPE  H15S  588   3.933   4.821  11.518 -0.7050 -1.0285  0.2660
    5DOPE  C216  589   4.068   4.795  11.694  0.0468 -0.1292  0.7931
    5DOPE  H16R  590   4.077   4.795  11.805  1.8709 -0.9727  0.6780
    5DOPE  H16S  591   4.136   4.878  11.665  1.4658 -0.0061  3.9913
    5DOPE  C217  592   4.121   4.670  11.629 -0.4610 -0.5023  0.1675
    5DOPE  H17R  593   4.149   4.690  11.523  1.7143 -1.5911  0.4725
    5DOPE  H17S  594   4.052   4.584  11.640 -0.5783 -0.5621 -0.8856
    5DOPE  C218  595   4.255   4.626  11.699  0.3077  0.3341 -0.6177
    5DOPE  H18R  596   4.295   4.532  11.656  0.9306 -2.0616  4.4527
    5DOPE  H18S  597   4.238   4.596  11.805 -0.5821 -1.4036 -1.2199
    5DOPE  H18T  598   4.330   4.708  11.699 -1.5834  2.1442 -1.6612
    5DOPE   C33  599   3.424   4.220  12.801  0.5782  0.0800 -0.7299
    5DOPE   H3X  600   3.418   4.126  12.740  2.7476  1.0571 -2.6242
    5DOPE   H3Y  601   3.512   4.276  12.765  1.9153 -1.3729  0.1371
    5DOPE   C34  602   3.293   4.300  12.773  0.2324  0.3244  0.3767
    5DOPE   H4X  603   3.206   4.232  12.756  0.5020  0.4473 -1.7608
    5DOPE   H4Y  604   3.275   4.366  12.861  1.9541 -0.8153  1.6430
    5DOPE   C35  605   3.308   4.390  12.656 -0.4776 -0.3937 -0.6436
    5DOPE   H5X  606   3.390   4.461  12.680  0.2958 -0.7285 -2.2094
    5DOPE   H5Y  607   3.217   4.449  12.633 -0.9406 -1.0652 -0.5607
    5DOPE   C36  608   3.361   4.317  12.534 -0.1415 -0.1252 -0.2777
    5DOPE   H6X  609   3.321   4.215  12.511  0.0527  0.1135 -1.7655
    5DOPE   H6Y  610   3.468   4.294  12.549 -0.4145 -4.2168 -2.9770
    5DOPE   C37  611   3.334   4.410  12.412 -0.1521  0.1737 -0.2182
    5DOPE   H7X  612   3.224   4.420  12.394 -0.6030 -1.8232  1.1413
    5DOPE   H7Y  613   3.371   4.513  12.430  0.2260 -0.2296  1.4510
    5DOPE   C38  614   3.413   4.375  12.285 -0.2952 -0.1058  0.2448
    5DOPE   H8X  615   3.521   4.362  12.310 -0.4560 -0.9048  0.5712
    5DOPE   H8Y  616   3.411   4.463  12.218  2.4990  3.0192  3.8153
    5DOPE   C39  617   3.373   4.247  12.216 -0.0486  0.1122  0.7648
    5DOPE   H9X  618   3.356   4.163  12.286 -2.1569  0.2081  0.4373
    5DOPE  C310  619   3.372   4.228  12.078  0.6376  0.0755  0.3982
    5DOPE  H10X  620   3.345   4.127  12.046 -0.9711 -0.0501  1.9647
    5DOPE  C311  621   3.413   4.327  11.970 -0.4805  0.3900 -0.2766
    5DOPE  H11X  622   3.470   4.415  12.005  1.6783  0.7064 -4.0419
    5DOPE  H11Y  623   3.484   4.270  11.905  1.0061 -0.4502  1.9719
    5DOPE  C312  624   3.303   4.386  11.884 -0.4253  0.4399  0.0974
    5DOPE  H12X  625   3.228   4.444  11.944 -0.7229 -0.4692  0.6226
    5DOPE  H12Y  626   3.241   4.309  11.835  1.4617 -1.5591  0.7136
    5DOPE  C313  627   3.359   4.479  11.768  0.2153  0.4774 -0.3016
    5DOPE  H13X  628   3.417   4.559  11.819 -0.2615  0.4710  0.2554
    5DOPE  H13Y  629   3.429   4.423  11.703 -0.2449 -1.3011  0.6827
    5DOPE  C314  630   3.246   4.544  11.687 -0.2072 -0.2464 -0.8234
    5DOPE  H14X  631   3.190   4.613  11.754  0.2730  0.6761 -1.3397
    5DOPE  H14Y  632   3.181   4.464  11.647  1.1546 -3.0356  2.0645
    5DOPE  C315  633   3.298   4.627  11.564 -0.7557  0.3056  0.3624
    5DOPE  H15X  634   3.361   4.558  11.505 -1.4089 -0.5728  0.6799
    5DOPE  H15Y  635   3.361   4.714  11.596 -0.0422  0.6437 -1.8097
    5DOPE  C316  636   3.174   4.677  11.490 -0.1581 -0.1477 -0.0060
    5DOPE  H16X  637   3.111   4.590  11.461  0.3776 -1.0176  1.3393
    5DOPE  H16Y  638   3.210   4.720  11.394  1.8382 -2.2138 -0.2675
    5DOPE  C317  639   3.090   4.785  11.563 -0.3826  0.3838 -0.1227
    5DOPE  H17X  640   3.048   4.739  11.655  0.8962 -1.3937 -0.3615
    5DOPE  H17Y  641   3.160   4.871  11.570  0.8195 -0.3235 -2.2704
    5DOPE  C318  642   2.970   4.838  11.480  0.0068 -0.5212  0.6528
    5DOPE  H18X  643   2.921   4.918  11.539  0.4392  0.8288 -0.7455
    5DOPE  H18Y  644   3.002   4.872  11.379  0.2491  0.9797  1.2111
    5DOPE  H18Z  645   2.899   4.754  11.466  1.2317 -1.2625 -1.5667
    6DOPE     N  646   2.184   5.866  14.117  0.1138  0.0298 -0.4698
    6DOPE   HN1  647   2.135   5.814  14.192  0.5397 -1.8879 -1.4542
    6DOPE   HN2  648   2.285   5.864  14.140 -0.3921 -2.0358  1.9275
    6DOPE   HN3  649   2.132   5.956  14.127  0.4642 -0.0095  2.3595
    6DOPE   C12  650   2.148   5.795  13.990 -0.1798  0.2882 -0.5911
    6DOPE  H12A  651   2.168   5.868  13.909 -0.2474 -0.2939 -1.1352
    6DOPE  H12B  652   2.043   5.760  13.995 -0.8220  1.9434 -1.9020
    6DOPE   C11  653   2.252   5.680  13.969  0.2447 -0.2008  1.2395
    6DOPE  H11A  654   2.223   5.614  13.884  1.0829  0.1050  0.6966
    6DOPE  H11B  655   2.243   5.623  14.064 -0.2350  0.6964  1.7359
    6DOPE     P  656   2.507   5.648  13.892 -0.0028 -0.1105  0.0793
    6DOPE   O13  657   2.488   5.506  13.933  0.1396  0.6666 -0.2007
    6DOPE   O14  658   2.631   5.723  13.933 -0.3835 -0.5852  0.1929
    6DOPE   O11  659   2.498   5.659  13.740 -0.0680  0.6250  0.0773
    6DOPE   O12  660   2.384   5.729  13.936  0.1233  0.2112 -0.3058
    6DOPE    C1  661   2.493   5.790  13.681  0.7984  0.5722 -0.3630
    6DOPE    HA  662   2.581   5.808  13.615  1.1686 -0.5897 -0.2047
    6DOPE    HB  663   2.481   5.874  13.753 -2.1828 -0.7711  0.8856
    6DOPE    C2  664   2.360   5.799  13.598 -0.8520  0.8732  0.5277
    6DOPE    HS  665   2.289   5.750  13.667 -1.3579  1.4292  0.4126
    6DOPE   O21  666   2.363   5.736  13.468 -0.8194  0.0124 -0.3175
    6DOPE   C21  667   2.249   5.688  13.422 -0.1071  0.1340 -0.6894
    6DOPE   O22  668   2.148   5.673  13.495 -0.6147 -0.1443  0.0171
    6DOPE   C22  669   2.266   5.648  13.275  0.4427 -0.2774  0.4206
    6DOPE   H2R  670   2.232   5.543  13.259 -1.3143 -0.1558  2.8540
    6DOPE   H2S  671   2.373   5.651  13.244  0.6178  2.4740  1.0531
    6DOPE    C3  672   2.322   5.944  13.588  0.4494 -0.2829 -0.3752
    6DOPE    HX  673   2.410   6.008  13.568  0.3509  0.8217  2.3275
    6DOPE    HY  674   2.292   5.970  13.692 -1.7881 -3.4720 -0.0613
    6DOPE   O31  675   2.216   5.976  13.495 -0.0370  0.6311  0.2266
    6DOPE   C31  676   2.088   5.959  13.535  0.3358 -0.0203  0.8373
    6DOPE   O32  677   2.057   5.941  13.654 -0.5058 -0.4956  0.2204
    6DOPE   C32  678   2.003   5.984  13.408 -0.2530 -0.7863 -0.3000
    6DOPE   H2X  679   1.973   6.091  13.419  1.4486 -0.0417 -2.3138
    6DOPE   H2Y  680   2.055   5.964  13.312 -0.2760 -0.6445 -0.3422
    6DOPE   C23  681   2.178   5.731  13.178 -0.3295 -0.4601  0.2592
    6DOPE   H3R  682   2.194   5.838  13.201 -1.4825 -0.6209  2.0302
    6DOPE   H3S  683   2.069   5.723  13.199 -1.3161  3.8655 -1.9779
    6DOPE   C24  684   2.210   5.692  13.035  0.1271 -0.1585  0.0267
    6DOPE   H4R  685   2.145   5.605  13.016  1.2036 -1.0653  0.4018
    6DOPE   H4S  686   2.319   5.674  13.017  0.5584  2.9424 -1.1892
    6DOPE   C25  687   2.189   5.800  12.932 -0.0710  0.3103  0.0555
    6DOPE   H5R  688   2.243   5.897  12.942  3.3761 -1.5332  1.2379
    6DOPE   H5S  689   2.081   5.821  12.947 -0.0884 -1.2457  2.5640
    6DOPE   C26  690   2.221   5.749  12.785  0.2833  0.6114  0.0783
    6DOPE   H6R  691   2.167   5.654  12.768 -0.7644  1.3530 -0.9067
    6DOPE   H6S  692   2.331   5.737  12.775  0.2554  1.0001 -0.7687
    6DOPE   C27  693   2.174   5.843  12.679 -0.3219 -0.2048  0.1988
    6DOPE   H7R  694   2.264   5.906  12.660 -0.8089 -0.1630 -2.3639
    6DOPE   H7S  695   2.091   5.904  12.722  0.7502  2.6930 -1.5428
    6DOPE   C28  696   2.135   5.776  12.548 -0.6900  0.7702  0.3170
    6DOPE   H8R  697   2.056   5.699  12.561 -1.8325  1.5546 -1.6213
    6DOPE   H8S  698   2.226   5.727  12.508 -1.4910 -0.3601 -0.1833
    6DOPE   C29  699   2.087   5.870  12.443 -0.1168 -0.0049 -0.4532
    6DOPE   H9R  700   2.022   5.947  12.487  0.7714  0.0538  0.8301
    6DOPE  C210  701   2.123   5.872  12.312  0.2448 -0.9222 -0.6637
    6DOPE  H10R  702   2.080   5.947  12.245  0.3649  1.4794  1.7756
    6DOPE  C211  703   2.213   5.771  12.241 -1.1229 -1.1724  0.5644
    6DOPE  H11R  704   2.252   5.689  12.305  0.7732  0.0730  1.1228
    6DOPE  H11S  705   2.302   5.825  12.202 -1.6117 -1.7544 -1.4337
    6DOPE  C212  706   2.150   5.699  12.120 -0.3064  0.5413  0.7405
    6DOPE  H12R  707   2.045   5.667  12.139  0.3930 -1.4613  1.5848
    6DOPE  H12S  708   2.205   5.602  12.119  0.8092  1.1428  1.5117
    6DOPE  C213  709   2.184   5.772  11.991  0.9070 -0.0121  0.3428
    6DOPE  H13R  710   2.291   5.759  11.966  0.1288 -1.5237 -2.7845
    6DOPE  H13S  711   2.158   5.880  11.994 -0.7078 -0.3270 -0.6779
    6DOPE  C214  712   2.098   5.707  11.871  0.0606  0.1315 -0.4295
    6DOPE  H14R  713   1.992   5.710  11.905  0.2317 -0.3517  0.1546
    6DOPE  H14S  714   2.132   5.605  11.846 -0.7337 -0.8071  1.9940
    6DOPE  C215  715   2.094   5.802  11.753  0.9868  0.0876  0.6481
    6DOPE  H15R  716   2.198   5.815  11.718  0.2452  1.7060 -1.1228
    6DOPE  H15S  717   2.067   5.904  11.787  0.5373  0.2691 -0.2270
    6DOPE  C216  718   1.996   5.735  11.651 -0.2067 -0.5562  0.4142
    6DOPE  H16R  719   1.889   5.717  11.677 -0.7033  1.5067  0.0041
    6DOPE  H16S  720   2.025   5.633  11.620  0.4172 -0.1727 -0.3014
    6DOPE  C217  721   1.997   5.830  11.529  0.0114 -0.0973  0.8979
    6DOPE  H17R  722   2.090   5.824  11.469 -0.3108 -2.0589  0.5408
    6DOPE  H17S  723   1.997   5.937  11.560 -1.3359 -0.4564  2.2424
    6DOPE  C218  724   1.890   5.797  11.427  0.2112 -0.5447 -0.6797
    6DOPE  H18R  725   1.802   5.786  11.494  1.2736  2.5213  1.4511
    6DOPE  H18S  726   1.905   5.698  11.379  0.4450 -0.1727 -1.3971
    6DOPE  H18T  727   1.879   5.878  11.352  0.3472 -0.8212 -0.9994
    6DOPE   C33  728   1.876   5.894  13.404  0.8507 -0.0906  0.3381
    6DOPE   H3X  729   1.803   5.941  13.474 -1.0383 -0.5986 -1.2187
    6DOPE   H3Y  730   1.897   5.789  13.433  0.9735 -0.4359 -0.9753
    6DOPE   C34  731   1.803   5.893  13.267 -0.1214 -0.1106 -0.9961
    6DOPE   H4X  732   1.882   5.864  13.193  1.0382 -1.9121  0.8528
    6DOPE   H4Y  733   1.724   5.815  13.262 -0.3221  0.0187  0.1408
    6DOPE   C35  734   1.763   6.036  13.231 -0.3358 -0.3678 -0.4146
    6DOPE   H5X  735   1.850   6.105  13.227  0.7467 -1.7169 -0.6892
    6DOPE   H5Y  736   1.703   6.077  13.315  1.2342 -0.5353  0.8362
    6DOPE   C36  737   1.686   6.040  13.099  0.0776  0.9139 -0.4158
    6DOPE   H6X  738   1.581   6.063  13.127  0.0320 -1.0582  1.3228
    6DOPE   H6Y  739   1.686   5.936  13.059  0.5581  0.9904 -0.6190
    6DOPE   C37  740   1.749   6.132  13.002  0.4229  0.2072 -0.7463
    6DOPE   H7X  741   1.760   6.226  13.060 -1.9152  0.3502 -0.4407
    6DOPE   H7Y  742   1.847   6.104  12.957 -1.0606 -1.7887 -3.0253
    6DOPE   C38  743   1.655   6.178  12.880 -0.2076  0.0772  0.3344
    6DOPE   H8X  744   1.561   6.210  12.931  0.1029  0.9033  0.4127
    6DOPE   H8Y  745   1.639   6.085  12.822 -0.7303 -0.0322  0.6519
    6DOPE   C39  746   1.727   6.271  12.788  0.5559 -0.4370  0.3220
    6DOPE   H9X  747   1.796   6.342  12.835  2.1390 -1.9188  0.3236
    6DOPE  C310  748   1.715   6.277  12.657  0.1459  0.3175  0.0174
    6DOPE  H10X  749   1.780   6.349  12.606  2.2036  0.1394  2.2219
    6DOPE  C311  750   1.619   6.192  12.567 -0.4474  0.0529  0.4295
    6DOPE  H11X  751   1.673   6.097  12.549 -0.7152 -0.0783  0.3121
    6DOPE  H11Y  752   1.528   6.162  12.623 -1.2229 -1.2155 -1.3989
    6DOPE  C312  753   1.596   6.270  12.435 -0.6876 -0.3618 -0.1670
    6DOPE  H12X  754   1.695   6.276  12.386 -1.0516 -0.4790 -0.9365
    6DOPE  H12Y  755   1.559   6.374  12.444 -0.1125 -0.0417 -1.3083
    6DOPE  C313  756   1.493   6.202  12.339  0.5406  0.5755  0.6900
    6DOPE  H13X  757   1.513   6.093  12.337 -1.0038  0.2674  0.6599
    6DOPE  H13Y  758   1.392   6.211  12.383 -0.2442 -0.7704 -0.7367
    6DOPE  C314  759   1.480   6.274  12.209 -0.0032  0.4689  0.4264
    6DOPE  H14X  760   1.520   6.375  12.234  0.6297 -0.1825  2.2070
    6DOPE  H14Y  761   1.376   6.282  12.170 -0.1182  1.2463  0.8626
    6DOPE  C315  762   1.549   6.206  12.092  0.1918 -0.1407 -0.5086
    6DOPE  H15X  763   1.496   6.109  12.076 -1.6821  0.4598  1.4875
    6DOPE  H15Y  764   1.652   6.179  12.124 -0.5423 -0.0763  2.1842
    6DOPE  C316  765   1.564   6.291  11.971  0.3128  0.4472 -0.3552
    6DOPE  H16X  766   1.585   6.396  12.003  1.3916  0.2428 -0.3409
    6DOPE  H16Y  767   1.471   6.280  11.911 -0.2443 -1.2901  0.7556
    6DOPE  C317  768   1.672   6.255  11.873  0.6896  0.4173 -0.7009
    6DOPE  H17X  769   1.768   6.278  11.924  0.2669  1.6365 -0.4171
    6DOPE  H17Y  770   1.672   6.149  11.839 -2.2341  0.7589 -2.1308
    6DOPE  C318  771   1.665   6.337  11.745 -0.7637  0.5356  0.0265
    6DOPE  H18X  772   1.658   6.445  11.769 -0.6132  0.2900  1.2729
    6DOPE  H18Y  773   1.760   6.325  11.689 -1.1788 -1.3368 -0.3548
    6DOPE  H18Z  774   1.577   6.306  11.684 -0.0894  0.7666 -1.0961
    7DOPE     N  775   4.433   6.422  14.052 -0.0533  0.6534  0.8304
    7DOPE   HN1  776   4.475   6.518  14.048  0.9351  0.1993 -0.2683
    7DOPE   HN2  777   4.337   6.423  14.091 -0.2039  2.6103  0.5048
    7DOPE   HN3  778   4.484   6.360  14.119  0.0702  1.2141  1.2693
    7DOPE   C12  779   4.450   6.364  13.918  0.8289  0.6409  1.2352
    7DOPE  H12A  780   4.393   6.418  13.839  1.2344  1.6904  1.6471
    7DOPE  H12B  781   4.420   6.257  13.923 -0.6915  0.9976  0.4366
    7DOPE   C11  782   4.605   6.371  13.883 -0.1594 -0.0459  0.3644
    7DOPE  H11A  783   4.625   6.324  13.784 -0.4467  0.3952  0.0932
    7DOPE  H11B  784   4.666   6.313  13.956  0.1842 -0.5334 -0.2992
    7DOPE     P  785   4.672   6.582  13.739  0.3311  0.3799  0.4190
    7DOPE   O13  786   4.756   6.700  13.772  0.0094 -0.1209  0.5107
    7DOPE   O14  787   4.528   6.602  13.699  0.2109  0.0761 -0.8629
    7DOPE   O11  788   4.745   6.473  13.641  0.5662 -0.1940  0.1181
    7DOPE   O12  789   4.660   6.503  13.871  0.2408 -0.1455 -0.3466
    7DOPE    C1  790   4.891   6.470  13.640 -0.3285  0.5600 -0.8729
    7DOPE    HA  791   4.916   6.364  13.663 -2.0007  0.3387  0.0820
    7DOPE    HB  792   4.942   6.538  13.712 -2.0328  0.9719 -0.0084
    7DOPE    C2  793   4.950   6.507  13.496 -0.3449  0.2533  0.4536
    7DOPE    HS  794   4.907   6.607  13.471  1.2783  0.4200 -1.9962
    7DOPE   O21  795   4.902   6.410  13.403  0.0516  0.2262  0.1668
    7DOPE   C21  796   4.878   6.445  13.275  0.5450 -0.1630 -0.1935
    7DOPE   O22  797   4.914   6.549  13.223 -0.1377  0.6774 -0.1430
    7DOPE   C22  798   4.816   6.327  13.203  0.2192 -0.2620  0.0137
    7DOPE   H2R  799   4.755   6.276  13.280 -1.2524 -0.3292 -1.1559
    7DOPE   H2S  800   4.894   6.256  13.170 -1.6583 -1.4747 -2.1034
    7DOPE    C3  801   5.101   6.493  13.492  0.4012  0.1342  0.0772
    7DOPE    HX  802   5.123   6.398  13.546  1.3997 -0.6916 -1.7105
    7DOPE    HY  803   5.158   6.568  13.551  0.6102 -1.1534  1.5870
    7DOPE   O31  804   5.154   6.498  13.356  0.1745 -0.1495 -0.1958
    7DOPE   C31  805   5.245   6.415  13.318  0.2862 -0.1191 -0.4550
    7DOPE   O32  806   5.304   6.331  13.389 -0.0679  0.1787 -0.7340
    7DOPE   C32  807   5.264   6.432  13.169 -0.8403 -0.1171  0.0382
    7DOPE   H2X  808   5.166   6.412  13.121  0.8416 -0.3220 -3.6150
    7DOPE   H2Y  809   5.303   6.532  13.141  0.6620 -0.7581 -0.2224
    7DOPE   C23  810   4.720   6.379  13.096  0.2481  0.2327  0.2697
    7DOPE   H3R  811   4.659   6.464  13.134  0.3069  0.2697  0.2818
    7DOPE   H3S  812   4.662   6.288  13.068  1.7258 -0.6980  0.1166
    7DOPE   C24  813   4.787   6.420  12.968 -0.3272  0.0413 -0.6096
    7DOPE   H4R  814   4.841   6.331  12.931 -0.1824 -0.0128 -0.2774
    7DOPE   H4S  815   4.861   6.498  12.996 -2.5295  1.4637  1.6791
    7DOPE   C25  816   4.691   6.472  12.862 -0.4475  0.4447  0.7110
    7DOPE   H5R  817   4.627   6.552  12.904 -3.0606 -1.7794  1.2162
    7DOPE   H5S  818   4.638   6.391  12.806  1.0235  0.7253 -1.2184
    7DOPE   C26  819   4.779   6.526  12.746 -0.4693  0.3225 -0.1427
    7DOPE   H6R  820   4.848   6.446  12.713 -0.3245  0.9411 -1.3908
    7DOPE   H6S  821   4.837   6.616  12.777  1.5920 -2.0357  3.7349
    7DOPE   C27  822   4.683   6.585  12.638  0.3376  0.4967  0.1942
    7DOPE   H7R  823   4.618   6.658  12.691 -1.2921 -1.1034  0.5293
    7DOPE   H7S  824   4.614   6.506  12.600  2.1773 -1.3143  0.4855
    7DOPE   C28  825   4.740   6.661  12.516  0.0478 -0.0680  0.3027
    7DOPE   H8R  826   4.822   6.732  12.541 -0.4448  1.1310 -1.3138
    7DOPE   H8S  827   4.661   6.733  12.485 -0.1714 -1.3815 -2.4610
    7DOPE   C29  828   4.782   6.576  12.397  0.7958  0.2841  0.4101
    7DOPE   H9R  829   4.817   6.473  12.413  0.4505 -0.1185 -1.2201
    7DOPE  C210  830   4.783   6.623  12.271  0.4645 -0.5418  0.2818
    7DOPE  H10R  831   4.820   6.558  12.190  1.3110 -2.9910  2.4863
    7DOPE  C211  832   4.756   6.763  12.243 -0.0053  0.2722  0.4006
    7DOPE  H11R  833   4.834   6.795  12.171  2.3050 -2.0809  1.6870
    7DOPE  H11S  834   4.778   6.836  12.323  1.2090  2.7463 -2.0061
    7DOPE  C212  835   4.608   6.788  12.206  0.3440 -0.2623 -0.3996
    7DOPE  H12R  836   4.577   6.893  12.227 -0.2070 -0.3217 -0.9008
    7DOPE  H12S  837   4.548   6.724  12.274  0.1272  1.4548  1.1054
    7DOPE  C213  838   4.573   6.764  12.059 -0.6764 -0.1461 -0.6091
    7DOPE  H13R  839   4.463   6.750  12.049 -0.4556 -2.1516 -0.7587
    7DOPE  H13S  840   4.622   6.671  12.023  0.8275  0.6235 -0.6287
    7DOPE  C214  841   4.604   6.876  11.964  0.0149  0.1271  0.2793
    7DOPE  H14R  842   4.713   6.896  11.960  0.5616 -2.6485 -0.9508
    7DOPE  H14S  843   4.544   6.966  11.988 -1.5123 -1.0935  1.2486
    7DOPE  C215  844   4.563   6.842  11.813 -0.0680  0.4445 -0.0009
    7DOPE  H15R  845   4.455   6.817  11.823 -0.4621  2.1498  0.1750
    7DOPE  H15S  846   4.627   6.753  11.792 -0.9978 -0.7228  1.8156
    7DOPE  C216  847   4.595   6.958  11.722  0.9575  0.8883 -0.0018
    7DOPE  H16R  848   4.699   6.942  11.686  0.2698 -1.6631 -1.0927
    7DOPE  H16S  849   4.589   7.056  11.773 -1.8783  1.6745 -1.6608
    7DOPE  C217  850   4.507   6.961  11.589  0.2027 -0.4943 -0.6014
    7DOPE  H17R  851   4.543   7.046  11.526  1.0919 -1.2479 -1.1350
    7DOPE  H17S  852   4.402   6.972  11.623 -0.0574 -1.1889 -1.1682
    7DOPE  C218  853   4.530   6.841  11.502 -0.0050 -0.4764 -0.6073
    7DOPE  H18R  854   4.636   6.838  11.467 -0.1541  0.7502 -1.2291
    7DOPE  H18S  855   4.471   6.857  11.409  0.8493  0.9218 -0.9360
    7DOPE  H18T  856   4.511   6.739  11.542  1.1447 -1.1553 -1.6850
    7DOPE   C33  857   5.370   6.340  13.108 -1.1815 -0.0063  0.4387
    7DOPE   H3X  858   5.330   6.237  13.116 -0.5988 -0.1631  1.5257
    7DOPE   H3Y  859   5.459   6.347  13.174 -1.0388  1.3503  0.1406
    7DOPE   C34  860   5.402   6.380  12.967  0.4953 -0.2443  0.7259
    7DOPE   H4X  861   5.461   6.473  12.978  0.6159  0.2419 -2.8049
    7DOPE   H4Y  862   5.478   6.314  12.920  0.9007  1.5988 -1.3753
    7DOPE   C35  863   5.278   6.416  12.877 -0.1686  0.2386 -0.8076
    7DOPE   H5X  864   5.208   6.491  12.918 -0.7477 -0.8280  0.2280
    7DOPE   H5Y  865   5.213   6.326  12.878 -0.4725  0.3937  2.2933
    7DOPE   C36  866   5.326   6.453  12.732  0.3183  0.9475  0.3149
    7DOPE   H6X  867   5.394   6.378  12.686 -0.7949 -0.2855  0.6330
    7DOPE   H6Y  868   5.367   6.556  12.742  0.8768  0.5791  2.4326
    7DOPE   C37  869   5.196   6.482  12.649 -0.2068 -0.6400  0.0765
    7DOPE   H7X  870   5.129   6.393  12.651 -0.8405 -0.2063 -1.1799
    7DOPE   H7Y  871   5.140   6.563  12.700 -2.7494 -1.4283 -1.3002
    7DOPE   C38  872   5.212   6.538  12.504 -0.2609  0.8241  0.0426
    7DOPE   H8X  873   5.256   6.640  12.498  1.4339  0.1477  0.1951
    7DOPE   H8Y  874   5.111   6.557  12.463 -0.1618  0.7522 -0.2376
    7DOPE   C39  875   5.289   6.439  12.421 -0.0197 -0.0948 -0.7982
    7DOPE   H9X  876   5.287   6.340  12.469  1.7641  0.0171 -0.4213
    7DOPE  C310  877   5.336   6.448  12.297 -0.1878  0.2370 -0.1145
    7DOPE  H10X  878   5.378   6.356  12.255 -0.9021 -0.3050  0.3380
    7DOPE  C311  879   5.333   6.575  12.215 -0.1350  0.9577 -0.2762
    7DOPE  H11X  880   5.270   6.648  12.271 -0.4571 -0.2877  1.0448
    7DOPE  H11Y  881   5.431   6.625  12.203  1.0073 -1.3647 -1.0411
    7DOPE  C312  882   5.273   6.564  12.076 -0.0746 -0.5121 -0.0411
    7DOPE  H12X  883   5.248   6.668  12.044 -1.0440 -0.9115 -0.6267
    7DOPE  H12Y  884   5.181   6.502  12.075  0.5888 -1.5700  1.6074
    7DOPE  C313  885   5.375   6.523  11.975 -0.6857 -0.8613 -0.4213
    7DOPE  H13X  886   5.475   6.572  11.979  1.0966 -4.2567  0.3693
    7DOPE  H13Y  887   5.403   6.417  11.991  0.0002 -0.8759 -1.6004
    7DOPE  C314  888   5.324   6.532  11.831  0.4944 -0.1045  1.0404
    7DOPE  H14X  889   5.306   6.637  11.798  0.6557 -0.7789 -1.4340
    7DOPE  H14Y  890   5.226   6.480  11.833  0.0821  0.6412  0.8355
    7DOPE  C315  891   5.429   6.474  11.741  0.2504  0.1069  0.7501
    7DOPE  H15X  892   5.472   6.373  11.761 -2.5105 -1.5962 -1.2241
    7DOPE  H15Y  893   5.516   6.542  11.731 -0.1501  0.3302 -1.7806
    7DOPE  C316  894   5.377   6.470  11.593 -0.1081  0.1006 -0.6387
    7DOPE  H16X  895   5.360   6.577  11.569 -0.4075  0.1936 -0.0371
    7DOPE  H16Y  896   5.279   6.423  11.573 -0.0078 -0.9931  1.1659
    7DOPE  C317  897   5.491   6.429  11.497 -0.1429  0.4215  0.1902
    7DOPE  H17X  898   5.582   6.480  11.536 -0.7633  0.3282  1.8465
    7DOPE  H17Y  899   5.505   6.319  11.504  0.5086  0.5416  0.8798
    7DOPE  C318  900   5.464   6.457  11.352 -0.1161  0.4165  0.2533
    7DOPE  H18X  901   5.461   6.568  11.347  1.5268  0.4440 -0.6142
    7DOPE  H18Y  902   5.545   6.421  11.286 -0.4333  0.5432 -0.2118
    7DOPE  H18Z  903   5.360   6.428  11.325  0.1206 -0.5272  0.3054
    8DOPE     N  904   0.727   1.379  14.280  0.7208  0.8188 -0.3137
    8DOPE   HN1  905   0.759   1.283  14.300  0.6903  0.4180 -2.0033
    8DOPE   HN2  906   0.811   1.440  14.284 -0.1385  1.9588  2.5545
    8DOPE   HN3  907   0.659   1.414  14.351 -3.5195 -1.9052 -2.5627
    8DOPE   C12  908   0.673   1.416  14.143  0.8000 -0.0678 -0.0290
    8DOPE  H12A  909   0.620   1.514  14.145  0.2028 -0.3191 -1.7663
    8DOPE  H12B  910   0.598   1.343  14.107  1.5027 -0.3803 -0.9056
    8DOPE   C11  911   0.784   1.424  14.036 -0.0251 -0.3826 -0.2298
    8DOPE  H11A  912   0.843   1.516  14.049 -1.7885  1.0767 -1.8874
    8DOPE  H11B  913   0.722   1.434  13.944  1.6761  0.6721 -1.3013
    8DOPE     P  914   0.978   1.293  13.916  0.0760 -0.2911 -0.0224
    8DOPE   O13  915   1.013   1.149  13.897  0.1376 -0.3646 -0.3847
    8DOPE   O14  916   1.094   1.384  13.949  0.5717 -0.0646 -0.0706
    8DOPE   O11  917   0.902   1.354  13.784  0.4138  0.2354 -0.1558
    8DOPE   O12  918   0.858   1.307  14.027  0.1264  0.2812 -0.8665
    8DOPE    C1  919   0.795   1.285  13.713 -0.2608 -0.4465  0.2696
    8DOPE    HA  920   0.703   1.296  13.774  0.8973 -0.7861  2.1460
    8DOPE    HB  921   0.798   1.175  13.720 -2.1615 -0.4984  0.9024
    8DOPE    C2  922   0.775   1.351  13.571 -0.2208 -0.0963 -0.2748
    8DOPE    HS  923   0.672   1.327  13.535 -0.2851 -0.8518  0.3991
    8DOPE   O21  924   0.873   1.317  13.478  0.0163 -0.1675 -0.0130
    8DOPE   C21  925   0.851   1.192  13.427  0.0222 -0.1809 -0.2265
    8DOPE   O22  926   0.750   1.125  13.450  0.1950  0.3421 -0.5303
    8DOPE   C22  927   0.968   1.134  13.360 -0.2244  0.5594  0.0499
    8DOPE   H2R  928   0.953   1.024  13.357 -0.6458  0.6346 -1.1233
    8DOPE   H2S  929   1.053   1.142  13.431 -1.3993 -0.5436  1.6619
    8DOPE    C3  930   0.771   1.505  13.581 -0.0057 -0.0954  0.3189
    8DOPE    HX  931   0.863   1.532  13.636 -0.4813  0.4750  0.8372
    8DOPE    HY  932   0.689   1.540  13.646 -0.3089 -0.6872  0.2652
    8DOPE   O31  933   0.784   1.575  13.454 -0.2852  0.1070  0.1237
    8DOPE   C31  934   0.656   1.585  13.407  0.5103 -0.3417  0.6188
    8DOPE   O32  935   0.557   1.559  13.466  0.9748  0.3112  0.1850
    8DOPE   C32  936   0.673   1.645  13.266  0.1523 -0.6149 -0.2495
    8DOPE   H2X  937   0.662   1.754  13.283 -0.9132 -0.6037 -0.9141
    8DOPE   H2Y  938   0.779   1.624  13.242  0.5032 -1.1822  1.6738
    8DOPE   C23  939   0.996   1.177  13.208 -0.0716 -0.3138 -0.8432
    8DOPE   H3R  940   1.078   1.109  13.178  0.3083 -0.4333  0.4327
    8DOPE   H3S  941   1.040   1.278  13.204 -1.4924  0.4782  1.4782
    8DOPE   C24  942   0.877   1.152  13.119 -0.3894 -0.6449  0.0163
    8DOPE   H4R  943   0.801   1.231  13.138  1.1028  0.7603  0.3043
    8DOPE   H4S  944   0.842   1.048  13.138  2.6923 -1.7300  0.2457
    8DOPE   C25  945   0.921   1.169  12.971  0.1911 -0.1771  0.6432
    8DOPE   H5R  946   1.008   1.102  12.958  0.3319  0.2665 -0.8809
    8DOPE   H5S  947   0.953   1.275  12.960  0.0152  0.0550  2.2094
    8DOPE   C26  948   0.805   1.143  12.871 -0.5663 -0.1574 -0.8558
    8DOPE   H6R  949   0.740   1.233  12.872  0.4269  0.6051 -2.0000
    8DOPE   H6S  950   0.742   1.056  12.898  0.0609 -0.2914  0.2339
    8DOPE   C27  951   0.872   1.123  12.727  0.3636 -0.1724 -0.2282
    8DOPE   H7R  952   0.923   1.025  12.730 -0.2801 -0.5310 -0.7686
    8DOPE   H7S  953   0.949   1.202  12.717  0.6977  0.1401  3.2609
    8DOPE   C28  954   0.771   1.133  12.611 -0.2419 -0.3510 -0.2708
    8DOPE   H8R  955   0.833   1.135  12.519  1.0474 -1.4819  0.5256
    8DOPE   H8S  956   0.723   1.233  12.623 -0.2957 -0.2770 -1.0167
    8DOPE   C29  957   0.674   1.019  12.613 -0.1792 -0.7360 -0.4122
    8DOPE   H9R  958   0.623   0.987  12.705 -1.1717  0.7833 -0.3862
    8DOPE  C210  959   0.643   0.957  12.497  0.3901  0.5125 -0.0071
    8DOPE  H10R  960   0.573   0.873  12.501 -0.5542  1.2089 -1.4090
    8DOPE  C211  961   0.686   0.990  12.352  0.2418  0.7467 -0.7407
    8DOPE  H11R  962   0.780   0.937  12.326 -1.3702 -2.1335 -1.1204
    8DOPE  H11S  963   0.703   1.100  12.345  0.6390  0.6695 -1.0265
    8DOPE  C212  964   0.585   0.934  12.245 -0.0003 -0.0169 -0.3930
    8DOPE  H12R  965   0.490   0.989  12.265  1.6835  2.7795  0.4621
    8DOPE  H12S  966   0.567   0.827  12.268 -1.7625  0.1663 -0.7420
    8DOPE  C213  967   0.633   0.952  12.102 -0.1433 -0.5726 -0.3231
    8DOPE  H13R  968   0.740   0.922  12.095 -0.1220 -0.3040 -1.2808
    8DOPE  H13S  969   0.632   1.057  12.066  0.2429 -1.1501 -2.1196
    8DOPE  C214  970   0.539   0.876  12.005 -0.3328  0.1521 -0.1360
    8DOPE  H14R  971   0.433   0.908  12.019 -0.6091 -0.8609  0.1430
    8DOPE  H14S  972   0.548   0.768  12.027 -0.9986  0.3831  1.3910
    8DOPE  C215  973   0.574   0.904  11.860 -0.1769  0.0774 -0.0187
    8DOPE  H15R  974   0.681   0.873  11.865  0.0256  0.7119 -0.3571
    8DOPE  H15S  975   0.570   1.014  11.845 -0.4643 -0.0483 -0.8747
    8DOPE  C216  976   0.476   0.838  11.759  0.1986 -1.0768  0.1588
    8DOPE  H16R  977   0.478   0.903  11.668 -0.0392  1.9443  2.1518
    8DOPE  H16S  978   0.372   0.841  11.799 -0.0466  2.3478 -0.4182
    8DOPE  C217  979   0.511   0.695  11.712  0.5893 -0.0147  0.0793
    8DOPE  H17R  980   0.424   0.644  11.666 -0.3313  0.0297  1.7041
    8DOPE  H17S  981   0.542   0.639  11.803  1.8956  1.9021  0.8839
    8DOPE  C218  982   0.621   0.688  11.604  0.0611 -1.0683 -0.3788
    8DOPE  H18R  983   0.714   0.706  11.663 -1.7449 -0.1046  2.3583
    8DOPE  H18S  984   0.619   0.764  11.523  0.6484 -0.0340  0.5475
    8DOPE  H18T  985   0.636   0.586  11.562 -0.3857 -1.0190 -0.6591
    8DOPE   C33  986   0.579   1.587  13.156  0.1623 -0.3196  0.6056
    8DOPE   H3X  987   0.486   1.646  13.173 -0.7728 -1.8064  0.8791
    8DOPE   H3Y  988   0.548   1.481  13.170 -0.3200 -0.4488 -1.2394
    8DOPE   C34  989   0.632   1.611  13.013 -0.3144 -0.6559  0.3769
    8DOPE   H4X  990   0.540   1.602  12.951  1.1233  0.2180 -2.0136
    8DOPE   H4Y  991   0.660   1.719  13.006 -2.3506  0.1896  3.3292
    8DOPE   C35  992   0.727   1.518  12.960  0.0561  0.2189 -0.3197
    8DOPE   H5X  993   0.689   1.416  12.983  0.2279  0.0441 -0.8222
    8DOPE   H5Y  994   0.828   1.523  13.006 -0.6523  2.0116  1.1582
    8DOPE   C36  995   0.738   1.522  12.808  0.0325 -0.2932  0.2908
    8DOPE   H6X  996   0.636   1.517  12.764 -0.3926 -0.2780  1.2622
    8DOPE   H6Y  997   0.796   1.432  12.778  0.1406  0.2303 -1.1775
    8DOPE   C37  998   0.811   1.647  12.754 -0.7616  0.1165 -0.4434
    8DOPE   H7X  999   0.760   1.738  12.791  1.8543  1.2457  0.6147
    8DOPE   H7Y 1000   0.912   1.651  12.799 -0.9688 -0.2032  0.0607
    8DOPE   C38 1001   0.823   1.646  12.603  0.1807  0.0452  0.0827
    8DOPE   H8X 1002   0.848   1.749  12.567 -2.4319 -0.0175 -2.1666
    8DOPE   H8Y 1003   0.724   1.618  12.562  1.1174 -1.6596 -1.1411
    8DOPE   C39 1004   0.920   1.547  12.550 -0.0599 -0.1278  0.8673
    8DOPE   H9X 1005   1.000   1.508  12.615  1.7551 -0.3145 -1.3223
    8DOPE  C310 1006   0.909   1.473  12.438  0.3179 -0.1586  0.6819
    8DOPE  H10X 1007   0.988   1.401  12.412  0.9203  0.5454  0.5136
    8DOPE  C311 1008   0.801   1.488  12.332 -0.4449 -0.0150 -0.4165
    8DOPE  H11X 1009   0.713   1.430  12.368  0.0525  0.3969  1.5832
    8DOPE  H11Y 1010   0.772   1.594  12.314 -0.6535 -0.4434 -3.0902
    8DOPE  C312 1011   0.835   1.439  12.188  0.2510 -0.3155 -0.2826
    8DOPE  H12X 1012   0.849   1.329  12.196  1.0169 -0.1473  0.9614
    8DOPE  H12Y 1013   0.925   1.496  12.156  0.9721 -0.3376  1.6045
    8DOPE  C313 1014   0.715   1.458  12.090  0.3117 -0.0455  0.0515
    8DOPE  H13X 1015   0.632   1.398  12.133 -0.8258  1.4765  0.0536
    8DOPE  H13Y 1016   0.694   1.567  12.091 -0.4241 -0.1825  0.9569
    8DOPE  C314 1017   0.746   1.422  11.944  0.1375 -0.5540  0.4941
    8DOPE  H14X 1018   0.759   1.312  11.933 -1.0561 -0.7527  0.9431
    8DOPE  H14Y 1019   0.842   1.471  11.914 -1.0586  1.5467 -0.1251
    8DOPE  C315 1020   0.643   1.461  11.843 -0.4401 -0.3878 -0.0401
    8DOPE  H15X 1021   0.639   1.572  11.849  0.7109 -0.3808  0.9661
    8DOPE  H15Y 1022   0.540   1.443  11.882 -0.3821  1.3899  1.0882
    8DOPE  C316 1023   0.649   1.404  11.706 -0.5951  0.3366  0.4337
    8DOPE  H16X 1024   0.557   1.426  11.647 -1.2053 -1.1539  0.7695
    8DOPE  H16Y 1025   0.639   1.294  11.714 -2.8276  0.3804 -0.8611
    8DOPE  C317 1026   0.787   1.432  11.636  0.0301 -0.5216 -0.0444
    8DOPE  H17X 1027   0.817   1.530  11.678  1.9411 -1.3025  0.5218
    8DOPE  H17Y 1028   0.861   1.359  11.675 -0.3953 -1.5994 -1.2053
    8DOPE  C318 1029   0.795   1.433  11.489  0.6874  0.0258  0.7879
    8DOPE  H18X 1030   0.898   1.445  11.450  0.7312  0.3358  0.9938
    8DOPE  H18Y 1031   0.723   1.501  11.438 -0.5208 -2.7142 -1.4176
    8DOPE  H18Z 1032   0.750   1.336  11.458  1.1568 -0.0175  0.2234
    9DOPE     N 1033   2.436   5.175  13.622 -0.5760  0.3312 -0.0589
    9DOPE   HN1 1034   2.466   5.096  13.683 -0.2653  0.5251  0.0444
    9DOPE   HN2 1035   2.368   5.135  13.554 -1.0976 -1.7899  1.5942
    9DOPE   HN3 1036   2.520   5.205  13.568 -1.2072  2.1634 -0.1004
    9DOPE   C12 1037   2.368   5.295  13.689  0.2739  0.1942  0.2920
    9DOPE  H12A 1038   2.443   5.352  13.748  2.2926  1.5688 -3.3109
    9DOPE  H12B 1039   2.287   5.256  13.755  0.1626 -2.2330 -1.1631
    9DOPE   C11 1040   2.320   5.392  13.582 -0.1859  0.1303  0.0494
    9DOPE  H11A 1041   2.404   5.428  13.519  0.2615 -0.7411  0.1329
    9DOPE  H11B 1042   2.270   5.483  13.624 -0.3244 -0.1522  0.5072
    9DOPE     P 1043   2.105   5.255  13.510 -0.3050 -0.4366  0.3318
    9DOPE   O13 1044   2.020   5.339  13.603 -0.5719 -0.1500 -0.0471
    9DOPE   O14 1045   2.145   5.118  13.546  0.1982  0.3778  0.9905
    9DOPE   O11 1046   2.032   5.263  13.369 -0.2555  0.3265 -0.2149
    9DOPE   O12 1047   2.239   5.329  13.484 -0.1208  0.0832 -0.3196
    9DOPE    C1 1048   1.979   5.393  13.323  0.5057  0.0571 -0.2504
    9DOPE    HA 1049   2.005   5.404  13.216 -0.9540  0.3867 -0.5997
    9DOPE    HB 1050   2.023   5.475  13.383 -0.1693 -1.6435  2.8388
    9DOPE    C2 1051   1.822   5.404  13.346 -0.3978  0.2565 -0.0655
    9DOPE    HS 1052   1.796   5.401  13.454 -0.6646  1.7265 -0.0677
    9DOPE   O21 1053   1.762   5.295  13.264 -0.4282  0.5725 -0.1982
    9DOPE   C21 1054   1.728   5.191  13.338  0.7067 -0.7866  0.1676
    9DOPE   O22 1055   1.729   5.187  13.461 -0.0620  0.3922  0.0413
    9DOPE   C22 1056   1.681   5.075  13.257  0.2391  0.2217  0.0097
    9DOPE   H2R 1057   1.585   5.098  13.207  0.2992 -0.8723 -0.6456
    9DOPE   H2S 1058   1.670   4.997  13.335  0.9728 -1.2086 -1.2653
    9DOPE    C3 1059   1.751   5.529  13.294 -0.4044 -0.6537  0.0542
    9DOPE    HX 1060   1.798   5.607  13.358  0.1596 -1.3612  0.5113
    9DOPE    HY 1061   1.640   5.524  13.299 -0.6347  1.6444 -1.3950
    9DOPE   O31 1062   1.794   5.546  13.157  0.1006 -0.2772  0.2609
    9DOPE   C31 1063   1.720   5.509  13.055  0.4813  0.1502  0.4313
    9DOPE   O32 1064   1.608   5.464  13.065  0.1834  0.0457  0.3013
    9DOPE   C32 1065   1.792   5.526  12.919 -0.2988 -0.6069 -0.5631
    9DOPE   H2X 1066   1.865   5.608  12.936 -1.1074  0.0479 -0.2185
    9DOPE   H2Y 1067   1.849   5.432  12.897  2.4820  0.5564  1.0731
    9DOPE   C23 1068   1.770   5.019  13.139 -0.2434 -0.1322 -0.3564
    9DOPE   H3R 1069   1.733   4.917  13.117  1.1919 -1.1215  1.4982
    9DOPE   H3S 1070   1.873   5.006  13.179  0.2401  0.0798 -1.4770
    9DOPE   C24 1071   1.773   5.093  13.008 -0.4652 -0.1808  0.2344
    9DOPE   H4R 1072   1.801   5.198  13.030  0.3936 -0.6301  1.3423
    9DOPE   H4S 1073   1.672   5.087  12.962  0.1242 -0.0147 -1.1141
    9DOPE   C25 1074   1.882   5.038  12.918  0.1659  0.6184  0.0797
    9DOPE   H5R 1075   1.848   4.933  12.910  1.0260  0.1864  1.8301
    9DOPE   H5S 1076   1.985   5.027  12.958  0.6642 -0.0641 -1.3209
    9DOPE   C26 1077   1.893   5.112  12.778 -0.3048  0.5542 -0.7063
    9DOPE   H6R 1078   1.939   5.031  12.718 -0.6336 -1.2828  1.3711
    9DOPE   H6S 1079   1.952   5.206  12.788 -0.8246  0.8578 -0.4295
    9DOPE   C27 1080   1.756   5.148  12.722 -0.6985  0.0021  1.0891
    9DOPE   H7R 1081   1.712   5.228  12.786  0.3141  1.4621  0.0179
    9DOPE   H7S 1082   1.689   5.060  12.719  0.7376 -1.1197 -1.1627
    9DOPE   C28 1083   1.758   5.208  12.579 -0.2004 -0.3114  0.2554
    9DOPE   H8R 1084   1.835   5.289  12.579 -0.0440 -0.3672 -2.5999
    9DOPE   H8S 1085   1.667   5.267  12.558  1.3285  1.3606 -2.2261
    9DOPE   C29 1086   1.787   5.115  12.462 -0.1239 -0.4929  0.0474
    9DOPE   H9R 1087   1.821   5.016  12.493  1.2757 -0.6181 -1.6904
    9DOPE  C210 1088   1.807   5.143  12.331  0.1417 -0.5556  0.1924
    9DOPE  H10R 1089   1.845   5.067  12.260 -0.0170 -2.0489  1.6553
    9DOPE  C211 1090   1.763   5.274  12.267 -0.4424  0.0640 -0.6795
    9DOPE  H11R 1091   1.809   5.361  12.318  1.0893 -1.5131  0.7754
    9DOPE  H11S 1092   1.653   5.267  12.279 -0.3688  1.4886  1.4291
    9DOPE  C212 1093   1.784   5.295  12.115  0.5395  0.0184 -0.6012
    9DOPE  H12R 1094   1.700   5.358  12.078  0.1264 -0.4254 -0.4446
    9DOPE  H12S 1095   1.775   5.204  12.051  0.5005 -0.6902  0.3811
    9DOPE  C213 1096   1.912   5.362  12.071 -0.0179 -0.0031 -0.2325
    9DOPE  H13R 1097   2.002   5.316  12.116 -0.8096 -1.6446 -0.2351
    9DOPE  H13S 1098   1.898   5.468  12.098 -2.1892 -0.6106  1.4001
    9DOPE  C214 1099   1.923   5.338  11.923  0.7224 -0.1235  0.1901
    9DOPE  H14R 1100   1.918   5.229  11.905  0.2056  0.1873 -1.8362
    9DOPE  H14S 1101   2.026   5.368  11.896  0.7720  0.7150  1.2520
    9DOPE  C215 1102   1.836   5.424  11.825  0.3482 -0.0615  0.2115
    9DOPE  H15R 1103   1.873   5.528  11.815  0.0665 -0.0313 -0.6138
    9DOPE  H15S 1104   1.733   5.431  11.868 -0.3863 -0.8970 -1.3246
    9DOPE  C216 1105   1.835   5.366  11.683  0.2227  0.4241  0.7516
    9DOPE  H16R 1106   1.782   5.270  11.698  0.3128  0.2563  0.0492
    9DOPE  H16S 1107   1.942   5.355  11.655 -0.2917 -0.4517 -1.0403
    9DOPE  C217 1108   1.768   5.457  11.581  1.1762  0.0144  0.5590
    9DOPE  H17R 1109   1.791   5.418  11.479 -0.5754 -0.6144  0.3688
    9DOPE  H17S 1110   1.802   5.562  11.584 -0.3636  0.5289  0.5090
    9DOPE  C218 1111   1.615   5.462  11.595  0.1023  0.2279 -0.0860
    9DOPE  H18R 1112   1.585   5.492  11.698  1.5960 -3.4609  1.6297
    9DOPE  H18S 1113   1.567   5.363  11.582 -0.3812  0.4728 -0.1728
    9DOPE  H18T 1114   1.571   5.519  11.511  0.8559 -1.4519 -1.7000
    9DOPE   C33 1115   1.691   5.549  12.799  0.2799  0.7968 -1.2023
    9DOPE   H3X 1116   1.608   5.618  12.825  0.2656  0.1089  0.7533
    9DOPE   H3Y 1117   1.652   5.446  12.783  0.5182  0.0603  2.0570
    9DOPE   C34 1118   1.761   5.615  12.685  0.1716  0.1434 -0.5202
    9DOPE   H4X 1119   1.829   5.696  12.718  1.7962 -1.6409  0.7887
    9DOPE   H4Y 1120   1.844   5.546  12.656  0.7873  0.6960 -0.0995
    9DOPE   C35 1121   1.676   5.671  12.568 -0.2778  0.5414 -0.2049
    9DOPE   H5X 1122   1.618   5.755  12.612 -0.1642  0.6944 -0.3458
    9DOPE   H5Y 1123   1.608   5.594  12.525  1.8545 -2.2665  1.1602
    9DOPE   C36 1124   1.754   5.741  12.455  0.3402  0.0451 -0.4174
    9DOPE   H6X 1125   1.816   5.670  12.396 -0.8671 -0.5055 -1.0581
    9DOPE   H6Y 1126   1.818   5.817  12.506 -1.6432 -0.0253  2.3910
    9DOPE   C37 1127   1.666   5.822  12.359  0.7266 -0.0813 -1.2634
    9DOPE   H7X 1128   1.603   5.891  12.419  0.6549 -0.4861 -0.8690
    9DOPE   H7Y 1129   1.737   5.885  12.301  2.3269 -1.1913 -0.5785
    9DOPE   C38 1130   1.567   5.741  12.271 -0.6414  0.2271  0.1100
    9DOPE   H8X 1131   1.496   5.798  12.208 -0.9495  0.2309  0.4520
    9DOPE   H8Y 1132   1.495   5.686  12.336  0.1221 -1.9762 -0.8082
    9DOPE   C39 1133   1.650   5.649  12.186  0.7055  0.2968 -0.3170
    9DOPE   H9X 1134   1.654   5.545  12.220 -0.3265  0.4501  0.3244
    9DOPE  C310 1135   1.705   5.684  12.071  0.1103 -0.5132  0.1891
    9DOPE  H10X 1136   1.779   5.622  12.018  0.3658 -1.6724  1.8368
    9DOPE  C311 1137   1.689   5.815  11.989 -0.7597  0.9904  0.6536
    9DOPE  H11X 1138   1.619   5.887  12.035 -1.0394 -0.7350  3.1186
    9DOPE  H11Y 1139   1.791   5.856  11.970 -0.5225 -0.4104 -1.4531
    9DOPE  C312 1140   1.620   5.778  11.859 -0.3147 -0.0896 -0.1128
    9DOPE  H12X 1141   1.529   5.715  11.865  0.4374 -1.7174 -3.3985
    9DOPE  H12Y 1142   1.693   5.720  11.799  0.4753  0.9614 -0.2005
    9DOPE  C313 1143   1.586   5.899  11.764 -0.1282  0.2665  0.2992
    9DOPE  H13X 1144   1.518   5.976  11.808  1.2625  0.4213  2.3025
    9DOPE  H13Y 1145   1.681   5.953  11.744  1.1683 -2.4058 -1.3771
    9DOPE  C314 1146   1.529   5.849  11.634  0.1199  0.1349  0.2133
    9DOPE  H14X 1147   1.428   5.805  11.650  0.4441 -1.2418 -1.3131
    9DOPE  H14Y 1148   1.574   5.752  11.607 -3.0795 -1.7147  0.9731
    9DOPE  C315 1149   1.522   5.951  11.526 -0.4418 -0.3999 -0.6890
    9DOPE  H15X 1150   1.621   5.998  11.509 -0.2514 -1.3860 -2.5040
    9DOPE  H15Y 1151   1.460   6.034  11.567  1.4974  1.1211 -0.7008
    9DOPE  C316 1152   1.470   5.901  11.394 -0.3308  0.0100  0.6137
    9DOPE  H16X 1153   1.380   5.837  11.394 -0.0770 -0.4033 -0.9995
    9DOPE  H16Y 1154   1.549   5.849  11.335  1.2807  2.9382 -0.0045
    9DOPE  C317 1155   1.420   6.008  11.293  0.3609 -0.5253  0.3495
    9DOPE  H17X 1156   1.352   6.074  11.350 -0.4551 -0.7376 -0.3480
    9DOPE  H17Y 1157   1.503   6.067  11.248 -0.4113 -1.1177 -2.0035
    9DOPE  C318 1158   1.337   5.953  11.179 -0.3484  0.3876  0.1940
    9DOPE  H18X 1159   1.399   5.871  11.136  0.3964  0.9659  0.1442
    9DOPE  H18Y 1160   1.243   5.907  11.215  0.2947 -0.8051  0.3951
    9DOPE  H18Z 1161   1.319   6.032  11.103  3.8214  0.8475 -0.5831
   10DOPE     N 1162   3.336   5.777  14.118 -0.0890 -0.0770 -0.1468
   10DOPE   HN1 1163   3.261   5.752  14.051  0.4867  2.2666 -1.8152
   10DOPE   HN2 1164   3.326   5.708  14.195 -1.6055 -0.7773 -0.9291
   10DOPE   HN3 1165   3.319   5.870  14.162 -1.7953  0.2775 -1.4916
   10DOPE   C12 1166   3.470   5.754  14.057 -0.5470 -0.3395  0.5717
   10DOPE  H12A 1167   3.471   5.822  13.970 -3.8418  1.7187  1.9359
   10DOPE  H12B 1168   3.488   5.646  14.039  1.9076 -0.7097  4.1577
   10DOPE   C11 1169   3.583   5.807  14.152 -0.0351  0.0358 -0.1116
   10DOPE  H11A 1170   3.676   5.766  14.106  0.8423 -1.2320  2.6106
   10DOPE  H11B 1171   3.577   5.760  14.252  0.5730  1.0296  0.4081
   10DOPE     P 1172   3.670   6.050  14.107  0.4700 -0.5014 -0.4697
   10DOPE   O13 1173   3.806   5.992  14.116 -0.1787  0.1776  0.1413
   10DOPE   O14 1174   3.649   6.178  14.172  0.0715  0.1318  0.0334
   10DOPE   O11 1175   3.630   6.054  13.957  0.4382 -0.5589  0.4164
   10DOPE   O12 1176   3.571   5.943  14.168 -0.3626  0.2563 -0.3736
   10DOPE    C1 1177   3.494   6.107  13.941 -0.3429 -0.3724  0.0656
   10DOPE    HA 1178   3.463   6.182  14.016 -0.9755  0.2609 -0.8131
   10DOPE    HB 1179   3.423   6.023  13.950 -0.3694 -0.4780 -1.0107
   10DOPE    C2 1180   3.470   6.172  13.804 -0.3961 -0.0170  0.3844
   10DOPE    HS 1181   3.361   6.160  13.791 -0.6828  0.6499  1.9378
   10DOPE   O21 1182   3.533   6.125  13.681  0.0112  0.2220 -0.4304
   10DOPE   C21 1183   3.537   5.995  13.653  0.0217 -0.4858 -0.1635
   10DOPE   O22 1184   3.475   5.905  13.714 -0.2445 -0.2738  0.3663
   10DOPE   C22 1185   3.620   5.972  13.529 -0.5610 -0.0754 -0.2564
   10DOPE   H2R 1186   3.708   5.915  13.566 -0.2462  1.5669  1.6751
   10DOPE   H2S 1187   3.663   6.070  13.500  0.6970 -1.1357 -2.2582
   10DOPE    C3 1188   3.510   6.321  13.813  0.1080 -1.1108  0.2938
   10DOPE    HX 1189   3.621   6.321  13.807  0.0987 -0.4203  0.0017
   10DOPE    HY 1190   3.483   6.366  13.911  1.0104  0.1913 -0.0281
   10DOPE   O31 1191   3.440   6.379  13.701  0.2028 -0.4392  0.3353
   10DOPE   C31 1192   3.474   6.512  13.678  0.2155  0.0887  0.7197
   10DOPE   O32 1193   3.555   6.573  13.744  0.0886  0.3457  0.5102
   10DOPE   C32 1194   3.395   6.567  13.559 -0.8896 -0.0524  0.2533
   10DOPE   H2X 1195   3.421   6.520  13.461  1.1161  0.0767  0.6931
   10DOPE   H2Y 1196   3.287   6.550  13.582 -1.0326  0.8401  0.2639
   10DOPE   C23 1197   3.539   5.904  13.420 -0.7581  0.1255  0.2355
   10DOPE   H3R 1198   3.508   5.805  13.460  1.4651 -0.3679  0.9205
   10DOPE   H3S 1199   3.592   5.881  13.325 -1.9907 -1.5818 -0.0872
   10DOPE   C24 1200   3.405   5.973  13.383 -0.1333 -0.2730  0.0374
   10DOPE   H4R 1201   3.430   6.070  13.335  0.0386  0.1734  1.0026
   10DOPE   H4S 1202   3.337   5.999  13.467 -1.9556  1.7774 -1.9380
   10DOPE   C25 1203   3.334   5.873  13.286  0.0631  0.1116 -0.5049
   10DOPE   H5R 1204   3.309   5.774  13.331  1.0562 -0.4198 -1.0722
   10DOPE   H5S 1205   3.416   5.855  13.213  0.1595  1.1175 -0.6493
   10DOPE   C26 1206   3.217   5.943  13.228  0.1257 -0.1091  0.0883
   10DOPE   H6R 1207   3.244   6.030  13.164  1.5174 -0.8749 -0.4024
   10DOPE   H6S 1208   3.143   5.977  13.304 -0.1586 -0.7988  0.1237
   10DOPE   C27 1209   3.144   5.849  13.134  0.1692 -0.2188  0.0595
   10DOPE   H7R 1210   3.080   5.779  13.191  0.3568  0.2771  0.8959
   10DOPE   H7S 1211   3.222   5.789  13.082 -0.2667 -0.1187 -0.7257
   10DOPE   C28 1212   3.062   5.926  13.030 -0.2353 -0.1014 -0.6884
   10DOPE   H8R 1213   3.128   6.003  12.985  1.4902 -0.9784  0.2847
   10DOPE   H8S 1214   2.975   5.976  13.079 -0.7477 -0.4569 -1.2132
   10DOPE   C29 1215   3.014   5.843  12.914  0.0404 -0.0782 -0.2699
   10DOPE   H9R 1216   2.953   5.755  12.938  0.7463 -1.1295 -2.1293
   10DOPE  C210 1217   3.038   5.867  12.781 -0.4172 -0.4238 -0.3511
   10DOPE  H10R 1218   3.001   5.797  12.705  0.1081 -1.2884  0.1735
   10DOPE  C211 1219   3.105   5.990  12.722 -0.2819  0.1585 -0.1233
   10DOPE  H11R 1220   3.215   5.987  12.735 -0.3619  0.7533  0.8547
   10DOPE  H11S 1221   3.074   6.078  12.782 -3.7075 -0.8470 -0.2077
   10DOPE  C212 1222   3.059   6.021  12.578  0.4200 -0.7398  0.2523
   10DOPE  H12R 1223   3.112   6.115  12.552  0.5178 -0.0779  2.5530
   10DOPE  H12S 1224   2.949   6.038  12.569  0.8352  1.2821 -1.7405
   10DOPE  C213 1225   3.098   5.914  12.473  0.1279 -0.2856  0.6094
   10DOPE  H13R 1226   3.043   5.823  12.507  1.8655 -2.5497 -2.1425
   10DOPE  H13S 1227   3.207   5.896  12.483 -0.1681 -1.2661  2.9126
   10DOPE  C214 1228   3.060   5.958  12.334  0.3700  0.2204  0.2031
   10DOPE  H14R 1229   3.121   6.044  12.298 -0.0626 -0.0837 -1.2950
   10DOPE  H14S 1230   2.951   5.980  12.327 -0.1012 -2.0947 -0.5783
   10DOPE  C215 1231   3.088   5.840  12.244 -0.4669  0.1501 -0.2889
   10DOPE  H15R 1232   3.044   5.749  12.292  1.4906  0.7800  3.0177
   10DOPE  H15S 1233   3.197   5.822  12.235 -0.7582 -1.6124 -0.6852
   10DOPE  C216 1234   3.022   5.871  12.103 -0.1437 -0.1418 -0.0859
   10DOPE  H16R 1235   2.925   5.923  12.120 -1.0471 -0.8201 -2.7834
   10DOPE  H16S 1236   3.005   5.781  12.040  1.4425  1.7119 -3.3768
   10DOPE  C217 1237   3.120   5.952  12.010 -0.1000  1.4239 -0.8110
   10DOPE  H17R 1238   3.215   5.897  11.991 -1.0622  0.1398 -2.0971
   10DOPE  H17S 1239   3.145   6.044  12.066  0.4798  0.7727  0.0309
   10DOPE  C218 1240   3.047   5.989  11.882 -0.4542 -0.2091  0.0193
   10DOPE  H18R 1241   2.943   6.024  11.900 -0.0304  0.6801  0.8507
   10DOPE  H18S 1242   3.035   5.900  11.817 -1.9672 -0.5636  0.7410
   10DOPE  H18T 1243   3.103   6.063  11.821  0.1585  0.6003  1.5119
   10DOPE   C33 1244   3.420   6.720  13.530  0.2451  0.3392 -0.5978
   10DOPE   H3X 1245   3.531   6.726  13.530  0.2544  0.8188  1.0235
   10DOPE   H3Y 1246   3.384   6.777  13.619  0.2165 -2.0192  0.9785
   10DOPE   C34 1247   3.348   6.774  13.410  0.5809 -0.2169  0.2307
   10DOPE   H4X 1248   3.241   6.743  13.412  0.3618  0.5216  0.1075
   10DOPE   H4Y 1249   3.347   6.884  13.395 -2.6751  0.0152  1.2471
   10DOPE   C35 1250   3.420   6.724  13.280  0.4021 -0.0556  0.3022
   10DOPE   H5X 1251   3.441   6.615  13.285  1.6629  0.1672  0.1674
   10DOPE   H5Y 1252   3.515   6.781  13.269  0.3833  0.0785  0.8250
   10DOPE   C36 1253   3.325   6.743  13.157  0.1142 -0.3944 -0.6868
   10DOPE   H6X 1254   3.319   6.853  13.143  0.6527 -0.2673  0.0170
   10DOPE   H6Y 1255   3.227   6.697  13.182 -0.3248  0.2775 -1.1331
   10DOPE   C37 1256   3.385   6.684  13.033  0.0888  0.2519  0.1564
   10DOPE   H7X 1257   3.483   6.729  13.006  0.4063  0.2350  1.2105
   10DOPE   H7Y 1258   3.415   6.578  13.047  1.7101  0.1877 -2.9069
   10DOPE   C38 1259   3.285   6.690  12.916 -0.2139 -0.4865 -0.0258
   10DOPE   H8X 1260   3.265   6.798  12.904 -1.2626 -0.6083  0.5386
   10DOPE   H8Y 1261   3.187   6.652  12.953  0.1861 -1.7967 -0.2484
   10DOPE   C39 1262   3.319   6.612  12.790 -0.1533 -0.0033  0.4575
   10DOPE   H9X 1263   3.395   6.534  12.805 -1.1438 -0.8364  1.4092
   10DOPE  C310 1264   3.294   6.657  12.669  0.0455 -1.1057  0.4436
   10DOPE  H10X 1265   3.323   6.598  12.581 -0.3212 -0.8272  0.1244
   10DOPE  C311 1266   3.212   6.780  12.631 -0.5954  0.0611 -0.0803
   10DOPE  H11X 1267   3.127   6.765  12.561 -1.9500 -0.9919  1.7153
   10DOPE  H11Y 1268   3.167   6.816  12.725  0.2980  0.7847  0.0844
   10DOPE  C312 1269   3.317   6.890  12.584 -0.1026 -0.0881  0.3574
   10DOPE  H12X 1270   3.394   6.904  12.663  0.2252 -0.3021  0.0781
   10DOPE  H12Y 1271   3.261   6.986  12.584  0.4320  0.2361 -0.4162
   10DOPE  C313 1272   3.383   6.878  12.443 -0.1103 -0.1279 -0.2856
   10DOPE  H13X 1273   3.409   6.980  12.406  0.1724  0.4816  1.4910
   10DOPE  H13Y 1274   3.482   6.834  12.467  0.6018  2.3017  1.6842
   10DOPE  C314 1275   3.295   6.811  12.338  1.3672  0.5280 -0.2646
   10DOPE  H14X 1276   3.192   6.840  12.368  0.8395 -1.4116 -0.1008
   10DOPE  H14Y 1277   3.293   6.701  12.350 -2.1824  0.1267 -2.8242
   10DOPE  C315 1278   3.317   6.840  12.191  0.3300  0.3866 -0.3853
   10DOPE  H15X 1279   3.421   6.817  12.160  0.2597  1.2524 -1.3213
   10DOPE  H15Y 1280   3.310   6.951  12.180  1.2976  0.3612 -1.5515
   10DOPE  C316 1281   3.210   6.776  12.103 -0.1991 -0.0958  1.0117
   10DOPE  H16X 1282   3.161   6.861  12.050 -0.5177 -0.8285  0.1097
   10DOPE  H16Y 1283   3.129   6.720  12.155  0.2176 -0.6871  1.0305
   10DOPE  C317 1284   3.284   6.681  12.005  0.2579 -0.1210 -0.6867
   10DOPE  H17X 1285   3.340   6.603  12.060  1.7204  1.1276 -0.3537
   10DOPE  H17Y 1286   3.212   6.623  11.943  1.8138 -0.4487 -2.2593
   10DOPE  C318 1287   3.382   6.752  11.911 -0.2803  0.0726  0.3379
   10DOPE  H18X 1288   3.415   6.684  11.829  0.5181 -0.4186  1.0590
   10DOPE  H18Y 1289   3.341   6.846  11.868 -1.7317 -1.2945 -1.4613
   10DOPE  H18Z 1290   3.470   6.786  11.969 -1.2690  2.0594  0.7495
   11DOPE     N 1291   2.474   4.003  14.042  0.2966 -0.0857 -0.2285
   11DOPE   HN1 1292   2.435   4.098  14.060 -0.5909 -0.8777  2.5401
   11DOPE   HN2 1293   2.403   3.928  14.036  1.8962 -1.6828 -0.1120
   11DOPE   HN3 1294   2.508   3.986  14.139 -1.9012  0.2422  0.6449
   11DOPE   C12 1295   2.565   4.001  13.928 -0.1530  0.6057  0.6550
   11DOPE  H12A 1296   2.606   3.898  13.929  1.1723  1.0848 -0.8348
   11DOPE  H12B 1297   2.648   4.072  13.949  0.6632 -0.4531  1.0908
   11DOPE   C11 1298   2.503   4.029  13.789 -0.2744  0.0152  0.3911
   11DOPE  H11A 1299   2.429   3.947  13.781 -1.8674  1.4608 -0.3891
   11DOPE  H11B 1300   2.577   4.020  13.707 -0.3546 -1.9185  0.4930
   11DOPE     P 1301   2.466   4.294  13.760  0.0371 -0.0517 -0.1689
   11DOPE   O13 1302   2.580   4.324  13.850  0.2983 -0.1024  0.0289
   11DOPE   O14 1303   2.338   4.359  13.783  0.1316  0.2338 -0.5693
   11DOPE   O11 1304   2.514   4.290  13.608 -0.0560  0.0901 -0.2475
   11DOPE   O12 1305   2.420   4.145  13.786  0.2660  0.7898  0.5440
   11DOPE    C1 1306   2.407   4.295  13.510 -0.1472  0.3158 -0.3281
   11DOPE    HA 1307   2.454   4.344  13.422 -0.5632  1.5442  0.1082
   11DOPE    HB 1308   2.329   4.368  13.542  1.9489  2.3796  0.3460
   11DOPE    C2 1309   2.339   4.160  13.481 -0.0003  0.7087 -0.0433
   11DOPE    HS 1310   2.297   4.111  13.572 -1.9831 -1.6042 -2.0482
   11DOPE   O21 1311   2.442   4.068  13.437  0.0901 -0.2871  0.3699
   11DOPE   C21 1312   2.389   3.937  13.423 -0.5206 -0.9019 -0.3211
   11DOPE   O22 1313   2.272   3.912  13.439  0.1598 -0.0339  0.1585
   11DOPE   C22 1314   2.496   3.830  13.385 -0.0778  0.3131  0.2342
   11DOPE   H2R 1315   2.535   3.790  13.481  4.0398 -0.8418 -1.6954
   11DOPE   H2S 1316   2.574   3.883  13.327  0.9464 -0.3933  0.9362
   11DOPE    C3 1317   2.233   4.186  13.373 -0.5015 -0.1181 -0.3651
   11DOPE    HX 1318   2.186   4.089  13.343 -1.9473  0.3351  0.3328
   11DOPE    HY 1319   2.291   4.225  13.286  1.7405 -0.2357  1.0047
   11DOPE   O31 1320   2.128   4.275  13.414  0.4341  0.1727  0.1346
   11DOPE   C31 1321   2.038   4.234  13.492  0.4112  0.1572 -0.0006
   11DOPE   O32 1322   2.025   4.124  13.539  0.2649 -0.0926 -0.3666
   11DOPE   C32 1323   1.939   4.349  13.520 -0.3278 -0.5982  0.0674
   11DOPE   H2X 1324   1.951   4.370  13.628 -0.5208 -1.0702  0.1816
   11DOPE   H2Y 1325   1.971   4.443  13.470 -1.4421 -0.2494 -0.0264
   11DOPE   C23 1326   2.446   3.718  13.295  0.3104  0.4581  0.2761
   11DOPE   H3R 1327   2.344   3.695  13.332  0.7251  1.4353  2.1215
   11DOPE   H3S 1328   2.506   3.627  13.315  0.1137  0.2264 -0.1588
   11DOPE   C24 1329   2.459   3.746  13.140 -0.4554  0.8411 -0.7636
   11DOPE   H4R 1330   2.564   3.773  13.115 -0.2743  0.2531 -0.6702
   11DOPE   H4S 1331   2.404   3.836  13.107 -3.1439 -1.0717 -1.8413
   11DOPE   C25 1332   2.412   3.618  13.066  0.4766  0.2930 -0.2007
   11DOPE   H5R 1333   2.301   3.611  13.072  0.4961 -1.3608 -0.9482
   11DOPE   H5S 1334   2.439   3.534  13.133  0.4466 -0.8293 -1.5357
   11DOPE   C26 1335   2.478   3.598  12.930  0.3723  0.2887  0.2498
   11DOPE   H6R 1336   2.480   3.492  12.896 -0.5663 -0.1549  1.4868
   11DOPE   H6S 1337   2.582   3.637  12.929  0.4131  0.4514 -3.5750
   11DOPE   C27 1338   2.397   3.674  12.823  0.0381  0.1535 -0.7834
   11DOPE   H7R 1339   2.387   3.779  12.860  0.7113  0.1993 -0.7285
   11DOPE   H7S 1340   2.292   3.638  12.809  0.5817 -1.5932 -0.5269
   11DOPE   C28 1341   2.454   3.671  12.686 -0.2782 -0.2171 -0.5579
   11DOPE   H8R 1342   2.457   3.567  12.647 -2.7940  0.1488 -1.9941
   11DOPE   H8S 1343   2.560   3.700  12.700 -0.9764  1.8296  0.9413
   11DOPE   C29 1344   2.393   3.755  12.583 -0.2239 -0.6007  0.1537
   11DOPE   H9R 1345   2.283   3.758  12.589 -0.1923 -1.7227  2.0202
   11DOPE  C210 1346   2.446   3.852  12.504 -0.3281 -0.4544  0.2854
   11DOPE  H10R 1347   2.374   3.892  12.431 -1.2947 -1.9179  0.3776
   11DOPE  C211 1348   2.593   3.880  12.504  0.1990  0.0538 -0.4570
   11DOPE  H11R 1349   2.634   3.847  12.602 -1.7868  0.1645  0.4614
   11DOPE  H11S 1350   2.597   3.991  12.505 -2.6464  0.2244  0.9042
   11DOPE  C212 1351   2.668   3.848  12.371 -0.1019  0.2100  0.0622
   11DOPE  H12R 1352   2.664   3.738  12.356 -0.6372  0.5889 -3.2126
   11DOPE  H12S 1353   2.774   3.870  12.397 -0.3332 -2.1039  3.7058
   11DOPE  C213 1354   2.622   3.917  12.238 -0.4407 -0.2126 -0.6465
   11DOPE  H13R 1355   2.633   4.025  12.261 -1.1235 -0.6073  1.7469
   11DOPE  H13S 1356   2.518   3.883  12.216  0.2835 -2.8388 -0.2840
   11DOPE  C214 1357   2.717   3.901  12.120  0.2679  0.0759  0.6515
   11DOPE  H14R 1358   2.748   3.794  12.118  0.6173  0.0527 -3.7710
   11DOPE  H14S 1359   2.809   3.962  12.128  1.8373 -2.0120 -0.5089
   11DOPE  C215 1360   2.655   3.931  11.976 -0.1122 -0.1421  0.1671
   11DOPE  H15R 1361   2.638   4.039  11.954 -2.0808 -0.8498 -2.3410
   11DOPE  H15S 1362   2.553   3.889  11.973 -1.0236  1.9871 -1.3306
   11DOPE  C216 1363   2.746   3.869  11.866 -0.6292  0.3356  0.3697
   11DOPE  H16R 1364   2.778   3.773  11.911 -3.6723  0.1381  2.3333
   11DOPE  H16S 1365   2.835   3.933  11.847  0.1285 -1.0313 -0.9266
   11DOPE  C217 1366   2.680   3.859  11.733  0.5710 -0.4240  0.5110
   11DOPE  H17R 1367   2.571   3.837  11.736  0.8950 -2.0705  2.4082
   11DOPE  H17S 1368   2.738   3.794  11.665 -1.3218 -1.8517  0.1829
   11DOPE  C218 1369   2.688   4.008  11.679 -0.0875 -0.3338  0.9260
   11DOPE  H18R 1370   2.791   4.041  11.657 -0.5940  1.6665  1.3448
   11DOPE  H18S 1371   2.634   4.079  11.746 -0.7902 -1.1592  1.2554
   11DOPE  H18T 1372   2.645   4.010  11.576 -0.1242  0.8536  0.9547
   11DOPE   C33 1373   1.791   4.324  13.485 -0.3536 -0.6099  0.0985
   11DOPE   H3X 1374   1.736   4.375  13.568 -0.0452  0.1844 -0.1779
   11DOPE   H3Y 1375   1.768   4.217  13.508 -1.1407  0.0905  3.0010
   11DOPE   C34 1376   1.746   4.363  13.346  0.2049  0.3631  0.5415
   11DOPE   H4X 1377   1.646   4.328  13.314  0.0268  0.2455  1.2130
   11DOPE   H4Y 1378   1.750   4.473  13.328 -2.8934  0.7787  1.8316
   11DOPE   C35 1379   1.840   4.306  13.234  0.5070 -0.4484 -0.0512
   11DOPE   H5X 1380   1.845   4.196  13.249 -0.5758 -0.4298  0.5696
   11DOPE   H5Y 1381   1.941   4.348  13.253 -0.1949  0.0596  3.1282
   11DOPE   C36 1382   1.780   4.322  13.086 -0.3860  0.4923 -1.1334
   11DOPE   H6X 1383   1.798   4.430  13.070 -0.2872  1.4627  3.8810
   11DOPE   H6Y 1384   1.675   4.287  13.085  0.1424 -1.2436 -0.1529
   11DOPE   C37 1385   1.844   4.215  12.997 -0.7133 -0.3208 -0.2113
   11DOPE   H7X 1386   1.954   4.226  13.006 -0.9103  1.0910  0.8293
   11DOPE   H7Y 1387   1.830   4.118  13.049  0.4094 -0.5362 -0.2924
   11DOPE   C38 1388   1.798   4.207  12.848  0.5467  0.4012 -0.4604
   11DOPE   H8X 1389   1.688   4.226  12.853  0.6678  0.8399  1.2808
   11DOPE   H8Y 1390   1.818   4.103  12.817 -2.7706 -0.8151  0.9447
   11DOPE   C39 1391   1.852   4.324  12.766 -0.1119 -0.1391  0.2934
   11DOPE   H9X 1392   1.869   4.423  12.811 -0.9496  0.7403 -1.2574
   11DOPE  C310 1393   1.905   4.308  12.646 -1.1631  0.5219 -0.3943
   11DOPE  H10X 1394   1.952   4.394  12.595  0.6332  0.1700  0.5681
   11DOPE  C311 1395   1.909   4.178  12.565 -0.3888 -0.2576 -0.1046
   11DOPE  H11X 1396   2.013   4.148  12.541 -0.4143 -0.3035 -0.1558
   11DOPE  H11Y 1397   1.863   4.092  12.618  2.0507 -1.2676  0.4929
   11DOPE  C312 1398   1.830   4.193  12.429 -0.6372 -0.6360 -0.1185
   11DOPE  H12X 1399   1.734   4.236  12.466  1.0665  0.6510  3.3355
   11DOPE  H12Y 1400   1.824   4.092  12.384 -0.0982 -0.5296 -0.4395
   11DOPE  C313 1401   1.909   4.286  12.331 -0.4071 -0.7055 -0.3663
   11DOPE  H13X 1402   1.912   4.392  12.366  2.3950 -0.5763 -0.8047
   11DOPE  H13Y 1403   2.014   4.250  12.332  0.2977  1.2142 -0.5675
   11DOPE  C314 1404   1.845   4.276  12.190 -0.6573 -0.8341  0.1535
   11DOPE  H14X 1405   1.738   4.307  12.194 -0.3470  0.1633  1.2588
   11DOPE  H14Y 1406   1.838   4.167  12.170  0.1801 -0.9220  0.3236
   11DOPE  C315 1407   1.929   4.349  12.086  0.3368  0.5100 -0.2955
   11DOPE  H15X 1408   2.036   4.321  12.101 -0.0481  0.4517  2.9612
   11DOPE  H15Y 1409   1.913   4.459  12.091  0.1881  0.4845 -0.2308
   11DOPE  C316 1410   1.891   4.312  11.940  0.7717  0.5351  0.7935
   11DOPE  H16X 1411   1.790   4.342  11.906  0.3463 -1.1814  0.4254
   11DOPE  H16Y 1412   1.883   4.204  11.915 -0.5715  1.0762 -1.3685
   11DOPE  C317 1413   1.979   4.381  11.843  0.8712  0.3804  0.5867
   11DOPE  H17X 1414   1.955   4.489  11.839 -0.3483  0.1000 -1.9553
   11DOPE  H17Y 1415   2.089   4.386  11.856  1.1944 -0.4652 -1.3760
   11DOPE  C318 1416   1.941   4.335  11.693  0.0628 -0.1001  0.0470
   11DOPE  H18X 1417   1.993   4.245  11.654 -2.0352 -0.5780 -1.8135
   11DOPE  H18Y 1418   1.833   4.310  11.691  0.0802 -0.2124  0.3447
   11DOPE  H18Z 1419   1.962   4.422  11.628 -1.2152  0.3306  0.1963
   12DOPE     N 1420   4.288   6.690  13.752  0.0359 -0.2679 -0.3293
   12DOPE   HN1 1421   4.386   6.658  13.739  0.9082  2.2920 -0.6489
   12DOPE   HN2 1422   4.247   6.649  13.838 -0.9208 -1.5493 -1.3372
   12DOPE   HN3 1423   4.228   6.668  13.670 -0.1160 -0.0340 -0.2811
   12DOPE   C12 1424   4.290   6.840  13.773  0.1191  0.2054  0.5247
   12DOPE  H12A 1425   4.394   6.859  13.807  0.0104  0.7015  0.5809
   12DOPE  H12B 1426   4.207   6.867  13.840  0.0085  1.9612 -0.2716
   12DOPE   C11 1427   4.280   6.903  13.638 -0.4694 -0.1159  0.1438
   12DOPE  H11A 1428   4.367   6.895  13.570 -0.3700 -0.3494  0.2969
   12DOPE  H11B 1429   4.280   7.014  13.644 -1.0907  0.0806 -2.4568
   12DOPE     P 1430   4.030   6.940  13.570  0.0459  0.0606  0.4156
   12DOPE   O13 1431   4.054   7.078  13.610 -0.3082  0.0553 -0.2531
   12DOPE   O14 1432   3.928   6.867  13.649  0.4669 -0.0552 -0.5870
   12DOPE   O11 1433   4.000   6.925  13.419  0.6137  0.7603  0.1416
   12DOPE   O12 1434   4.161   6.849  13.582 -0.2101  0.1960  0.2126
   12DOPE    C1 1435   4.075   6.997  13.323 -0.4444 -0.3887  0.0553
   12DOPE    HA 1436   4.172   6.944  13.311  0.8769  1.3333  2.2675
   12DOPE    HB 1437   4.101   7.099  13.358  0.3731  0.0174 -1.6735
   12DOPE    C2 1438   4.014   6.998  13.179 -0.1572  0.0408 -0.1626
   12DOPE    HS 1439   3.923   7.061  13.187 -1.7774 -2.2199  0.2504
   12DOPE   O21 1440   3.977   6.862  13.138  0.3820 -0.4958 -0.3440
   12DOPE   C21 1441   3.860   6.823  13.174 -0.3294 -0.2306 -0.7811
   12DOPE   O22 1442   3.762   6.889  13.202  0.1071 -0.1981 -0.0214
   12DOPE   C22 1443   3.872   6.671  13.167  0.4103  0.5865 -0.3173
   12DOPE   H2R 1444   3.865   6.637  13.272  2.9553  1.8730  0.3427
   12DOPE   H2S 1445   3.966   6.621  13.135 -0.2659 -0.6438 -0.4547
   12DOPE    C3 1446   4.107   7.068  13.073  0.1867 -0.0205 -0.5249
   12DOPE    HX 1447   4.206   7.021  13.086  0.8998  2.0978  2.7949
   12DOPE    HY 1448   4.120   7.175  13.099  3.2100 -0.6994  1.1985
   12DOPE   O31 1449   4.075   7.050  12.936  0.6440  0.2075  0.1743
   12DOPE   C31 1450   3.958   7.100  12.905  0.1802  0.6477 -0.5339
   12DOPE   O32 1451   3.885   7.167  12.975  0.2688  0.4946  0.4250
   12DOPE   C32 1452   3.904   7.041  12.772 -0.5065 -0.0361  0.4613
   12DOPE   H2X 1453   3.973   7.073  12.691 -1.5571 -0.6108 -0.6896
   12DOPE   H2Y 1454   3.894   6.931  12.775  1.5019 -0.2521  0.8105
   12DOPE   C23 1455   3.774   6.608  13.064 -0.4305 -0.5297  0.2547
   12DOPE   H3R 1456   3.671   6.646  13.081 -0.0636  0.0502  1.3232
   12DOPE   H3S 1457   3.765   6.498  13.078  1.4450 -0.7831 -0.3040
   12DOPE   C24 1458   3.823   6.643  12.927 -0.4938 -0.5585  0.9050
   12DOPE   H4R 1459   3.898   6.568  12.897 -0.8147 -0.3525 -0.4750
   12DOPE   H4S 1460   3.864   6.747  12.924  3.0561 -1.8274 -1.6201
   12DOPE   C25 1461   3.721   6.639  12.815 -0.1069  0.0839 -0.1619
   12DOPE   H5R 1462   3.660   6.732  12.817 -0.2704  0.0307 -1.5643
   12DOPE   H5S 1463   3.654   6.551  12.831  2.6577 -1.8703  1.5746
   12DOPE   C26 1464   3.772   6.627  12.675 -0.8916  0.4007  0.4437
   12DOPE   H6R 1465   3.839   6.539  12.668 -0.1187  1.1176 -2.1844
   12DOPE   H6S 1466   3.842   6.711  12.659  0.9431 -0.5832  2.6900
   12DOPE   C27 1467   3.654   6.628  12.572  0.1024 -0.1257  0.0155
   12DOPE   H7R 1468   3.609   6.726  12.601  1.9270 -0.1223  3.3059
   12DOPE   H7S 1469   3.584   6.544  12.591 -0.4394  0.5246  0.9974
   12DOPE   C28 1470   3.724   6.636  12.440  0.2040 -0.1338 -0.1605
   12DOPE   H8R 1471   3.809   6.565  12.442  3.9123  3.7060  4.2071
   12DOPE   H8S 1472   3.770   6.737  12.430 -1.6094  0.9202  1.3857
   12DOPE   C29 1473   3.642   6.612  12.316 -0.7969  0.0296  0.1481
   12DOPE   H9R 1474   3.534   6.599  12.334 -1.1725  3.8026  1.6008
   12DOPE  C210 1475   3.690   6.609  12.191 -0.2870 -0.7420 -0.0202
   12DOPE  H10R 1476   3.616   6.583  12.113 -1.0622  0.2554  0.3647
   12DOPE  C211 1477   3.834   6.644  12.163 -0.7247 -0.4603 -0.2563
   12DOPE  H11R 1478   3.895   6.561  12.204  0.5467  0.7424  0.3769
   12DOPE  H11S 1479   3.865   6.743  12.204  0.0718 -1.3496  1.3929
   12DOPE  C212 1480   3.870   6.644  12.014  0.1829  0.0830 -0.3759
   12DOPE  H12R 1481   3.860   6.546  11.964  0.5039 -0.7397  1.1233
   12DOPE  H12S 1482   3.980   6.655  11.996  0.4998 -0.4657  1.1217
   12DOPE  C213 1483   3.798   6.751  11.932  0.8307 -0.3083 -0.0698
   12DOPE  H13R 1484   3.843   6.848  11.961  1.2258 -1.5360  3.9294
   12DOPE  H13S 1485   3.690   6.764  11.949  0.9512  0.1342  0.3567
   12DOPE  C214 1486   3.822   6.737  11.778  0.5990  0.2855 -0.4213
   12DOPE  H14R 1487   3.927   6.704  11.768  0.8041 -0.2225  2.5891
   12DOPE  H14S 1488   3.816   6.836  11.728 -2.5102  0.1280 -0.5494
   12DOPE  C215 1489   3.726   6.646  11.706  0.1233  0.2880  0.1706
   12DOPE  H15R 1490   3.622   6.684  11.719  0.8008  1.5715  2.4918
   12DOPE  H15S 1491   3.728   6.546  11.754 -0.3845  0.1742 -0.0439
   12DOPE  C216 1492   3.761   6.617  11.559 -0.1882  0.4953  0.2827
   12DOPE  H16R 1493   3.745   6.716  11.511 -0.8079 -0.3060 -1.2489
   12DOPE  H16S 1494   3.684   6.544  11.525 -0.3358 -0.4097  2.4321
   12DOPE  C217 1495   3.895   6.564  11.524  0.0519  0.8834 -0.2814
   12DOPE  H17R 1496   3.969   6.637  11.562  1.5853  0.4052 -2.2141
   12DOPE  H17S 1497   3.893   6.555  11.414 -0.7581  1.9435 -0.3700
   12DOPE  C218 1498   3.932   6.433  11.600  0.4118  0.8000 -0.5117
   12DOPE  H18R 1499   4.013   6.374  11.553 -0.6814 -1.5140  0.3746
   12DOPE  H18S 1500   3.850   6.359  11.587  1.9642 -0.7442 -2.1411
   12DOPE  H18T 1501   3.961   6.445  11.706  0.9089 -0.4781 -0.4907
   12DOPE   C33 1502   3.762   7.096  12.733 -0.4807  0.2461  0.3409
   12DOPE   H3X 1503   3.764   7.207  12.731 -0.5493  0.2430 -0.7926
   12DOPE   H3Y 1504   3.693   7.060  12.812 -0.6873 -0.5299 -0.1839
   12DOPE   C34 1505   3.717   7.053  12.594 -0.3230 -0.2171  0.2597
   12DOPE   H4X 1506   3.698   6.943  12.596 -0.8245 -0.3070 -2.9347
   12DOPE   H4Y 1507   3.624   7.103  12.558  0.0897 -0.6997 -1.6145
   12DOPE   C35 1508   3.825   7.094  12.489 -0.2839 -0.0693 -0.9158
   12DOPE   H5X 1509   3.919   7.035  12.495 -0.3282 -0.1311 -0.8399
   12DOPE   H5Y 1510   3.856   7.199  12.513  1.2064 -1.0256  1.8864
   12DOPE   C36 1511   3.782   7.084  12.343 -0.3718  0.2451  0.1876
   12DOPE   H6X 1512   3.726   6.991  12.320 -0.2201 -0.1531  1.3496
   12DOPE   H6Y 1513   3.875   7.074  12.284 -0.3683 -1.8892  0.4807
   12DOPE   C37 1514   3.699   7.207  12.294 -0.2946  0.8206  0.4642
   12DOPE   H7X 1515   3.602   7.198  12.348 -0.4354 -3.5420 -0.1360
   12DOPE   H7Y 1516   3.751   7.293  12.340  3.0725 -0.8426  0.0874
   12DOPE   C38 1517   3.697   7.209  12.148  0.6155  0.4220  0.8601
   12DOPE   H8X 1518   3.801   7.219  12.110  0.0082  0.0800 -1.0292
   12DOPE   H8Y 1519   3.645   7.299  12.108  1.0294 -0.3516 -1.5954
   12DOPE   C39 1520   3.627   7.094  12.075 -0.1032  0.2442 -0.1000
   12DOPE   H9X 1521   3.619   6.998  12.128 -0.7387  0.5983  0.4529
   12DOPE  C310 1522   3.574   7.095  11.951  0.4551  0.2712  0.0142
   12DOPE  H10X 1523   3.555   6.997  11.906  1.8788  0.2187 -0.5261
   12DOPE  C311 1524   3.570   7.208  11.850 -0.3186 -0.0543  0.2939
   12DOPE  H11X 1525   3.466   7.241  11.830  0.0607  1.5653  0.8697
   12DOPE  H11Y 1526   3.623   7.297  11.889 -0.9114  0.9066 -1.0080
   12DOPE  C312 1527   3.620   7.168  11.705 -0.0385 -0.3516  0.3447
   12DOPE  H12X 1528   3.550   7.088  11.671 -0.6045  0.2658  0.0375
   12DOPE  H12Y 1529   3.721   7.125  11.721 -0.4236 -0.7520  1.9407
   12DOPE  C313 1530   3.620   7.277  11.597  0.0060 -0.1567  0.1549
   12DOPE  H13X 1531   3.692   7.360  11.618 -1.1354  1.0154 -0.3841
   12DOPE  H13Y 1532   3.669   7.227  11.510  2.1649  0.3311  1.0259
   12DOPE  C314 1533   3.478   7.331  11.558  0.0634  0.2541 -0.4090
   12DOPE  H14X 1534   3.455   7.406  11.636 -0.3225 -0.6126  0.3241
   12DOPE  H14Y 1535   3.398   7.254  11.563 -2.7156  3.0134  0.7078
   12DOPE  C315 1536   3.457   7.392  11.421 -0.3955  0.1497  0.1088
   12DOPE  H15X 1537   3.355   7.435  11.413 -0.8976 -0.7609  1.2418
   12DOPE  H15Y 1538   3.462   7.304  11.353 -1.4702 -0.4921  0.8231
   12DOPE  C316 1539   3.558   7.501  11.378 -0.6195  0.5280  0.5557
   12DOPE  H16X 1540   3.546   7.522  11.270  0.7905  1.1966  0.5098
   12DOPE  H16Y 1541   3.663   7.468  11.388 -0.4076  1.3260  1.1476
   12DOPE  C317 1542   3.538   7.638  11.450  0.3089 -0.4627  0.0110
   12DOPE  H17X 1543   3.543   7.619  11.559 -1.1761 -0.9964 -0.0007
   12DOPE  H17Y 1544   3.624   7.708  11.435 -1.0729  1.6815  1.5150
   12DOPE  C318 1545   3.409   7.713  11.422 -0.6406  0.2532  0.1897
   12DOPE  H18X 1546   3.400   7.710  11.312 -1.1997  0.4313  0.2247
   12DOPE  H18Y 1547   3.322   7.655  11.461 -0.7481 -1.3247 -2.2102
   12DOPE  H18Z 1548   3.404   7.814  11.467  1.3038  0.2451  0.5036
   13DOPE     N 1549   3.446   2.829  13.955 -0.4705 -0.2932 -0.0321
   13DOPE   HN1 1550   3.422   2.807  14.054  1.7804  1.4212  0.9874
   13DOPE   HN2 1551   3.360   2.855  13.903 -0.6716 -1.1116 -0.1244
   13DOPE   HN3 1552   3.487   2.747  13.905  1.4467  0.4750  0.1930
   13DOPE   C12 1553   3.530   2.952  13.937 -0.1451 -0.5236  0.3162
   13DOPE  H12A 1554   3.626   2.933  13.990  0.4869 -0.4592 -0.7549
   13DOPE  H12B 1555   3.474   3.039  13.977 -0.2456  0.2673 -1.4256
   13DOPE   C11 1556   3.554   2.987  13.787 -0.0615 -0.0014 -0.3967
   13DOPE  H11A 1557   3.632   3.067  13.783  3.0845 -2.8987 -1.4055
   13DOPE  H11B 1558   3.463   3.037  13.747  1.7598  1.3556 -3.1640
   13DOPE     P 1559   3.741   2.819  13.700 -0.1179  0.3905  0.0822
   13DOPE   O13 1560   3.770   2.758  13.829 -0.3188 -0.4150  0.2326
   13DOPE   O14 1561   3.836   2.917  13.656 -0.0503 -0.0298  0.5047
   13DOPE   O11 1562   3.724   2.706  13.594  0.5410 -0.1378 -0.0005
   13DOPE   O12 1563   3.586   2.871  13.712 -0.6764  0.4094 -0.3400
   13DOPE    C1 1564   3.633   2.710  13.490 -0.0930 -0.4360  0.9230
   13DOPE    HA 1565   3.576   2.806  13.495 -0.0235 -0.4385  1.9844
   13DOPE    HB 1566   3.557   2.629  13.488 -1.4161  0.7762 -0.7005
   13DOPE    C2 1567   3.695   2.728  13.344  0.1378 -0.5948  0.3790
   13DOPE    HS 1568   3.720   2.627  13.305  0.7548  0.0754 -1.0621
   13DOPE   O21 1569   3.811   2.806  13.356 -0.4724  0.2533 -0.0767
   13DOPE   C21 1570   3.913   2.787  13.279  0.0593  0.1782 -0.0093
   13DOPE   O22 1571   3.921   2.698  13.195 -0.0558 -0.0053 -0.4747
   13DOPE   C22 1572   4.015   2.893  13.311  0.2538 -0.6250 -0.2107
   13DOPE   H2R 1573   4.057   2.883  13.413  1.8738  3.6761 -0.2105
   13DOPE   H2S 1574   3.972   2.995  13.320  0.7822 -0.5278  1.6586
   13DOPE    C3 1575   3.588   2.795  13.251  0.1659  0.8903  0.4271
   13DOPE    HX 1576   3.565   2.900  13.277 -0.4244  0.5150  1.4703
   13DOPE    HY 1577   3.501   2.729  13.272  0.2319  1.0796  1.3095
   13DOPE   O31 1578   3.610   2.775  13.112  0.2159 -0.0877  0.2832
   13DOPE   C31 1579   3.681   2.874  13.060  0.2589  0.4073  0.0372
   13DOPE   O32 1580   3.708   2.980  13.112  0.2723 -0.2009  0.4625
   13DOPE   C32 1581   3.732   2.836  12.924 -0.0830 -0.6743  0.2273
   13DOPE   H2X 1582   3.842   2.827  12.923 -0.1705 -2.0443  0.4289
   13DOPE   H2Y 1583   3.687   2.738  12.897 -0.1172 -0.3935 -0.8129
   13DOPE   C23 1584   4.123   2.912  13.198 -0.2061 -0.0067 -0.5218
   13DOPE   H3R 1585   4.136   2.826  13.129  2.7584  0.0774 -0.1881
   13DOPE   H3S 1586   4.220   2.922  13.251 -0.1386  0.9987 -0.8126
   13DOPE   C24 1587   4.087   3.034  13.110  0.0669 -0.3592 -0.7230
   13DOPE   H4R 1588   4.078   3.128  13.168  2.1026 -0.0980 -0.7596
   13DOPE   H4S 1589   3.982   3.019  13.076 -0.6915  2.0539  0.3389
   13DOPE   C25 1590   4.182   3.047  12.997 -0.3167 -1.1025 -0.5538
   13DOPE   H5R 1591   4.173   2.968  12.919 -2.7940 -2.0336  0.5663
   13DOPE   H5S 1592   4.287   3.040  13.031 -0.4895 -0.6322  0.0958
   13DOPE   C26 1593   4.174   3.184  12.929 -0.0547 -0.1735 -0.0827
   13DOPE   H6R 1594   4.200   3.257  13.009  0.6149  0.5800 -0.9628
   13DOPE   H6S 1595   4.075   3.227  12.903  0.6543  0.4067 -1.9718
   13DOPE   C27 1596   4.271   3.203  12.816 -0.3293  0.4533 -0.9621
   13DOPE   H7R 1597   4.372   3.174  12.852  0.1988  2.2336 -0.9347
   13DOPE   H7S 1598   4.272   3.309  12.784  1.5002  0.6007 -0.5017
   13DOPE   C28 1599   4.226   3.122  12.692 -0.0287 -0.2864  0.2305
   13DOPE   H8R 1600   4.129   3.169  12.664 -0.3523 -0.9273  0.2437
   13DOPE   H8S 1601   4.203   3.015  12.712  2.1191 -1.0335 -0.9626
   13DOPE   C29 1602   4.329   3.126  12.582 -0.3875 -0.0074 -0.8377
   13DOPE   H9R 1603   4.430   3.167  12.597  0.0976 -1.0157 -1.2427
   13DOPE  C210 1604   4.299   3.094  12.452 -0.5163  0.0744  0.7920
   13DOPE  H10R 1605   4.387   3.077  12.387  0.6370 -0.2816  2.3716
   13DOPE  C211 1606   4.160   3.056  12.403 -0.5582  1.1694  0.1312
   13DOPE  H11R 1607   4.101   3.150  12.388 -1.1201  0.6519 -1.0394
   13DOPE  H11S 1608   4.127   2.992  12.487 -1.7632  1.4349 -0.1135
   13DOPE  C212 1609   4.169   2.983  12.270 -0.9213  0.5822  0.4176
   13DOPE  H12R 1610   4.070   2.935  12.252 -0.2358 -1.1957  1.1678
   13DOPE  H12S 1611   4.233   2.893  12.271 -0.6548  0.6443 -2.3976
   13DOPE  C213 1612   4.210   3.072  12.148 -0.0595  0.3660 -0.8664
   13DOPE  H13R 1613   4.320   3.088  12.159 -0.2819  1.8078 -0.6230
   13DOPE  H13S 1614   4.168   3.174  12.141  0.5226  1.1160  3.5655
   13DOPE  C214 1615   4.194   2.984  12.017  0.0635 -0.5846 -0.4107
   13DOPE  H14R 1616   4.085   2.962  12.017  0.1026 -0.9374  1.0943
   13DOPE  H14S 1617   4.250   2.889  12.035  0.6753 -0.3214 -0.9192
   13DOPE  C215 1618   4.226   3.074  11.895  0.0195 -0.1591  0.2929
   13DOPE  H15R 1619   4.326   3.116  11.918 -0.6603  1.0804  1.1525
   13DOPE  H15S 1620   4.142   3.147  11.882  1.4316  1.3092 -1.0990
   13DOPE  C216 1621   4.235   2.999  11.763 -0.4638  0.0177 -0.1690
   13DOPE  H16R 1622   4.160   2.916  11.760 -1.3501  0.8204 -1.2839
   13DOPE  H16S 1623   4.326   2.936  11.764  1.8970  3.1955  1.6832
   13DOPE  C217 1624   4.249   3.082  11.634  0.7805 -0.8971 -0.3786
   13DOPE  H17R 1625   4.339   3.147  11.637  0.5324 -0.5430 -0.4153
   13DOPE  H17S 1626   4.163   3.153  11.642 -0.6981 -2.6998  0.4168
   13DOPE  C218 1627   4.253   3.002  11.508 -0.0968  0.4823  0.6110
   13DOPE  H18R 1628   4.259   3.061  11.415 -2.1632  0.2939  0.3037
   13DOPE  H18S 1629   4.157   2.946  11.498  0.0577  0.3273 -0.0155
   13DOPE  H18T 1630   4.336   2.928  11.514 -1.1032 -0.5988  2.2716
   13DOPE   C33 1631   3.695   2.955  12.825 -1.0156 -0.1858 -0.0927
   13DOPE   H3X 1632   3.756   3.047  12.836  0.6720 -1.3784  0.9986
   13DOPE   H3Y 1633   3.591   2.988  12.845 -1.2510 -1.7429  1.4751
   13DOPE   C34 1634   3.711   2.912  12.672  0.2301 -0.2369 -0.0622
   13DOPE   H4X 1635   3.816   2.910  12.635  0.4051 -1.1726  0.4475
   13DOPE   H4Y 1636   3.671   2.809  12.666 -0.1298 -0.0976 -0.0827
   13DOPE   C35 1637   3.643   2.998  12.562  0.0579  0.0634 -0.0831
   13DOPE   H5X 1638   3.669   3.105  12.575 -2.5945  0.9584 -1.3937
   13DOPE   H5Y 1639   3.534   2.995  12.581  0.2384 -0.7934  0.8761
   13DOPE   C36 1640   3.675   2.951  12.417  0.0657  0.1022 -0.0001
   13DOPE   H6X 1641   3.638   2.847  12.406  2.2098 -0.8502  1.0452
   13DOPE   H6Y 1642   3.785   2.945  12.403  0.1384 -0.6650  0.8255
   13DOPE   C37 1643   3.605   3.035  12.314  0.1483  0.2260 -0.3013
   13DOPE   H7X 1644   3.498   3.026  12.340  0.7211  0.7611  2.5333
   13DOPE   H7Y 1645   3.626   3.143  12.327  1.1675  0.0653 -0.4816
   13DOPE   C38 1646   3.632   2.999  12.166  0.2092 -0.6814 -0.0078
   13DOPE   H8X 1647   3.729   3.048  12.144  0.0162 -0.0291  0.5415
   13DOPE   H8Y 1648   3.560   3.054  12.102  1.6232  0.7776 -0.4164
   13DOPE   C39 1649   3.634   2.850  12.131 -0.4277 -0.2726 -0.3615
   13DOPE   H9X 1650   3.602   2.775  12.205  2.1911 -2.2686 -1.0908
   13DOPE  C310 1651   3.696   2.801  12.026 -1.5751  0.4562 -0.0452
   13DOPE  H10X 1652   3.680   2.693  12.010  1.1352 -0.3279  1.7999
   13DOPE  C311 1653   3.759   2.868  11.910 -0.0214  0.8735  0.0601
   13DOPE  H11X 1654   3.712   2.969  11.910 -2.4423 -0.1429  2.5658
   13DOPE  H11Y 1655   3.869   2.884  11.922  0.0107  0.1559  0.7647
   13DOPE  C312 1656   3.726   2.796  11.778 -0.3605  0.0476 -0.2324
   13DOPE  H12X 1657   3.786   2.703  11.768 -1.0910 -0.3227 -1.3410
   13DOPE  H12Y 1658   3.766   2.870  11.705 -0.4756 -0.1835 -0.5312
   13DOPE  C313 1659   3.571   2.766  11.748  0.3362  0.2402 -0.0208
   13DOPE  H13X 1660   3.527   2.685  11.809  1.3271 -0.4464 -0.1936
   13DOPE  H13Y 1661   3.521   2.864  11.764  0.2485  0.0715  0.7662
   13DOPE  C314 1662   3.547   2.723  11.598 -0.3280  0.0943  0.2696
   13DOPE  H14X 1663   3.600   2.626  11.580  2.0383  1.3093  0.3059
   13DOPE  H14Y 1664   3.600   2.793  11.531  0.0203 -2.1094 -1.9130
   13DOPE  C315 1665   3.402   2.728  11.565 -0.4979 -0.2336 -0.2466
   13DOPE  H15X 1666   3.361   2.828  11.591 -0.7232 -1.1658  3.5275
   13DOPE  H15Y 1667   3.334   2.652  11.610 -0.7367 -0.6512 -1.2945
   13DOPE  C316 1668   3.378   2.717  11.415 -0.2067  0.2212 -0.2557
   13DOPE  H16X 1669   3.417   2.617  11.385 -0.5649  0.0825 -0.2581
   13DOPE  H16Y 1670   3.440   2.791  11.359 -0.5010 -0.9273 -2.1920
   13DOPE  C317 1671   3.230   2.715  11.367 -0.4306  0.3094 -0.8006
   13DOPE  H17X 1672   3.215   2.679  11.263 -1.4511  1.2111 -0.9826
   13DOPE  H17Y 1673   3.167   2.652  11.433  1.0893 -0.7464 -0.2955
   13DOPE  C318 1674   3.169   2.859  11.357 -0.5468 -0.0238  0.3924
   13DOPE  H18X 1675   3.244   2.932  11.322 -2.2192  0.9952 -1.2491
   13DOPE  H18Y 1676   3.098   2.853  11.272  2.1644 -1.8129 -1.9385
   13DOPE  H18Z 1677   3.120   2.878  11.455 -4.4517  0.4813 -1.4646
   14DOPE     N 1678   6.523   4.787  13.928 -0.4887  0.8331 -0.0606
   14DOPE   HN1 1679   6.563   4.696  13.897 -0.5369  0.0735  1.9502
   14DOPE   HN2 1680   6.573   4.859  13.872  0.8463  0.7115  0.9093
   14DOPE   HN3 1681   6.557   4.814  14.023 -0.7136  0.0168  0.2580
   14DOPE   C12 1682   6.378   4.806  13.905 -0.2200 -0.5106  0.1127
   14DOPE  H12A 1683   6.358   4.914  13.924  0.4578 -0.3762  0.1162
   14DOPE  H12B 1684   6.322   4.741  13.976 -0.6632 -0.8360 -0.5282
   14DOPE   C11 1685   6.345   4.771  13.761  0.3266 -0.3054  0.0992
   14DOPE  H11A 1686   6.247   4.814  13.732  1.6211  0.7334 -3.3000
   14DOPE  H11B 1687   6.335   4.661  13.751  0.9214 -0.2387 -1.5941
   14DOPE     P 1688   6.420   4.803  13.507  0.3044  0.2618 -0.1378
   14DOPE   O13 1689   6.457   4.666  13.478  0.2603  0.6335 -0.3655
   14DOPE   O14 1690   6.487   4.911  13.434 -0.0539  0.3029 -0.1344
   14DOPE   O11 1691   6.258   4.824  13.488 -0.7695  0.5080  0.6284
   14DOPE   O12 1692   6.435   4.824  13.664 -0.4688  0.0816 -0.0709
   14DOPE    C1 1693   6.216   4.843  13.354  0.2542  0.1781  0.0782
   14DOPE    HA 1694   6.107   4.823  13.351  0.1106  0.8737  0.3898
   14DOPE    HB 1695   6.268   4.777  13.281 -0.3025  0.2160 -0.3527
   14DOPE    C2 1696   6.234   4.993  13.308  0.4811  0.1536 -0.5003
   14DOPE    HS 1697   6.339   5.027  13.318  0.5522 -0.3249  0.5041
   14DOPE   O21 1698   6.157   5.078  13.397 -0.1989 -0.8931 -0.0418
   14DOPE   C21 1699   6.176   5.211  13.378 -0.2001 -0.6104 -0.3523
   14DOPE   O22 1700   6.268   5.268  13.328  0.0767 -0.4954  0.4296
   14DOPE   C22 1701   6.062   5.277  13.469 -0.3586 -0.3894  0.7064
   14DOPE   H2R 1702   6.103   5.256  13.570  0.4194 -0.2950  0.4195
   14DOPE   H2S 1703   5.968   5.219  13.457 -0.2357 -0.1409 -2.4725
   14DOPE    C3 1704   6.196   5.006  13.160  0.7297 -0.1183  0.8292
   14DOPE    HX 1705   6.215   5.107  13.117  2.4899 -1.2105 -1.1319
   14DOPE    HY 1706   6.088   4.986  13.144  0.6173  0.9154  0.1862
   14DOPE   O31 1707   6.262   4.904  13.085  0.4829 -0.0253 -0.5262
   14DOPE   C31 1708   6.369   4.936  13.022 -0.2678  0.2718 -0.0524
   14DOPE   O32 1709   6.438   5.033  13.034 -0.0851 -1.0272  0.0579
   14DOPE   C32 1710   6.395   4.813  12.936  0.2902 -0.2925 -0.4853
   14DOPE   H2X 1711   6.496   4.785  12.973  0.1921  2.3743  2.2409
   14DOPE   H2Y 1712   6.330   4.726  12.959 -1.6254  0.6768 -1.9956
   14DOPE   C23 1713   6.044   5.427  13.442 -0.0814 -0.1148 -0.2078
   14DOPE   H3R 1714   6.141   5.476  13.467 -0.2206 -0.5100  1.2200
   14DOPE   H3S 1715   5.957   5.459  13.503 -1.1071  0.5683 -1.9743
   14DOPE   C24 1716   6.014   5.459  13.297  0.5505 -0.6603 -0.6048
   14DOPE   H4R 1717   5.911   5.423  13.279 -0.3466  2.0146 -1.3526
   14DOPE   H4S 1718   6.084   5.412  13.226 -0.8964 -2.2043 -1.0575
   14DOPE   C25 1719   6.000   5.613  13.273  0.2553  0.5770  0.6529
   14DOPE   H5R 1720   6.097   5.664  13.292 -0.7487  2.4087  1.0944
   14DOPE   H5S 1721   5.928   5.668  13.337 -1.2268  2.0773 -2.1220
   14DOPE   C26 1722   5.964   5.652  13.123  0.3186  0.0839 -0.0590
   14DOPE   H6R 1723   5.857   5.621  13.123  0.7180 -1.6908  3.1470
   14DOPE   H6S 1724   6.025   5.594  13.051  0.9309  3.4444 -2.4399
   14DOPE   C27 1725   5.975   5.801  13.106 -0.8901 -1.0486  0.4401
   14DOPE   H7R 1726   6.078   5.832  13.130 -1.4442  1.4165 -0.0404
   14DOPE   H7S 1727   5.920   5.852  13.188 -1.3918 -1.1430  0.1740
   14DOPE   C28 1728   5.912   5.857  12.976  0.0228 -0.0890 -0.6633
   14DOPE   H8R 1729   5.897   5.965  12.999 -2.4909 -0.9479  2.4539
   14DOPE   H8S 1730   5.808   5.823  12.955  0.3298 -0.8067 -1.0830
   14DOPE   C29 1731   5.998   5.808  12.868  0.0507  0.0163  0.9930
   14DOPE   H9R 1732   6.103   5.838  12.877  0.3636  0.3942 -2.3866
   14DOPE  C210 1733   5.956   5.743  12.753 -0.0799 -0.2911  0.8769
   14DOPE  H10R 1734   6.033   5.703  12.685 -0.8400  2.2121 -1.6903
   14DOPE  C211 1735   5.824   5.699  12.698  0.9999 -0.5440  0.2837
   14DOPE  H11R 1736   5.733   5.748  12.740  0.7042  0.0253 -0.9801
   14DOPE  H11S 1737   5.813   5.588  12.704  3.1777 -0.8071  0.1743
   14DOPE  C212 1738   5.822   5.721  12.545  0.6222 -0.6452 -0.0449
   14DOPE  H12R 1739   5.903   5.663  12.496  0.8580 -1.2481  1.0345
   14DOPE  H12S 1740   5.829   5.831  12.530  1.3442 -0.7120 -0.2381
   14DOPE  C213 1741   5.674   5.682  12.504 -0.2200  0.3674 -0.4783
   14DOPE  H13R 1742   5.599   5.729  12.570 -0.7880 -2.3884  0.9912
   14DOPE  H13S 1743   5.656   5.575  12.527 -1.8489  0.8314  0.5557
   14DOPE  C214 1744   5.646   5.712  12.358  0.3568  0.3708  0.0455
   14DOPE  H14R 1745   5.723   5.664  12.294 -2.4576 -1.4091 -2.1994
   14DOPE  H14S 1746   5.643   5.822  12.343 -0.5970  0.4147  0.4863
   14DOPE  C215 1747   5.513   5.652  12.315 -0.0046 -0.1448 -0.1766
   14DOPE  H15R 1748   5.430   5.672  12.386  0.8731 -0.6566  1.0296
   14DOPE  H15S 1749   5.537   5.546  12.292  1.8179  0.4080 -1.0169
   14DOPE  C216 1750   5.481   5.734  12.181  0.1422 -0.5496  0.1808
   14DOPE  H16R 1751   5.572   5.721  12.118  1.6420  0.0663  2.0932
   14DOPE  H16S 1752   5.475   5.838  12.219  1.2749 -0.4184  0.0360
   14DOPE  C217 1753   5.353   5.692  12.092 -0.1319 -0.2116  0.1898
   14DOPE  H17R 1754   5.353   5.759  12.004  2.2366 -0.2193  0.1288
   14DOPE  H17S 1755   5.264   5.712  12.156  0.7419  0.5962  1.1831
   14DOPE  C218 1756   5.361   5.547  12.049  0.3373  0.0002  0.3420
   14DOPE  H18R 1757   5.447   5.544  11.980 -1.7200  3.6081 -2.7817
   14DOPE  H18S 1758   5.277   5.502  11.991 -0.7996 -0.7648  2.4371
   14DOPE  H18T 1759   5.388   5.474  12.129 -0.3380 -3.7328 -2.5096
   14DOPE   C33 1760   6.400   4.838  12.782 -0.2607 -0.5038  0.5555
   14DOPE   H3X 1761   6.487   4.788  12.734 -1.9899 -0.1518 -3.3892
   14DOPE   H3Y 1762   6.430   4.944  12.771  1.7719 -1.1539 -0.6925
   14DOPE   C34 1763   6.272   4.830  12.707 -0.8896 -0.1702  0.2655
   14DOPE   H4X 1764   6.233   4.726  12.712 -0.4073 -0.3293  0.9495
   14DOPE   H4Y 1765   6.196   4.902  12.745 -1.8146  0.1795 -2.1247
   14DOPE   C35 1766   6.277   4.871  12.559 -0.5133  0.0202  0.3713
   14DOPE   H5X 1767   6.354   4.809  12.507 -3.4412 -3.2212 -0.4701
   14DOPE   H5Y 1768   6.313   4.976  12.551  2.5893 -0.9586  0.1494
   14DOPE   C36 1769   6.145   4.847  12.495 -0.7223  0.1255  0.1263
   14DOPE   H6X 1770   6.072   4.861  12.577  0.3015  0.3070  1.0254
   14DOPE   H6Y 1771   6.134   4.738  12.473 -2.1212  0.2730  0.0198
   14DOPE   C37 1772   6.120   4.921  12.359 -0.6051  0.7950 -1.2683
   14DOPE   H7X 1773   6.178   5.015  12.359  0.4402  0.1812 -0.5813
   14DOPE   H7Y 1774   6.166   4.869  12.272 -0.6551  1.1688 -1.5187
   14DOPE   C38 1775   5.971   4.943  12.330 -0.1797 -1.1286  0.4526
   14DOPE   H8X 1776   5.953   5.018  12.249 -2.0421 -3.0815 -1.0933
   14DOPE   H8Y 1777   5.939   5.004  12.417 -3.1789  1.2415 -2.0551
   14DOPE   C39 1778   5.906   4.807  12.305  0.1090 -0.1456  0.6330
   14DOPE   H9X 1779   5.899   4.742  12.393 -0.6982 -3.0459 -1.4248
   14DOPE  C310 1780   5.843   4.770  12.190 -0.5128  0.5654 -0.1860
   14DOPE  H10X 1781   5.806   4.666  12.190 -0.6500  0.6079  0.6696
   14DOPE  C311 1782   5.836   4.851  12.064 -0.2558 -0.0921 -0.4920
   14DOPE  H11X 1783   5.852   4.959  12.079 -0.7088 -0.2192  1.1654
   14DOPE  H11Y 1784   5.921   4.817  12.001  0.0981 -0.8154  0.3431
   14DOPE  C312 1785   5.699   4.840  11.992 -0.6370 -0.3345  0.1861
   14DOPE  H12X 1786   5.619   4.872  12.062  1.5953  0.4194  2.5761
   14DOPE  H12Y 1787   5.676   4.736  11.960 -1.4243  0.3691 -1.6524
   14DOPE  C313 1788   5.700   4.923  11.861  0.7323 -0.0334 -0.1486
   14DOPE  H13X 1789   5.597   4.950  11.831  0.7156 -0.7966 -0.8450
   14DOPE  H13Y 1790   5.755   5.018  11.873  2.6649 -1.3597  2.4290
   14DOPE  C314 1791   5.763   4.840  11.741  0.0150 -0.0362  0.4911
   14DOPE  H14X 1792   5.698   4.750  11.735  1.9983 -1.6196  1.3278
   14DOPE  H14Y 1793   5.861   4.797  11.772 -0.5565  0.3976  3.1320
   14DOPE  C315 1794   5.780   4.907  11.604  0.5216  0.6199  0.3235
   14DOPE  H15X 1795   5.875   4.874  11.557  0.3729  1.6359 -0.7231
   14DOPE  H15Y 1796   5.785   5.018  11.610 -1.1403  0.7748 -0.6221
   14DOPE  C316 1797   5.656   4.874  11.519 -0.6648 -0.3426 -0.2848
   14DOPE  H16X 1798   5.573   4.913  11.581  0.1928 -1.4226  1.6308
   14DOPE  H16Y 1799   5.652   4.768  11.486 -2.3067  0.4025 -2.7656
   14DOPE  C317 1800   5.664   4.959  11.388  0.1310  0.2300  0.8091
   14DOPE  H17X 1801   5.642   5.065  11.413 -1.8368  0.0917 -0.1346
   14DOPE  H17Y 1802   5.767   4.946  11.349  0.3326 -1.6196  1.8253
   14DOPE  C318 1803   5.576   4.897  11.276 -0.6519  0.7002  0.0237
   14DOPE  H18X 1804   5.471   4.933  11.281 -1.3426 -0.9107 -1.4094
   14DOPE  H18Y 1805   5.614   4.939  11.180 -0.0191 -0.7825 -0.4146
   14DOPE  H18Z 1806   5.578   4.785  11.274 -0.0473  0.6548  1.6579
   15DOPE     N 1807   2.143   3.394  13.590  0.0946  0.4215  0.4248
   15DOPE   HN1 1808   2.153   3.371  13.489 -1.0487  1.7724 -0.0307
   15DOPE   HN2 1809   2.175   3.314  13.648 -0.6892  0.4049  0.8546
   15DOPE   HN3 1810   2.040   3.403  13.599  0.0164 -1.9621  3.6992
   15DOPE   C12 1811   2.212   3.529  13.612 -0.0645 -0.4911  0.2127
   15DOPE  H12A 1812   2.308   3.529  13.555 -0.0053 -1.5397  0.3083
   15DOPE  H12B 1813   2.234   3.531  13.721 -0.2690 -0.4314  0.2521
   15DOPE   C11 1814   2.143   3.666  13.571 -0.4145  0.2313  0.6079
   15DOPE  H11A 1815   2.154   3.679  13.461 -3.4520 -1.2773  0.0052
   15DOPE  H11B 1816   2.193   3.754  13.617 -1.0425  0.7833  0.2550
   15DOPE     P 1817   1.898   3.631  13.506 -0.2932  0.2471  0.5531
   15DOPE   O13 1818   1.768   3.690  13.537 -0.7438 -0.2835  0.2633
   15DOPE   O14 1819   1.908   3.484  13.489 -0.2242 -0.4728  0.0789
   15DOPE   O11 1820   1.950   3.706  13.374 -0.4797 -0.2087  0.6531
   15DOPE   O12 1821   2.010   3.680  13.612  0.3641  0.3801 -0.4489
   15DOPE    C1 1822   1.950   3.847  13.367  0.3956 -0.5497 -0.2751
   15DOPE    HA 1823   2.031   3.895  13.425  0.8195  1.1228 -2.1178
   15DOPE    HB 1824   1.854   3.886  13.407  1.2746  0.8258  0.5441
   15DOPE    C2 1825   1.962   3.893  13.211  0.6608 -0.0900 -0.3896
   15DOPE    HS 1826   1.938   4.001  13.205 -2.1806 -0.7123 -1.8848
   15DOPE   O21 1827   1.868   3.803  13.135  0.1788 -0.2387 -0.0829
   15DOPE   C21 1828   1.740   3.843  13.145 -0.7719 -0.2853 -1.2534
   15DOPE   O22 1829   1.705   3.947  13.197 -0.0139  0.3932 -0.2940
   15DOPE   C22 1830   1.653   3.745  13.072 -0.7443 -0.3503 -0.2723
   15DOPE   H2R 1831   1.554   3.750  13.122 -0.1268  0.9495  0.8647
   15DOPE   H2S 1832   1.694   3.642  13.075 -1.9132 -0.8549 -0.8481
   15DOPE    C3 1833   2.109   3.861  13.159  0.2992  0.8373  0.2065
   15DOPE    HX 1834   2.114   3.752  13.181  1.3325  1.1906  1.9188
   15DOPE    HY 1835   2.189   3.908  13.220  0.9314 -0.6192  0.5614
   15DOPE   O31 1836   2.123   3.877  13.016 -0.6604  0.2172  0.3445
   15DOPE   C31 1837   2.179   3.995  12.977 -0.6506  0.2643 -0.3108
   15DOPE   O32 1838   2.230   4.075  13.052  0.6594  0.3371  0.5553
   15DOPE   C32 1839   2.172   4.007  12.825 -0.6073 -0.3436  0.0771
   15DOPE   H2X 1840   2.176   3.903  12.786 -2.3518 -0.8124  1.0234
   15DOPE   H2Y 1841   2.072   4.048  12.799 -0.2516  0.1592 -0.5220
   15DOPE   C23 1842   1.642   3.767  12.919  0.7507  0.3503  0.1718
   15DOPE   H3R 1843   1.592   3.864  12.899  2.0625  0.6404 -2.0997
   15DOPE   H3S 1844   1.568   3.693  12.880 -1.2451  2.1073  0.4484
   15DOPE   C24 1845   1.767   3.749  12.835  0.1172 -0.2907 -0.1385
   15DOPE   H4R 1846   1.821   3.659  12.871 -0.5585 -0.3381  0.7841
   15DOPE   H4S 1847   1.839   3.829  12.866 -0.5260 -0.7631  2.9346
   15DOPE   C25 1848   1.739   3.744  12.687  0.5820 -0.1004  0.0500
   15DOPE   H5R 1849   1.687   3.841  12.668 -3.0049 -1.7575  0.5759
   15DOPE   H5S 1850   1.668   3.661  12.668  0.5015 -0.2310  0.8764
   15DOPE   C26 1851   1.858   3.749  12.593 -0.2528 -0.9156 -0.1649
   15DOPE   H6R 1852   1.919   3.660  12.620  0.1329  0.3451  3.5850
   15DOPE   H6S 1853   1.911   3.844  12.613 -0.4662 -0.3876 -1.9314
   15DOPE   C27 1854   1.817   3.743  12.449 -0.1435  0.5195  0.6535
   15DOPE   H7R 1855   1.751   3.829  12.427 -2.4250 -0.7702  2.0701
   15DOPE   H7S 1856   1.771   3.642  12.438  1.4275 -0.4761  2.6414
   15DOPE   C28 1857   1.929   3.754  12.346 -0.4345  0.2571  0.5019
   15DOPE   H8R 1858   1.894   3.739  12.242 -1.1898 -2.6858  1.0880
   15DOPE   H8S 1859   1.988   3.663  12.372 -0.1585  0.6538  1.3099
   15DOPE   C29 1860   2.011   3.883  12.352 -0.0928 -0.4258 -0.7302
   15DOPE   H9R 1861   2.038   3.920  12.452  0.8065 -2.6140 -0.0981
   15DOPE  C210 1862   2.028   3.966  12.247 -0.6571 -0.4891 -1.5247
   15DOPE  H10R 1863   2.076   4.064  12.252  0.1242 -0.8272 -2.1469
   15DOPE  C211 1864   1.987   3.940  12.107  0.2296  0.1105  0.8099
   15DOPE  H11R 1865   1.967   4.038  12.058  1.5707  0.0036 -0.0164
   15DOPE  H11S 1866   1.887   3.892  12.103 -0.6800  1.9740  0.0446
   15DOPE  C212 1867   2.070   3.853  12.013 -0.2040 -0.2497 -0.0491
   15DOPE  H12R 1868   1.999   3.833  11.930  0.0676 -1.1656 -0.0701
   15DOPE  H12S 1869   2.093   3.750  12.047 -0.4209 -1.0345 -2.1013
   15DOPE  C213 1870   2.197   3.925  11.969  0.0929 -0.0933 -0.1510
   15DOPE  H13R 1871   2.262   3.920  12.059 -0.1763 -0.1466  0.0424
   15DOPE  H13S 1872   2.177   4.033  11.953 -2.7480 -0.5947 -0.6125
   15DOPE  C214 1873   2.277   3.888  11.844  1.2392 -0.1652 -0.0495
   15DOPE  H14R 1874   2.302   3.780  11.845  0.9568 -0.2497 -1.2773
   15DOPE  H14S 1875   2.379   3.931  11.851  0.6237  1.1734  1.1637
   15DOPE  C215 1876   2.203   3.923  11.710  0.1385 -0.7500  0.2333
   15DOPE  H15R 1877   2.156   4.024  11.717  1.0610 -0.3064  0.1476
   15DOPE  H15S 1878   2.117   3.852  11.705  0.4398 -1.0695 -0.4790
   15DOPE  C216 1879   2.291   3.910  11.593  0.2834 -0.1426  0.0484
   15DOPE  H16R 1880   2.336   3.809  11.583  2.7221  0.9819 -1.3717
   15DOPE  H16S 1881   2.371   3.985  11.609  0.5061 -0.3269 -0.1873
   15DOPE  C217 1882   2.219   3.933  11.458  0.2628  0.0671 -0.0848
   15DOPE  H17R 1883   2.169   4.031  11.477  0.7503 -0.0504  2.0242
   15DOPE  H17S 1884   2.146   3.851  11.445  1.3304 -0.6236 -2.2263
   15DOPE  C218 1885   2.305   3.927  11.329  0.0431  0.1257 -0.2175
   15DOPE  H18R 1886   2.344   3.823  11.327 -0.0694 -0.1035  3.2633
   15DOPE  H18S 1887   2.391   3.998  11.332 -0.1535  0.3501  1.1718
   15DOPE  H18T 1888   2.261   3.955  11.232  1.1445  1.8567 -0.2573
   15DOPE   C33 1889   2.298   4.084  12.773  0.4063  0.3917 -0.3930
   15DOPE   H3X 1890   2.368   4.005  12.738  2.3988  1.6164  0.6559
   15DOPE   H3Y 1891   2.353   4.152  12.842  0.7736  0.3171 -0.6106
   15DOPE   C34 1892   2.269   4.179  12.663 -0.3106 -0.0153 -0.1390
   15DOPE   H4X 1893   2.229   4.111  12.585  2.7323 -2.3413  0.1409
   15DOPE   H4Y 1894   2.203   4.266  12.684  1.4616  1.3751 -0.0699
   15DOPE   C35 1895   2.410   4.229  12.609  0.0273 -0.8681 -0.2301
   15DOPE   H5X 1896   2.472   4.138  12.595  1.3539  0.3068 -2.5120
   15DOPE   H5Y 1897   2.442   4.290  12.696 -0.8436  0.7978 -1.0395
   15DOPE   C36 1898   2.413   4.308  12.470 -0.2775  0.0215  0.4990
   15DOPE   H6X 1899   2.516   4.345  12.455 -0.1151 -0.7085 -0.2652
   15DOPE   H6Y 1900   2.347   4.397  12.479 -1.0004 -0.3543 -0.8518
   15DOPE   C37 1901   2.373   4.220  12.355 -0.0838 -0.3774 -0.7085
   15DOPE   H7X 1902   2.452   4.143  12.341  0.9799  0.4094  0.6570
   15DOPE   H7Y 1903   2.280   4.165  12.382  1.5769 -2.7099  0.7382
   15DOPE   C38 1904   2.350   4.299  12.230 -0.6614  0.1753 -0.8009
   15DOPE   H8X 1905   2.304   4.396  12.258 -0.4467 -0.3771  1.7462
   15DOPE   H8Y 1906   2.270   4.249  12.171 -1.5877  0.2663  0.3263
   15DOPE   C39 1907   2.475   4.323  12.155  0.4141  0.1626  0.5756
   15DOPE   H9X 1908   2.559   4.352  12.221 -1.4006  2.0425  2.2033
   15DOPE  C310 1909   2.500   4.300  12.021  0.5189 -0.3235  0.4063
   15DOPE  H10X 1910   2.599   4.337  11.988  0.9108 -2.5921 -1.2001
   15DOPE  C311 1911   2.406   4.254  11.914  0.0915  0.2495  0.7373
   15DOPE  H11X 1912   2.452   4.169  11.859 -1.0334  0.5830 -0.7639
   15DOPE  H11Y 1913   2.304   4.224  11.946 -0.2822 -0.9962 -1.3972
   15DOPE  C312 1914   2.393   4.369  11.812  0.1689 -0.9493  0.2311
   15DOPE  H12X 1915   2.493   4.418  11.806  0.9356 -1.7258  3.9303
   15DOPE  H12Y 1916   2.320   4.439  11.857 -0.1745 -1.0750 -0.1261
   15DOPE  C313 1917   2.338   4.323  11.682  0.2052  0.2432 -0.6426
   15DOPE  H13X 1918   2.387   4.238  11.630  0.0487 -0.4316  0.2798
   15DOPE  H13Y 1919   2.235   4.287  11.706 -0.7971  2.3389 -1.5470
   15DOPE  C314 1920   2.309   4.443  11.588  0.4025  0.2178 -0.7948
   15DOPE  H14X 1921   2.395   4.509  11.565  0.6152 -0.3193 -1.5603
   15DOPE  H14Y 1922   2.230   4.500  11.642 -0.0510 -2.6835  1.8682
   15DOPE  C315 1923   2.235   4.386  11.462  0.8118 -0.3674 -0.1480
   15DOPE  H15X 1924   2.136   4.345  11.489  0.6576  0.3321  0.3798
   15DOPE  H15Y 1925   2.302   4.316  11.407 -0.0204 -0.5989 -0.8866
   15DOPE  C316 1926   2.211   4.496  11.350 -0.1727  1.0210 -0.5260
   15DOPE  H16X 1927   2.164   4.442  11.265 -0.0373 -2.4820  1.4239
   15DOPE  H16Y 1928   2.315   4.524  11.322 -0.4159  1.1152 -1.3336
   15DOPE  C317 1929   2.131   4.617  11.405  0.6446  0.8898 -0.1789
   15DOPE  H17X 1930   2.046   4.589  11.471  1.0823 -0.4066 -0.1283
   15DOPE  H17Y 1931   2.190   4.677  11.477  1.8171  1.6023 -1.6910
   15DOPE  C318 1932   2.087   4.711  11.297 -0.5495 -0.0002 -0.1819
   15DOPE  H18X 1933   2.066   4.811  11.338  1.8895  0.1229  0.8775
   15DOPE  H18Y 1934   2.167   4.721  11.221 -1.2251 -2.3449 -1.3129
   15DOPE  H18Z 1935   2.008   4.671  11.230 -0.3510  2.3694 -1.9620
   16DOPE     N 1936   0.931   4.001  13.841  0.2334 -0.0020 -0.6085
   16DOPE   HN1 1937   1.003   4.057  13.891 -2.8880  2.8058  1.1398
   16DOPE   HN2 1938   0.865   3.972  13.915 -0.8850  1.6274 -0.9266
   16DOPE   HN3 1939   0.983   3.915  13.814  0.3094  0.7927 -3.2654
   16DOPE   C12 1940   0.867   4.065  13.721 -0.0887  0.1574  0.3168
   16DOPE  H12A 1941   0.943   4.091  13.645 -0.1684  0.4714  0.3401
   16DOPE  H12B 1942   0.816   4.159  13.752 -0.7668  0.3726 -1.3544
   16DOPE   C11 1943   0.773   3.964  13.646 -0.0265 -0.1290 -0.1646
   16DOPE  H11A 1944   0.692   3.941  13.718  0.9677 -1.3710  0.5885
   16DOPE  H11B 1945   0.839   3.878  13.622 -0.3750 -0.2703 -0.6390
   16DOPE     P 1946   0.590   4.024  13.476  0.0200 -0.2185  0.0998
   16DOPE   O13 1947   0.522   4.122  13.559 -0.0488  0.2821 -0.3617
   16DOPE   O14 1948   0.527   3.893  13.474  0.6474  0.2783 -0.0123
   16DOPE   O11 1949   0.592   4.073  13.321  0.1446  0.0192  0.3572
   16DOPE   O12 1950   0.740   4.013  13.519  0.5126  0.1621 -0.0726
   16DOPE    C1 1951   0.680   4.024  13.214 -0.3878  0.9721  0.1906
   16DOPE    HA 1952   0.620   3.994  13.126 -0.3122  0.1164  0.4129
   16DOPE    HB 1953   0.732   3.930  13.243 -0.4667  1.4230  1.9073
   16DOPE    C2 1954   0.795   4.119  13.173  0.0801  0.0285 -0.6224
   16DOPE    HS 1955   0.765   4.221  13.141  1.2895  0.4280 -0.5249
   16DOPE   O21 1956   0.868   4.059  13.066 -0.6672  0.0865 -0.3263
   16DOPE   C21 1957   0.823   4.098  12.948  0.1197 -0.9257  0.2871
   16DOPE   O22 1958   0.727   4.174  12.926 -0.3761 -0.0224  0.7282
   16DOPE   C22 1959   0.903   4.032  12.836  0.0024 -0.5569 -0.7530
   16DOPE   H2R 1960   0.888   3.922  12.844  0.7827 -0.5909  0.5276
   16DOPE   H2S 1961   1.009   4.063  12.844  0.2617 -1.6352  0.2597
   16DOPE    C3 1962   0.901   4.133  13.283 -0.2479  0.0824 -0.4543
   16DOPE    HX 1963   0.926   4.029  13.310  0.5412  0.4438  0.2499
   16DOPE    HY 1964   0.858   4.180  13.374 -1.0111 -0.2944 -0.6103
   16DOPE   O31 1965   1.015   4.208  13.237 -0.3883 -0.0859  0.0995
   16DOPE   C31 1966   1.125   4.188  13.311  0.3253  0.7260 -0.9649
   16DOPE   O32 1967   1.126   4.111  13.408  0.2669 -0.1943 -0.3472
   16DOPE   C32 1968   1.231   4.290  13.268 -0.2077 -0.3575  0.3096
   16DOPE   H2X 1969   1.198   4.346  13.177  2.2147 -2.2742 -1.8833
   16DOPE   H2Y 1970   1.239   4.361  13.353 -1.8939 -2.7506  2.6216
   16DOPE   C23 1971   0.855   4.086  12.698  0.5174 -0.1834 -0.6998
   16DOPE   H3R 1972   0.744   4.089  12.703  0.5768  0.0466  1.6431
   16DOPE   H3S 1973   0.883   4.009  12.623 -0.6676  0.8001 -2.2111
   16DOPE   C24 1974   0.915   4.222  12.651 -0.0854  0.1344  0.0388
   16DOPE   H4R 1975   1.026   4.221  12.642  0.0002 -0.1364  1.0365
   16DOPE   H4S 1976   0.892   4.296  12.730  2.6312  2.7121 -1.3586
   16DOPE   C25 1977   0.853   4.282  12.526 -0.5991  0.8391 -0.2634
   16DOPE   H5R 1978   0.885   4.388  12.522  2.4710 -0.0455 -1.4143
   16DOPE   H5S 1979   0.742   4.270  12.529 -0.3652 -2.8076 -1.0661
   16DOPE   C26 1980   0.917   4.223  12.402 -0.2056  0.0886 -0.0814
   16DOPE   H6R 1981   0.923   4.112  12.401  0.5307  0.1204 -1.7907
   16DOPE   H6S 1982   1.020   4.263  12.415 -0.1513 -0.6498  2.2108
   16DOPE   C27 1983   0.850   4.272  12.276  0.0978  0.0451 -0.2333
   16DOPE   H7R 1984   0.846   4.382  12.289 -1.3862  0.2580 -2.0173
   16DOPE   H7S 1985   0.749   4.228  12.263 -0.3208  1.4304 -2.2226
   16DOPE   C28 1986   0.915   4.245  12.141 -0.0365 -0.0293 -0.1577
   16DOPE   H8R 1987   0.918   4.138  12.112  1.9112 -0.1384  0.3092
   16DOPE   H8S 1988   1.023   4.272  12.148  0.7907 -3.2869  1.6589
   16DOPE   C29 1989   0.838   4.325  12.037 -0.1352  0.2823  1.2344
   16DOPE   H9R 1990   0.784   4.416  12.067 -1.5379 -0.1205  0.0675
   16DOPE  C210 1991   0.815   4.286  11.906 -0.2054 -0.5465  0.6560
   16DOPE  H10R 1992   0.756   4.354  11.843  0.6254  0.0683  0.5263
   16DOPE  C211 1993   0.878   4.160  11.841  0.1911 -1.0742 -0.4773
   16DOPE  H11R 1994   0.827   4.065  11.868 -0.3330 -0.4342  0.8802
   16DOPE  H11S 1995   0.987   4.155  11.860  0.3975  0.1118 -1.2602
   16DOPE  C212 1996   0.858   4.161  11.688 -0.1468 -0.5151  0.6139
   16DOPE  H12R 1997   0.753   4.176  11.655  0.8145 -1.0085 -3.2333
   16DOPE  H12S 1998   0.903   4.065  11.652  0.9726 -1.0855  3.3323
   16DOPE  C213 1999   0.944   4.276  11.625 -0.5117  0.4541 -0.0203
   16DOPE  H13R 2000   1.042   4.237  11.590 -1.2263 -1.5192  0.0363
   16DOPE  H13S 2001   0.971   4.343  11.709 -2.3123 -0.7698  1.6124
   16DOPE  C214 2002   0.869   4.345  11.500 -0.1707  0.4551 -0.3220
   16DOPE  H14R 2003   0.827   4.264  11.436 -0.0272 -1.0628  1.4063
   16DOPE  H14S 2004   0.947   4.387  11.433 -0.3265  0.2676 -0.6233
   16DOPE  C215 2005   0.771   4.449  11.551  0.5614  0.0976  0.6202
   16DOPE  H15R 2006   0.812   4.538  11.604 -0.2904  0.6654  0.3434
   16DOPE  H15S 2007   0.693   4.410  11.620 -0.4783 -0.0662 -0.6084
   16DOPE  C216 2008   0.680   4.513  11.439 -0.8266  0.3608 -0.2511
   16DOPE  H16R 2009   0.744   4.574  11.372  0.9916 -2.0413 -0.8285
   16DOPE  H16S 2010   0.618   4.593  11.485 -0.1784 -0.0202  1.3447
   16DOPE  C217 2011   0.600   4.410  11.358 -0.6975  0.1851  0.6042
   16DOPE  H17R 2012   0.525   4.352  11.416  2.1667 -1.7681  2.5718
   16DOPE  H17S 2013   0.671   4.333  11.324 -0.0833  0.0016  2.1982
   16DOPE  C218 2014   0.533   4.472  11.234  0.4259 -0.7194 -0.0951
   16DOPE  H18R 2015   0.481   4.565  11.267 -1.8259 -2.6017  2.0487
   16DOPE  H18S 2016   0.469   4.392  11.190 -0.2585 -0.5284  0.5236
   16DOPE  H18T 2017   0.605   4.503  11.156 -0.3933 -0.8309 -0.9142
   16DOPE   C33 2018   1.368   4.226  13.244  0.2220 -0.6296  0.4837
   16DOPE   H3X 2019   1.385   4.154  13.327 -0.6421 -0.5193  0.7658
   16DOPE   H3Y 2020   1.446   4.303  13.225 -1.4712  0.5017 -2.5696
   16DOPE   C34 2021   1.372   4.137  13.119  0.5161 -0.5150 -0.2775
   16DOPE   H4X 2022   1.474   4.094  13.116 -0.0256 -1.8578 -0.2117
   16DOPE   H4Y 2023   1.296   4.056  13.125 -1.0304  0.9217  0.4824
   16DOPE   C35 2024   1.346   4.219  12.989  0.1642  0.4051 -0.3898
   16DOPE   H5X 2025   1.385   4.322  12.995 -3.1667  1.7036  1.4397
   16DOPE   H5Y 2026   1.235   4.231  12.987  0.0400  0.8752  3.2510
   16DOPE   C36 2027   1.396   4.133  12.874 -0.3076  0.1497 -0.0949
   16DOPE   H6X 2028   1.369   4.029  12.901 -2.5504  0.1688 -2.0240
   16DOPE   H6Y 2029   1.507   4.132  12.867 -0.2555 -0.0251  0.6809
   16DOPE   C37 2030   1.333   4.162  12.737  0.4776  0.2468  0.0445
   16DOPE   H7X 2031   1.224   4.149  12.749  0.4386 -2.0773 -2.0317
   16DOPE   H7Y 2032   1.354   4.270  12.717 -0.6489  0.3604 -0.6520
   16DOPE   C38 2033   1.380   4.072  12.626 -0.6637  0.1576 -0.4119
   16DOPE   H8X 2034   1.366   3.965  12.653  0.3185  0.3677  1.0162
   16DOPE   H8Y 2035   1.489   4.089  12.612 -0.7901  1.5999  0.1892
   16DOPE   C39 2036   1.309   4.100  12.498 -0.4601 -0.3081 -0.4307
   16DOPE   H9X 2037   1.240   4.186  12.501  0.6822  0.7308 -2.0964
   16DOPE  C310 2038   1.318   4.029  12.388  0.2788  0.2476  1.7914
   16DOPE  H10X 2039   1.281   4.087  12.302  2.1006 -0.4437  0.4734
   16DOPE  C311 2040   1.403   3.904  12.348 -0.0075 -0.6636 -0.2173
   16DOPE  H11X 2041   1.432   3.862  12.446 -1.0547 -0.4526  0.2002
   16DOPE  H11Y 2042   1.342   3.831  12.290  1.4820 -2.2575  0.1328
   16DOPE  C312 2043   1.514   3.939  12.259 -0.7364  0.1618 -0.0599
   16DOPE  H12X 2044   1.571   3.843  12.265  1.0639  1.2486  1.5022
   16DOPE  H12Y 2045   1.573   4.026  12.294 -0.3805  0.7690 -2.0628
   16DOPE  C313 2046   1.475   3.967  12.108  0.0572 -0.5218  0.6033
   16DOPE  H13X 2047   1.389   3.904  12.081  0.0897 -0.9508  1.4662
   16DOPE  H13Y 2048   1.440   4.073  12.110  0.5704 -0.3432  0.4904
   16DOPE  C314 2049   1.595   3.958  12.019 -0.2511  0.0482 -0.4265
   16DOPE  H14X 2050   1.636   3.855  12.025 -1.0626 -0.2497  0.2898
   16DOPE  H14Y 2051   1.680   4.026  12.043  2.1826 -2.6848 -0.7476
   16DOPE  C315 2052   1.567   3.981  11.869 -0.3088 -0.5584 -0.2080
   16DOPE  H15X 2053   1.513   4.077  11.856  3.8253  1.8946 -1.5406
   16DOPE  H15Y 2054   1.509   3.890  11.842 -0.6407 -0.1642 -0.8543
   16DOPE  C316 2055   1.695   3.988  11.777 -0.2636 -0.8328 -0.1724
   16DOPE  H16X 2056   1.740   3.886  11.779 -0.7549 -1.1675 -2.8860
   16DOPE  H16Y 2057   1.768   4.059  11.821 -2.9344  1.2539  1.2132
   16DOPE  C317 2058   1.668   4.031  11.633  0.3998  0.7852  0.7724
   16DOPE  H17X 2059   1.586   3.959  11.612 -0.8539  2.1233  0.9733
   16DOPE  H17Y 2060   1.621   4.131  11.638 -0.8809  0.2431  0.0553
   16DOPE  C318 2061   1.786   4.018  11.542  0.4789  0.6957  0.7006
   16DOPE  H18X 2062   1.878   4.066  11.582  2.0542  0.1124 -1.9799
   16DOPE  H18Y 2063   1.799   3.911  11.517 -3.7390  0.4599 -1.3198
   16DOPE  H18Z 2064   1.754   4.063  11.445 -1.0087 -0.8887  0.4101
   17DOPE     N 2065   3.553   1.864  13.851  0.1001 -0.2738 -0.3871
   17DOPE   HN1 2066   3.463   1.850  13.901  0.9610  3.7031  2.8700
   17DOPE   HN2 2067   3.592   1.769  13.835  0.0304 -0.4030  0.1931
   17DOPE   HN3 2068   3.622   1.909  13.915 -0.0297 -1.6589  0.7674
   17DOPE   C12 2069   3.517   1.945  13.738  0.3138 -0.4682  1.0161
   17DOPE  H12A 2070   3.417   1.918  13.698  0.5293 -0.3829  0.4075
   17DOPE  H12B 2071   3.592   1.927  13.657 -0.7972 -1.1699  0.1165
   17DOPE   C11 2072   3.503   2.093  13.787 -0.3398  0.8205  0.3195
   17DOPE  H11A 2073   3.406   2.096  13.841 -0.9452  1.1743 -0.7530
   17DOPE  H11B 2074   3.491   2.157  13.697 -0.5589  1.8207  1.0416
   17DOPE     P 2075   3.717   2.228  13.827 -0.1698  0.0908  0.3533
   17DOPE   O13 2076   3.844   2.194  13.893 -0.9094 -0.0412  0.1746
   17DOPE   O14 2077   3.667   2.365  13.840  0.4586  0.1414 -0.2646
   17DOPE   O11 2078   3.738   2.188  13.682  0.5209  0.1370 -0.7473
   17DOPE   O12 2079   3.608   2.137  13.881 -0.1618  0.4929  0.5299
   17DOPE    C1 2080   3.823   2.274  13.601  0.4314  0.1573  0.5822
   17DOPE    HA 2081   3.925   2.230  13.602  0.0607 -0.9317 -2.0374
   17DOPE    HB 2082   3.836   2.375  13.645  0.9785 -0.9237  3.0752
   17DOPE    C2 2083   3.769   2.279  13.454  0.0350  0.4313 -0.3509
   17DOPE    HS 2084   3.667   2.322  13.459 -0.3844 -0.3808 -1.5597
   17DOPE   O21 2085   3.762   2.152  13.391  0.2004  0.8209  0.1565
   17DOPE   C21 2086   3.642   2.090  13.401 -0.2529  0.3234  0.1899
   17DOPE   O22 2087   3.549   2.133  13.471 -0.6018  0.8884  0.4861
   17DOPE   C22 2088   3.652   1.955  13.330  0.5630  0.0550 -0.2573
   17DOPE   H2R 2089   3.556   1.907  13.358  0.5344 -0.0124 -0.4623
   17DOPE   H2S 2090   3.731   1.893  13.375 -0.0989 -1.7575 -1.4556
   17DOPE    C3 2091   3.846   2.382  13.365 -0.0528 -0.0498  0.4199
   17DOPE    HX 2092   3.952   2.351  13.351  0.7777  1.2716  3.0391
   17DOPE    HY 2093   3.854   2.481  13.415  0.2463  0.0785  0.1192
   17DOPE   O31 2094   3.782   2.405  13.243 -0.0059 -0.1966 -0.1731
   17DOPE   C31 2095   3.844   2.393  13.126  0.3530  0.1813 -0.3079
   17DOPE   O32 2096   3.958   2.359  13.117  0.1417 -0.0117  0.0025
   17DOPE   C32 2097   3.742   2.419  13.016  0.4843  0.3606 -0.1007
   17DOPE   H2X 2098   3.691   2.323  12.998  1.8966 -0.0528 -2.2376
   17DOPE   H2Y 2099   3.671   2.497  13.051  0.0972 -0.8944  2.1081
   17DOPE   C23 2100   3.658   1.967  13.176 -0.9052  0.1415  0.4735
   17DOPE   H3R 2101   3.756   2.009  13.146 -0.8601  0.6877  1.3567
   17DOPE   H3S 2102   3.581   2.039  13.141 -0.1886  1.3345  1.2877
   17DOPE   C24 2103   3.656   1.835  13.098 -0.0595 -0.1261  0.2860
   17DOPE   H4R 2104   3.553   1.795  13.082  0.9904 -2.8278 -0.3375
   17DOPE   H4S 2105   3.713   1.761  13.157  0.4656  1.1631  1.4327
   17DOPE   C25 2106   3.722   1.836  12.957 -0.6218  0.2447  0.1050
   17DOPE   H5R 2107   3.727   1.730  12.925 -1.3196  0.1082  0.4372
   17DOPE   H5S 2108   3.826   1.872  12.974 -0.1204  0.8847 -3.4262
   17DOPE   C26 2109   3.655   1.934  12.854 -0.2654 -0.5662 -0.5467
   17DOPE   H6R 2110   3.664   2.037  12.894 -1.2018 -1.1055  1.2021
   17DOPE   H6S 2111   3.546   1.910  12.855  0.1001 -2.4559  1.3452
   17DOPE   C27 2112   3.719   1.923  12.711 -0.7492 -0.4240 -0.3704
   17DOPE   H7R 2113   3.732   1.813  12.697 -2.1550 -0.8192  1.1117
   17DOPE   H7S 2114   3.817   1.972  12.725 -0.5790 -1.2049  1.4721
   17DOPE   C28 2115   3.635   1.987  12.592 -0.0309  0.3707  0.1483
   17DOPE   H8R 2116   3.574   2.072  12.630 -0.1785  0.1217  0.4802
   17DOPE   H8S 2117   3.559   1.910  12.564 -1.6155  1.8408  0.2426
   17DOPE   C29 2118   3.723   2.015  12.475  0.4443 -0.0546  0.2961
   17DOPE   H9R 2119   3.812   2.073  12.504  0.5378  1.1367 -2.1472
   17DOPE  C210 2120   3.708   1.987  12.343  0.3742 -0.2125 -0.0257
   17DOPE  H10R 2121   3.790   2.001  12.271 -0.5308  0.5252 -0.9443
   17DOPE  C211 2122   3.598   1.903  12.285 -0.0558  0.6607 -0.0762
   17DOPE  H11R 2123   3.531   1.865  12.364 -3.4699  0.7853 -2.6933
   17DOPE  H11S 2124   3.638   1.804  12.254 -2.1704 -0.4085  0.4233
   17DOPE  C212 2125   3.507   1.957  12.167 -0.0803 -0.0485  0.6892
   17DOPE  H12R 2126   3.455   2.053  12.189  1.1377  0.4662  1.4328
   17DOPE  H12S 2127   3.424   1.884  12.162  0.2238 -0.3831  0.4007
   17DOPE  C213 2128   3.582   1.946  12.031  0.7950 -0.1344 -0.3211
   17DOPE  H13R 2129   3.614   1.840  12.019 -0.0976 -0.5012  0.4446
   17DOPE  H13S 2130   3.670   2.013  12.018  1.2523 -0.6271  0.1533
   17DOPE  C214 2131   3.491   1.980  11.911  0.1966  0.0660  0.3002
   17DOPE  H14R 2132   3.453   2.083  11.923  1.4028  0.7333 -1.2770
   17DOPE  H14S 2133   3.399   1.918  11.923  0.6747 -0.7407 -0.1489
   17DOPE  C215 2134   3.546   1.948  11.780 -0.1422  0.0271  0.6263
   17DOPE  H15R 2135   3.567   1.839  11.768  0.1757  0.2734 -1.5191
   17DOPE  H15S 2136   3.636   2.006  11.749 -0.0120 -0.2669  0.4398
   17DOPE  C216 2137   3.446   1.977  11.666  0.1344 -0.3614 -0.9823
   17DOPE  H16R 2138   3.408   2.081  11.668  1.5857  0.1795  0.7969
   17DOPE  H16S 2139   3.361   1.908  11.686  1.2937 -1.0772  1.9490
   17DOPE  C217 2140   3.510   1.971  11.526  0.3636  0.2097 -0.2421
   17DOPE  H17R 2141   3.559   1.873  11.506 -0.5564 -0.3930  0.3512
   17DOPE  H17S 2142   3.591   2.043  11.508 -0.3185  0.3747 -3.2898
   17DOPE  C218 2143   3.405   1.981  11.413 -0.1800  0.1051  0.4890
   17DOPE  H18R 2144   3.449   2.023  11.320  0.9488  0.2894  1.0851
   17DOPE  H18S 2145   3.322   2.050  11.437 -0.2964  0.5524 -1.0930
   17DOPE  H18T 2146   3.362   1.881  11.392 -0.4817  0.8374 -3.0069
   17DOPE   C33 2147   3.816   2.450  12.888  0.0049 -0.2827 -0.1749
   17DOPE   H3X 2148   3.879   2.368  12.847 -0.1449 -0.0049 -1.0000
   17DOPE   H3Y 2149   3.872   2.545  12.904 -0.2309 -0.3505  1.1030
   17DOPE   C34 2150   3.717   2.475  12.773  0.3983  0.1774  0.1024
   17DOPE   H4X 2151   3.658   2.384  12.750  3.0709 -1.1480 -2.1266
   17DOPE   H4Y 2152   3.644   2.557  12.794  2.1748  1.8864 -0.0557
   17DOPE   C35 2153   3.780   2.502  12.634  0.4457  0.5342 -1.0287
   17DOPE   H5X 2154   3.847   2.416  12.613  0.9804  0.1626  1.8240
   17DOPE   H5Y 2155   3.840   2.595  12.642  0.1319  0.5711  1.9271
   17DOPE   C36 2156   3.682   2.528  12.522  0.6653 -0.2971  0.1633
   17DOPE   H6X 2157   3.616   2.615  12.547 -1.7125 -1.6656 -0.9699
   17DOPE   H6Y 2158   3.615   2.440  12.511  1.3096 -0.5710 -1.8687
   17DOPE   C37 2159   3.752   2.564  12.395 -0.2330 -0.0901 -0.4234
   17DOPE   H7X 2160   3.683   2.609  12.319 -0.1576  1.5764  0.4564
   17DOPE   H7Y 2161   3.830   2.637  12.425 -1.9491  1.4290  0.6118
   17DOPE   C38 2162   3.813   2.432  12.330 -0.3775 -0.2923  0.8518
   17DOPE   H8X 2163   3.879   2.383  12.405  0.3742 -0.2633  0.2238
   17DOPE   H8Y 2164   3.882   2.469  12.251 -2.7962  0.4333 -1.0335
   17DOPE   C39 2165   3.708   2.348  12.267  0.3380 -0.5229  0.5401
   17DOPE   H9X 2166   3.639   2.307  12.342 -1.8109 -0.6782 -1.4219
   17DOPE  C310 2167   3.689   2.310  12.141 -0.6177  0.0008  0.1862
   17DOPE  H10X 2168   3.605   2.243  12.119 -0.3176 -0.3841  0.2109
   17DOPE  C311 2169   3.777   2.360  12.030  0.4202  0.2377  0.5193
   17DOPE  H11X 2170   3.790   2.471  12.031 -0.8546  0.4516 -1.0610
   17DOPE  H11Y 2171   3.874   2.314  12.060  0.3032  1.1234  2.3735
   17DOPE  C312 2172   3.722   2.328  11.885  0.5023 -0.4906 -0.5752
   17DOPE  H12X 2173   3.735   2.220  11.861 -2.3153 -1.4040  1.4533
   17DOPE  H12Y 2174   3.782   2.385  11.811  2.1462 -1.5142 -0.1003
   17DOPE  C313 2175   3.570   2.365  11.876  0.5618 -0.7303  0.1649
   17DOPE  H13X 2176   3.518   2.295  11.945  0.5077 -0.1746  0.7056
   17DOPE  H13Y 2177   3.546   2.466  11.917 -0.6619 -1.6352  1.8117
   17DOPE  C314 2178   3.512   2.356  11.738 -0.2437  0.2636  0.1070
   17DOPE  H14X 2179   3.533   2.254  11.698  0.8132  1.3173 -2.2758
   17DOPE  H14Y 2180   3.563   2.418  11.661  1.0823 -2.1061 -1.0286
   17DOPE  C315 2181   3.363   2.375  11.722  0.7234 -1.1176 -0.6151
   17DOPE  H15X 2182   3.335   2.482  11.733 -1.1809 -1.6192 -0.2099
   17DOPE  H15Y 2183   3.300   2.307  11.784 -1.2209 -0.6702 -1.9851
   17DOPE  C316 2184   3.312   2.345  11.579  0.2097  0.9010  0.2164
   17DOPE  H16X 2185   3.328   2.238  11.553 -2.6315  0.0899  1.3877
   17DOPE  H16Y 2186   3.368   2.408  11.506  1.1271  0.5738  0.6143
   17DOPE  C317 2187   3.162   2.374  11.577 -0.3573  0.1917 -0.2549
   17DOPE  H17X 2188   3.104   2.320  11.655  0.1946 -2.3391 -1.4948
   17DOPE  H17Y 2189   3.138   2.479  11.602  0.1508  0.3072 -0.2639
   17DOPE  C318 2190   3.084   2.341  11.450  0.0071 -0.0367 -0.3428
   17DOPE  H18X 2191   3.080   2.233  11.426 -0.9909  0.2339 -1.4632
   17DOPE  H18Y 2192   2.980   2.378  11.462  0.0500  0.0814 -0.3329
   17DOPE  H18Z 2193   3.132   2.406  11.374  1.4911  2.8035  2.7252
   18DOPE     N 2194   6.492   4.443  13.639  0.0367 -0.2115  0.3991
   18DOPE   HN1 2195   6.390   4.430  13.622  0.0663 -1.1006  0.8143
   18DOPE   HN2 2196   6.522   4.417  13.735  1.2087 -0.3040  0.0175
   18DOPE   HN3 2197   6.514   4.542  13.616 -2.5646  0.3215 -0.1933
   18DOPE   C12 2198   6.551   4.342  13.541  0.0793 -0.0474 -0.1720
   18DOPE  H12A 2199   6.657   4.372  13.524 -0.1340  0.0852 -1.3660
   18DOPE  H12B 2200   6.487   4.348  13.450  0.4392 -0.4453 -0.4545
   18DOPE   C11 2201   6.547   4.201  13.614 -0.5104 -0.3899  0.0470
   18DOPE  H11A 2202   6.602   4.129  13.548  2.4029  0.0165  1.8340
   18DOPE  H11B 2203   6.442   4.167  13.627 -0.6526  0.1183  0.2114
   18DOPE     P 2204   6.766   4.203  13.764  0.0301  0.0241 -0.0210
   18DOPE   O13 2205   6.810   4.067  13.812 -0.4525  0.4712  0.5756
   18DOPE   O14 2206   6.809   4.320  13.842  0.3141 -0.6414 -0.1393
   18DOPE   O11 2207   6.812   4.224  13.613  0.0066  0.2916  0.3155
   18DOPE   O12 2208   6.613   4.213  13.743 -0.0034  0.4830 -0.4739
   18DOPE    C1 2209   6.950   4.261  13.608  0.1947 -0.0601 -0.0516
   18DOPE    HA 2210   7.018   4.181  13.644  1.9577  0.9633 -1.0117
   18DOPE    HB 2211   6.966   4.364  13.647 -0.3792 -0.7487  2.1561
   18DOPE    C2 2212   6.994   4.282  13.457  0.3459 -0.0072  0.0659
   18DOPE    HS 2213   7.097   4.319  13.440 -0.5045  1.8617 -1.5840
   18DOPE   O21 2214   6.902   4.366  13.383  0.1064  0.1857  0.0691
   18DOPE   C21 2215   6.909   4.501  13.409  0.0048  0.5515 -0.0800
   18DOPE   O22 2216   6.994   4.552  13.476 -0.0412  0.5477 -0.5730
   18DOPE   C22 2217   6.790   4.567  13.348 -0.4079 -0.2923 -0.1164
   18DOPE   H2R 2218   6.695   4.550  13.402 -0.1361 -0.3653  0.3415
   18DOPE   H2S 2219   6.787   4.529  13.243  1.9158 -0.6619 -0.1054
   18DOPE    C3 2220   6.994   4.144  13.375  0.1166  0.2734  0.4481
   18DOPE    HX 2221   6.887   4.114  13.366  0.0194  0.2259  1.6454
   18DOPE    HY 2222   7.050   4.069  13.434 -2.4717 -0.6282  1.8982
   18DOPE   O31 2223   7.048   4.168  13.243 -0.0837  0.7226 -0.2424
   18DOPE   C31 2224   7.048   4.056  13.158 -0.7605 -0.1415  0.3982
   18DOPE   O32 2225   7.020   3.944  13.195  0.6856  0.3306 -0.1517
   18DOPE   C32 2226   7.098   4.093  13.012  0.2888  0.0778  0.0528
   18DOPE   H2X 2227   7.105   4.203  12.999  1.6947 -0.0345 -0.2131
   18DOPE   H2Y 2228   7.196   4.043  12.998  0.5715  0.9661 -1.2468
   18DOPE   C23 2229   6.801   4.721  13.352  0.2066  0.5927  0.1696
   18DOPE   H3R 2230   6.836   4.752  13.453  1.5032  0.1091 -0.1161
   18DOPE   H3S 2231   6.700   4.764  13.336 -0.2900 -0.6029  0.0492
   18DOPE   C24 2232   6.886   4.774  13.235 -0.0592  0.6068  0.0678
   18DOPE   H4R 2233   6.986   4.725  13.239 -0.4666 -0.2728 -0.2849
   18DOPE   H4S 2234   6.892   4.884  13.247 -0.4913  0.4297  2.4036
   18DOPE   C25 2235   6.846   4.737  13.084  0.0016  0.0333 -0.3532
   18DOPE   H5R 2236   6.750   4.791  13.068  0.9186  1.3711 -1.6138
   18DOPE   H5S 2237   6.843   4.627  13.069  0.3027  0.0844 -0.8191
   18DOPE   C26 2238   6.948   4.800  12.982  0.7244 -0.4800  0.1634
   18DOPE   H6R 2239   7.051   4.766  13.010  1.5277  1.0778 -0.7843
   18DOPE   H6S 2240   6.938   4.910  12.994  2.4553 -0.2864  0.1667
   18DOPE   C27 2241   6.918   4.757  12.839  0.3325 -0.2761 -0.2803
   18DOPE   H7R 2242   6.928   4.647  12.834  1.2507 -0.1506 -1.5621
   18DOPE   H7S 2243   6.993   4.801  12.769  1.5628  1.7884  2.1785
   18DOPE   C28 2244   6.771   4.793  12.786 -0.6639  0.0720  0.1499
   18DOPE   H8R 2245   6.694   4.760  12.860 -0.5181 -1.5180 -0.3666
   18DOPE   H8S 2246   6.761   4.729  12.696  0.8344  2.0255 -1.4942
   18DOPE   C29 2247   6.746   4.937  12.748  0.4700 -0.2063 -0.5335
   18DOPE   H9R 2248   6.770   5.001  12.834  1.0481 -1.8767  0.6115
   18DOPE  C210 2249   6.713   4.983  12.628  0.6238  0.3758  0.5604
   18DOPE  H10R 2250   6.721   5.091  12.614  2.0911  0.1382 -0.6819
   18DOPE  C211 2251   6.695   4.886  12.513  0.1578 -0.2471  0.1734
   18DOPE  H11R 2252   6.606   4.822  12.533  0.4786 -0.6695  0.2682
   18DOPE  H11S 2253   6.786   4.822  12.513  2.0217  2.1767  2.1164
   18DOPE  C212 2254   6.680   4.944  12.372  0.1092 -0.1678 -0.1904
   18DOPE  H12R 2255   6.676   4.857  12.303  2.0188 -0.5997  0.1708
   18DOPE  H12S 2256   6.776   4.994  12.346  0.3917 -0.9380 -0.6598
   18DOPE  C213 2257   6.566   5.049  12.347 -0.4115  0.4060 -0.9713
   18DOPE  H13R 2258   6.583   5.142  12.406  0.7015  0.0388 -0.6833
   18DOPE  H13S 2259   6.470   5.007  12.383 -0.0209  0.4222  0.1442
   18DOPE  C214 2260   6.556   5.102  12.207 -0.3204  0.5057  0.3216
   18DOPE  H14R 2261   6.542   5.008  12.149  0.8413  0.0893  0.7012
   18DOPE  H14S 2262   6.640   5.156  12.158 -1.0661 -0.2627 -1.9513
   18DOPE  C215 2263   6.430   5.184  12.189  0.0491  0.2388  0.1876
   18DOPE  H15R 2264   6.344   5.117  12.209  0.4464 -0.6457 -0.9451
   18DOPE  H15S 2265   6.419   5.206  12.081  1.0869 -0.5843 -0.1049
   18DOPE  C216 2266   6.423   5.324  12.262  0.5105  0.5104 -0.0693
   18DOPE  H16R 2267   6.514   5.379  12.227  0.4827 -1.2858 -3.4634
   18DOPE  H16S 2268   6.434   5.302  12.370 -0.3764  1.6280  0.2750
   18DOPE  C217 2269   6.284   5.397  12.246  0.5380  0.1996  0.2626
   18DOPE  H17R 2270   6.207   5.321  12.274 -0.0084  0.6060 -0.1001
   18DOPE  H17S 2271   6.260   5.412  12.138 -1.4949 -2.8213  0.1701
   18DOPE  C218 2272   6.270   5.519  12.333 -0.1152  0.0398 -0.8922
   18DOPE  H18R 2273   6.342   5.601  12.314  1.0741  0.1976  3.3477
   18DOPE  H18S 2274   6.294   5.484  12.436  0.2703 -2.4524 -1.7501
   18DOPE  H18T 2275   6.164   5.552  12.338  0.1621  1.2558 -2.2992
   18DOPE   C33 2276   7.001   4.037  12.904 -0.5225  0.3832  0.7382
   18DOPE   H3X 2277   6.896   4.068  12.923 -0.5867 -0.0210  1.0585
   18DOPE   H3Y 2278   7.013   3.928  12.921  0.3442  0.5960  1.5475
   18DOPE   C34 2279   7.035   4.079  12.756 -0.2476 -0.1047  0.4502
   18DOPE   H4X 2280   6.976   4.022  12.680 -0.2857  1.4550 -0.7417
   18DOPE   H4Y 2281   7.005   4.184  12.739  0.0239 -0.0739  0.1453
   18DOPE   C35 2282   7.184   4.082  12.723  0.6169  0.7844  0.2158
   18DOPE   H5X 2283   7.238   3.991  12.759  1.3007  1.4467  0.8885
   18DOPE   H5Y 2284   7.225   4.161  12.789 -1.1694  0.9364  1.1925
   18DOPE   C36 2285   7.205   4.116  12.574 -0.3423  0.4684 -0.4165
   18DOPE   H6X 2286   7.314   4.132  12.563 -0.1861 -1.3394 -2.2257
   18DOPE   H6Y 2287   7.145   4.205  12.545 -1.5712 -0.5610 -1.1385
   18DOPE   C37 2288   7.167   4.002  12.477  0.3458  0.0322 -0.8102
   18DOPE   H7X 2289   7.205   3.908  12.522  1.8015  1.3105  0.7623
   18DOPE   H7Y 2290   7.058   3.989  12.492  0.4023  1.7015  1.5230
   18DOPE   C38 2291   7.203   4.023  12.330  0.9795  0.2819 -0.7989
   18DOPE   H8X 2292   7.193   3.921  12.287 -0.5812 -0.2273  0.6745
   18DOPE   H8Y 2293   7.309   4.047  12.308  1.1103  0.5912  0.1407
   18DOPE   C39 2294   7.093   4.105  12.269 -0.8485 -0.5910  0.1973
   18DOPE   H9X 2295   7.038   4.172  12.336 -0.9051 -0.7280  0.2862
   18DOPE  C310 2296   7.069   4.113  12.137 -0.3829  0.2130 -0.4393
   18DOPE  H10X 2297   6.986   4.172  12.096 -1.0256  1.2464  2.1524
   18DOPE  C311 2298   7.153   4.060  12.024 -0.4158 -0.0438 -0.0693
   18DOPE  H11X 2299   7.255   4.030  12.055 -0.1971  0.7298 -0.0288
   18DOPE  H11Y 2300   7.106   3.970  11.977  1.0715 -0.4597 -0.8290
   18DOPE  C312 2301   7.156   4.161  11.904  0.2127 -0.0729 -0.2596
   18DOPE  H12X 2302   7.202   4.257  11.934  0.8899 -0.2377 -0.7374
   18DOPE  H12Y 2303   7.050   4.185  11.880 -0.4637 -2.6423 -0.1615
   18DOPE  C313 2304   7.229   4.097  11.785  0.3904  0.7694  0.3203
   18DOPE  H13X 2305   7.334   4.078  11.815  0.1635 -0.1615  0.5771
   18DOPE  H13Y 2306   7.190   3.993  11.780  1.7825  0.0776  2.4396
   18DOPE  C314 2307   7.232   4.177  11.657 -0.2337  0.0225 -0.8373
   18DOPE  H14X 2308   7.300   4.131  11.582  1.0630  1.6848 -0.7254
   18DOPE  H14Y 2309   7.275   4.273  11.691 -2.0156 -0.0717  2.0564
   18DOPE  C315 2310   7.096   4.187  11.584 -0.0826  0.2435 -0.3635
   18DOPE  H15X 2311   7.095   4.262  11.501 -2.0737 -0.1181 -0.7241
   18DOPE  H15Y 2312   7.016   4.219  11.654 -0.3561  1.8913 -1.3514
   18DOPE  C316 2313   7.065   4.056  11.509 -0.1760  0.4375 -0.5369
   18DOPE  H16X 2314   7.048   3.977  11.585 -1.0008 -0.2737 -1.4352
   18DOPE  H16Y 2315   7.148   4.028  11.441 -2.1366 -3.4778 -1.6228
   18DOPE  C317 2316   6.954   4.072  11.407  1.0899  0.2828  0.2854
   18DOPE  H17X 2317   6.854   4.083  11.454  0.6219  0.3126 -0.6986
   18DOPE  H17Y 2318   6.959   4.163  11.344 -0.3276 -0.9531 -1.7587
   18DOPE  C318 2319   6.955   3.968  11.297  0.1399 -0.1026 -0.0009
   18DOPE  H18X 2320   6.918   3.874  11.343  1.1254  0.2885  1.6870
   18DOPE  H18Y 2321   6.885   3.996  11.215 -0.2559 -0.0788  0.3424
   18DOPE  H18Z 2322   7.061   3.957  11.266 -0.0893  0.8360 -1.2356
   19DOPE     N 2323   6.684   5.071  13.454  0.3850 -0.3079 -0.0415
   19DOPE   HN1 2324   6.615   4.994  13.447 -0.6956  0.5697  0.6996
   19DOPE   HN2 2325   6.713   5.096  13.357  1.3064 -1.5326 -0.1056
   19DOPE   HN3 2326   6.769   5.037  13.504  1.6672  0.3179 -1.6713
   19DOPE   C12 2327   6.635   5.196  13.527  0.1867 -0.2700 -0.1623
   19DOPE  H12A 2328   6.528   5.204  13.499  0.1503 -1.0402 -0.2830
   19DOPE  H12B 2329   6.681   5.287  13.484  0.5131 -1.8934 -3.5848
   19DOPE   C11 2330   6.650   5.180  13.685 -0.5329  0.1474  0.0773
   19DOPE  H11A 2331   6.592   5.095  13.725  1.5576 -1.0180  0.8060
   19DOPE  H11B 2332   6.610   5.262  13.747 -1.4123 -0.3550  0.1833
   19DOPE     P 2333   6.837   5.005  13.752  0.2951 -0.1071 -0.0445
   19DOPE   O13 2334   6.720   4.935  13.805  0.3588  0.2242 -0.3741
   19DOPE   O14 2335   6.954   5.026  13.838  0.0175 -0.2062 -0.6135
   19DOPE   O11 2336   6.870   4.972  13.606 -0.4451  0.4803  0.1048
   19DOPE   O12 2337   6.786   5.154  13.713  0.1391  0.5570  0.5955
   19DOPE    C1 2338   7.006   4.972  13.563  0.3608 -0.2087 -0.1514
   19DOPE    HA 2339   7.007   4.923  13.463 -0.9605 -0.5072 -0.0505
   19DOPE    HB 2340   7.072   4.905  13.622  2.2034  0.0888 -1.7693
   19DOPE    C2 2341   7.069   5.116  13.548  0.5508  0.7954  0.1718
   19DOPE    HS 2342   7.071   5.172  13.644  0.6640  0.2292  0.4986
   19DOPE   O21 2343   6.982   5.185  13.456 -0.4535 -0.0800  0.0115
   19DOPE   C21 2344   7.021   5.309  13.449  0.6054  0.4486 -0.7935
   19DOPE   O22 2345   7.104   5.366  13.523 -0.1361  0.5965  0.2706
   19DOPE   C22 2346   6.966   5.376  13.329 -0.2299 -0.8625  0.3924
   19DOPE   H2R 2347   6.856   5.362  13.338 -0.9879  2.8863 -1.1833
   19DOPE   H2S 2348   7.014   5.318  13.248  1.6929  0.1372  0.7641
   19DOPE    C3 2349   7.210   5.098  13.483 -0.4756 -0.2991  0.0570
   19DOPE    HX 2350   7.279   5.029  13.536  0.5689  0.3393 -0.4228
   19DOPE    HY 2351   7.265   5.194  13.496  1.7577 -1.5719  0.6030
   19DOPE   O31 2352   7.202   5.051  13.344  0.3599 -0.3083 -0.1778
   19DOPE   C31 2353   7.237   5.128  13.248 -0.2086 -0.4619 -0.5374
   19DOPE   O32 2354   7.292   5.242  13.262  0.2820  0.1759  0.3141
   19DOPE   C32 2355   7.188   5.070  13.115  0.2745 -0.3532 -0.5442
   19DOPE   H2X 2356   7.237   4.970  13.103 -1.4601 -1.0836 -1.9897
   19DOPE   H2Y 2357   7.079   5.049  13.115  0.4029 -1.1204  0.5022
   19DOPE   C23 2358   6.994   5.528  13.308 -0.0706 -0.2624 -0.1838
   19DOPE   H3R 2359   7.091   5.550  13.356 -0.4064  0.3908  0.2124
   19DOPE   H3S 2360   6.929   5.584  13.378  0.6865  0.3058  0.0832
   19DOPE   C24 2361   6.977   5.574  13.164  0.9310  0.6223  0.4412
   19DOPE   H4R 2362   7.045   5.504  13.111 -0.3429  0.4466 -1.0329
   19DOPE   H4S 2363   7.012   5.676  13.136  1.2348 -0.1073 -2.1421
   19DOPE   C25 2364   6.834   5.540  13.114  0.1995  0.6507  0.3484
   19DOPE   H5R 2365   6.760   5.602  13.170 -0.4679  2.5220 -2.4121
   19DOPE   H5S 2366   6.810   5.432  13.126 -0.9623  0.6917 -1.2681
   19DOPE   C26 2367   6.811   5.584  12.969  0.5329 -0.0695 -1.1535
   19DOPE   H6R 2368   6.812   5.695  12.973 -0.8061 -0.0715  0.4369
   19DOPE   H6S 2369   6.710   5.545  12.945  0.8717 -1.6910 -0.1071
   19DOPE   C27 2370   6.916   5.523  12.881  0.4021 -1.0229  0.5413
   19DOPE   H7R 2371   6.956   5.427  12.920 -0.2540 -1.0201  1.2443
   19DOPE   H7S 2372   7.000   5.595  12.872  0.0824 -0.8369 -1.3865
   19DOPE   C28 2373   6.865   5.492  12.733 -0.2825 -0.3126 -0.3190
   19DOPE   H8R 2374   6.956   5.476  12.671  0.4983  0.8518  0.4805
   19DOPE   H8S 2375   6.824   5.587  12.693 -0.1645  0.5749  1.5743
   19DOPE   C29 2376   6.764   5.383  12.722  1.0247 -0.1531  0.2415
   19DOPE   H9R 2377   6.787   5.288  12.772 -0.0360 -0.2952  0.4684
   19DOPE  C210 2378   6.639   5.400  12.665  0.5497 -0.0222  0.5413
   19DOPE  H10R 2379   6.562   5.322  12.670 -0.7461  1.1810  0.2088
   19DOPE  C211 2380   6.608   5.527  12.587  0.0908 -0.5014 -0.0089
   19DOPE  H11R 2381   6.531   5.509  12.510  0.5426  0.4077 -0.6864
   19DOPE  H11S 2382   6.681   5.557  12.509  0.7613 -1.3066  0.2834
   19DOPE  C212 2383   6.556   5.652  12.665 -0.2031  0.0793 -0.0353
   19DOPE  H12R 2384   6.546   5.736  12.593  1.0038 -0.0708 -0.4039
   19DOPE  H12S 2385   6.648   5.682  12.721  0.9763 -0.6656 -1.4901
   19DOPE  C213 2386   6.416   5.621  12.731  0.1623  1.2186  0.4437
   19DOPE  H13R 2387   6.421   5.530  12.795  2.6632  1.9035  1.3103
   19DOPE  H13S 2388   6.344   5.604  12.648 -0.7014  1.9115  1.0369
   19DOPE  C214 2389   6.369   5.745  12.806  0.2595 -0.3358 -0.6862
   19DOPE  H14R 2390   6.258   5.755  12.809  0.0296 -2.3850 -0.9050
   19DOPE  H14S 2391   6.408   5.824  12.738  1.0990 -0.6776 -0.6046
   19DOPE  C215 2392   6.416   5.769  12.948 -0.3050 -1.3235  0.4668
   19DOPE  H15R 2393   6.416   5.879  12.962 -0.5760 -1.4430  1.5475
   19DOPE  H15S 2394   6.525   5.749  12.958  0.1660  0.6077 -0.4992
   19DOPE  C216 2395   6.351   5.686  13.060  0.0693  0.0113  0.1053
   19DOPE  H16R 2396   6.409   5.595  13.086  2.0618  0.5233 -2.2067
   19DOPE  H16S 2397   6.247   5.653  13.039  0.4549 -1.1396 -0.0530
   19DOPE  C217 2398   6.349   5.766  13.183 -0.4630 -0.3922  0.4736
   19DOPE  H17R 2399   6.306   5.709  13.268  1.4023  0.6042  2.1774
   19DOPE  H17S 2400   6.290   5.860  13.177 -2.2226 -1.5057 -0.8008
   19DOPE  C218 2401   6.495   5.803  13.229  0.3116  0.0169 -0.2164
   19DOPE  H18R 2402   6.483   5.890  13.298 -1.3070 -1.1230  1.0208
   19DOPE  H18S 2403   6.564   5.836  13.148 -0.6474  2.2958 -0.1870
   19DOPE  H18T 2404   6.533   5.708  13.272 -0.8265 -0.0337  0.7283
   19DOPE   C33 2405   7.231   5.162  13.001  0.3209  0.3891 -0.3660
   19DOPE   H3X 2406   7.341   5.175  13.000  0.5494  0.1040  3.7638
   19DOPE   H3Y 2407   7.185   5.261  13.022  0.0709 -0.2734  2.7811
   19DOPE   C34 2408   7.175   5.119  12.865 -0.0256  0.5508 -0.0209
   19DOPE   H4X 2409   7.213   5.017  12.842  0.5187  1.1080 -1.7726
   19DOPE   H4Y 2410   7.065   5.105  12.876 -0.0734 -0.8255 -1.7217
   19DOPE   C35 2411   7.213   5.218  12.759 -0.5368  0.1936  0.0833
   19DOPE   H5X 2412   7.321   5.240  12.767 -0.4578 -0.1487 -0.0199
   19DOPE   H5Y 2413   7.164   5.316  12.777 -2.3180 -0.6011 -0.2264
   19DOPE   C36 2414   7.183   5.168  12.618 -0.2529  0.2659 -0.0599
   19DOPE   H6X 2415   7.155   5.061  12.633 -2.6215  1.0049  1.3814
   19DOPE   H6Y 2416   7.275   5.172  12.556 -0.2484 -2.9019 -0.4328
   19DOPE   C37 2417   7.066   5.245  12.558  1.3420  0.1947  0.0249
   19DOPE   H7X 2418   6.982   5.257  12.629 -0.1362 -0.7018 -1.4976
   19DOPE   H7Y 2419   7.106   5.349  12.550  1.3252  0.2985  1.1430
   19DOPE   C38 2420   7.018   5.190  12.421  0.0153  0.2128 -0.0568
   19DOPE   H8X 2421   6.939   5.256  12.378 -0.3542 -0.3412 -0.2358
   19DOPE   H8Y 2422   6.967   5.095  12.450  1.2557 -0.3079  0.4700
   19DOPE   C39 2423   7.126   5.169  12.318  0.9614  0.0428  0.4230
   19DOPE   H9X 2424   7.162   5.264  12.274 -1.1980  1.2209  1.0229
   19DOPE  C310 2425   7.153   5.051  12.256 -0.2033 -0.7382 -0.2600
   19DOPE  H10X 2426   7.235   5.049  12.183 -0.8768 -1.0942 -1.0305
   19DOPE  C311 2427   7.085   4.922  12.280  0.7121  1.2372 -0.0829
   19DOPE  H11X 2428   7.155   4.848  12.326  0.1451  1.0908  0.5637
   19DOPE  H11Y 2429   7.008   4.929  12.360  1.1890 -0.7668  0.6161
   19DOPE  C312 2430   7.027   4.853  12.158 -0.1354 -0.1935  0.6485
   19DOPE  H12X 2431   6.983   4.757  12.191  2.7870 -2.4631 -1.5046
   19DOPE  H12Y 2432   7.113   4.831  12.090 -0.4602  2.2133 -0.6571
   19DOPE  C313 2433   6.928   4.941  12.076  0.9308 -0.0232  0.7898
   19DOPE  H13X 2434   6.839   4.956  12.141 -0.8880 -0.9281 -1.3353
   19DOPE  H13Y 2435   6.973   5.040  12.057  3.7283 -1.2658  0.5551
   19DOPE  C314 2436   6.879   4.880  11.937 -0.6616 -0.7307  0.2162
   19DOPE  H14X 2437   6.842   4.778  11.959 -2.1912 -0.0737  0.8858
   19DOPE  H14Y 2438   6.967   4.870  11.871 -0.7961  1.0823 -0.3077
   19DOPE  C315 2439   6.779   4.973  11.867 -0.6147  0.1349 -0.1789
   19DOPE  H15X 2440   6.851   5.051  11.836  0.4268 -0.5111  0.5516
   19DOPE  H15Y 2441   6.711   5.031  11.933 -1.1152  0.4369 -0.9417
   19DOPE  C316 2442   6.719   4.929  11.736 -0.4197 -0.2681 -0.2012
   19DOPE  H16X 2443   6.627   4.867  11.740 -1.4103  1.1072 -0.9961
   19DOPE  H16Y 2444   6.792   4.859  11.689 -1.7311 -2.9647  1.5783
   19DOPE  C317 2445   6.693   5.048  11.640  0.1447 -0.4536 -0.0505
   19DOPE  H17X 2446   6.783   5.114  11.641  0.5995 -0.9068 -2.7910
   19DOPE  H17Y 2447   6.687   5.017  11.534  0.1964  0.0067 -0.1919
   19DOPE  C318 2448   6.573   5.131  11.671  1.0105  0.1203 -0.3675
   19DOPE  H18X 2449   6.478   5.079  11.646  1.2080 -0.4588  0.0675
   19DOPE  H18Y 2450   6.557   5.159  11.777 -1.7665  1.2693 -0.9804
   19DOPE  H18Z 2451   6.573   5.224  11.610  0.7739  0.8119  0.6597
   20DOPE     N 2452   1.045   0.501  13.628  0.0739  0.5646  0.3382
   20DOPE   HN1 2453   1.117   0.516  13.555 -1.3008 -0.9844 -1.4466
   20DOPE   HN2 2454   1.087   0.429  13.690 -0.4198  0.7665  0.9246
   20DOPE   HN3 2455   0.968   0.449  13.581  0.6168  2.0540 -2.4205
   20DOPE   C12 2456   0.992   0.623  13.687 -0.4468 -0.0817 -0.1378
   20DOPE  H12A 2457   0.989   0.699  13.606  0.8149 -0.9221 -0.9983
   20DOPE  H12B 2458   1.061   0.665  13.764 -1.4393  0.6292  0.3910
   20DOPE   C11 2459   0.846   0.615  13.736  0.0568 -0.4323 -0.3080
   20DOPE  H11A 2460   0.776   0.572  13.661 -0.3880 -0.3029  0.0290
   20DOPE  H11B 2461   0.816   0.721  13.746  0.9120 -0.2833  0.7622
   20DOPE     P 2462   0.734   0.561  13.974 -0.1230 -0.0302  0.0281
   20DOPE   O13 2463   0.663   0.691  13.960  0.2701  0.2330  0.4021
   20DOPE   O14 2464   0.807   0.542  14.099  0.4085  0.3823  0.2079
   20DOPE   O11 2465   0.645   0.435  13.964  0.2253  0.3013 -0.6534
   20DOPE   O12 2466   0.848   0.549  13.862 -0.9069  0.5855 -0.1606
   20DOPE    C1 2467   0.705   0.311  13.927  0.2320 -0.3255  0.3929
   20DOPE    HA 2468   0.662   0.238  13.999  0.4736 -0.3910  0.4722
   20DOPE    HB 2469   0.815   0.308  13.941  0.2991 -0.1007 -0.0535
   20DOPE    C2 2470   0.664   0.265  13.789 -0.5250  0.9381 -0.0777
   20DOPE    HS 2471   0.645   0.349  13.718  0.7934  1.2564 -0.0767
   20DOPE   O21 2472   0.562   0.163  13.804  0.3043 -0.3732  0.2701
   20DOPE   C21 2473   0.438   0.202  13.800 -0.3114 -0.5286 -0.2430
   20DOPE   O22 2474   0.406   0.315  13.785  0.5429 -0.1292 -0.1824
   20DOPE   C22 2475   0.342   0.081  13.813 -0.3012  0.1447 -0.2782
   20DOPE   H2R 2476   0.239   0.121  13.804 -1.1603 -0.9493  3.1930
   20DOPE   H2S 2477   0.359   0.051  13.919 -0.4987  0.0004 -0.2877
   20DOPE    C3 2478   0.781   0.188  13.731  0.4591  0.2653 -0.4480
   20DOPE    HX 2479   0.799   0.097  13.792  0.2627  0.2402 -0.4255
   20DOPE    HY 2480   0.877   0.243  13.738  0.2636  0.5496  0.0620
   20DOPE   O31 2481   0.763   0.147  13.597  0.1334  0.2992  0.4980
   20DOPE   C31 2482   0.772   0.247  13.501 -0.2305 -0.2227 -0.6112
   20DOPE   O32 2483   0.801   0.368  13.534 -0.3550  0.2204  0.7064
   20DOPE   C32 2484   0.767   0.199  13.360  0.1039 -0.1235 -0.3962
   20DOPE   H2X 2485   0.840   0.117  13.342 -0.8864 -1.3792  1.0853
   20DOPE   H2Y 2486   0.666   0.155  13.353 -0.7914  1.7328  0.3355
   20DOPE   C23 2487   0.360  -0.033  13.714 -0.2256  0.0947  0.2757
   20DOPE   H3R 2488   0.296  -0.119  13.743 -1.0231  0.1207 -1.3446
   20DOPE   H3S 2489   0.464  -0.074  13.723 -0.0637  0.6407  1.0285
   20DOPE   C24 2490   0.324  -0.005  13.565 -0.0171  0.3555 -0.2489
   20DOPE   H4R 2491   0.225   0.044  13.583 -1.0133 -0.7922 -2.2781
   20DOPE   H4S 2492   0.307  -0.103  13.517 -0.8623  0.8530 -0.9975
   20DOPE   C25 2493   0.417   0.077  13.481 -0.0006 -0.2221  0.4764
   20DOPE   H5R 2494   0.513   0.021  13.478 -0.5443 -1.1613  0.3434
   20DOPE   H5S 2495   0.428   0.178  13.526 -0.9495 -0.3334  0.9933
   20DOPE   C26 2496   0.365   0.094  13.335  0.2376 -0.5139 -0.3888
   20DOPE   H6R 2497   0.369   0.205  13.321 -1.7163 -0.1641  1.3833
   20DOPE   H6S 2498   0.256   0.072  13.328 -0.4453  2.2924  0.0580
   20DOPE   C27 2499   0.437   0.007  13.228 -0.1226 -0.4023 -0.0715
   20DOPE   H7R 2500   0.423  -0.096  13.266  1.6355 -0.7816 -0.3810
   20DOPE   H7S 2501   0.545   0.034  13.236 -0.3772  0.4593  0.6125
   20DOPE   C28 2502   0.390   0.020  13.082  0.0713  0.2593 -0.1874
   20DOPE   H8R 2503   0.314  -0.061  13.083 -1.3523  1.5611  0.0085
   20DOPE   H8S 2504   0.478  -0.019  13.027 -0.1918  2.4913 -2.3649
   20DOPE   C29 2505   0.340   0.151  13.032  0.2221  0.5663 -0.0385
   20DOPE   H9R 2506   0.355   0.235  13.101 -0.7645  0.7241 -0.0080
   20DOPE  C210 2507   0.257   0.176  12.926 -0.3389 -0.1866 -0.7206
   20DOPE  H10R 2508   0.240   0.282  12.906  1.4366  0.7796  2.2109
   20DOPE  C211 2509   0.216   0.071  12.825  0.4325 -0.8779  0.1049
   20DOPE  H11R 2510   0.114   0.103  12.796  0.5531  1.1743  1.7144
   20DOPE  H11S 2511   0.207  -0.028  12.875 -1.8785  0.5821  2.8003
   20DOPE  C212 2512   0.311   0.072  12.703 -0.3494  0.0616  0.0279
   20DOPE  H12R 2513   0.282  -0.014  12.639  1.7025 -0.1741 -0.6737
   20DOPE  H12S 2514   0.414   0.053  12.742  0.1107 -0.7578 -1.5043
   20DOPE  C213 2515   0.310   0.196  12.617 -0.3113 -0.4896  0.0059
   20DOPE  H13R 2516   0.351   0.284  12.670 -1.3414 -0.3581  0.6154
   20DOPE  H13S 2517   0.205   0.216  12.588  0.1029  2.9137  0.5303
   20DOPE  C214 2518   0.397   0.174  12.494  0.8272 -0.2557 -0.6765
   20DOPE  H14R 2519   0.501   0.148  12.522  0.4754 -0.3061  0.6643
   20DOPE  H14S 2520   0.398   0.273  12.442 -2.8174  1.5222  2.1566
   20DOPE  C215 2521   0.350   0.071  12.390  0.2620  0.4297 -0.9072
   20DOPE  H15R 2522   0.239   0.075  12.381  0.2240  0.0405 -0.6276
   20DOPE  H15S 2523   0.386  -0.031  12.414  0.5983  0.6228 -0.5672
   20DOPE  C216 2524   0.405   0.097  12.252  0.1955 -0.1265  0.0848
   20DOPE  H16R 2525   0.512   0.069  12.246  0.2394 -0.1351  0.7730
   20DOPE  H16S 2526   0.398   0.204  12.222 -2.5696 -0.7189 -1.7428
   20DOPE  C217 2527   0.336  -0.005  12.154 -0.1208 -0.2193  0.2689
   20DOPE  H17R 2528   0.229   0.016  12.135  0.3146  1.0266 -1.0077
   20DOPE  H17S 2529   0.351  -0.103  12.203  1.8250  0.2701  0.7519
   20DOPE  C218 2530   0.406  -0.011  12.022 -0.8109 -0.5293 -0.2399
   20DOPE  H18R 2531   0.424   0.090  11.978  0.0387 -0.9010 -0.7658
   20DOPE  H18S 2532   0.335  -0.061  11.952 -0.2890 -0.3637 -0.8965
   20DOPE  H18T 2533   0.503  -0.065  12.020 -0.1043  0.6503  0.7524
   20DOPE   C33 2534   0.779   0.304  13.249  0.0176 -0.7038 -0.9754
   20DOPE   H3X 2535   0.884   0.339  13.243 -0.2991  0.3304 -0.5588
   20DOPE   H3Y 2536   0.710   0.389  13.266 -1.1583 -1.3193 -2.4065
   20DOPE   C34 2537   0.728   0.253  13.111 -0.3220 -0.0281  0.8486
   20DOPE   H4X 2538   0.759   0.147  13.096  1.2769  0.5182  0.1292
   20DOPE   H4Y 2539   0.618   0.269  13.105  0.0097  3.4208  2.0313
   20DOPE   C35 2540   0.790   0.340  13.002  0.5312  0.8453 -0.7815
   20DOPE   H5X 2541   0.899   0.326  13.013  0.2683  0.3806  1.9935
   20DOPE   H5Y 2542   0.755   0.445  13.014  1.0507  0.8455  1.1025
   20DOPE   C36 2543   0.750   0.297  12.862  0.6317 -0.2147 -0.4239
   20DOPE   H6X 2544   0.715   0.192  12.858  0.9210 -0.4400  1.7460
   20DOPE   H6Y 2545   0.838   0.303  12.794  0.2146  0.2085 -0.9439
   20DOPE   C37 2546   0.629   0.373  12.797  0.2469 -0.3915  0.3798
   20DOPE   H7X 2547   0.576   0.317  12.717  0.5227  0.0031 -0.0917
   20DOPE   H7Y 2548   0.561   0.392  12.882  0.2878 -0.9600  0.5440
   20DOPE   C38 2549   0.669   0.507  12.748 -0.2015 -0.4247  0.0049
   20DOPE   H8X 2550   0.746   0.506  12.669 -1.8570  0.2248 -1.6903
   20DOPE   H8Y 2551   0.719   0.560  12.832  0.7771 -1.7712  0.3103
   20DOPE   C39 2552   0.555   0.594  12.705 -0.3235 -0.2117  0.1500
   20DOPE   H9X 2553   0.491   0.619  12.791 -0.2369  1.7684 -0.3076
   20DOPE  C310 2554   0.520   0.613  12.576 -0.0270  0.0835  0.3647
   20DOPE  H10X 2555   0.433   0.679  12.560  1.4489  1.8380 -0.8690
   20DOPE  C311 2556   0.586   0.564  12.456 -0.2104 -0.3252  1.0981
   20DOPE  H11X 2557   0.657   0.637  12.413 -1.4452  0.5252  0.4588
   20DOPE  H11Y 2558   0.648   0.473  12.475 -1.5566 -0.8913  3.0477
   20DOPE  C312 2559   0.488   0.534  12.340 -0.1017 -0.9706 -0.0072
   20DOPE  H12X 2560   0.453   0.632  12.302 -0.0129 -1.8158 -2.4682
   20DOPE  H12Y 2561   0.401   0.477  12.378 -0.6012 -0.3769 -0.2443
   20DOPE  C313 2562   0.565   0.452  12.230  0.1988  0.2120  0.4379
   20DOPE  H13X 2563   0.650   0.512  12.191  0.4776 -1.0065 -0.9130
   20DOPE  H13Y 2564   0.599   0.357  12.276  2.0164 -0.1797 -1.5183
   20DOPE  C314 2565   0.472   0.435  12.100  0.1087  0.1950 -0.3061
   20DOPE  H14X 2566   0.469   0.538  12.058 -0.7903 -0.0865 -0.9513
   20DOPE  H14Y 2567   0.370   0.399  12.126  0.2193 -0.0729 -0.2366
   20DOPE  C315 2568   0.535   0.350  12.000 -0.3625 -0.4578  0.7360
   20DOPE  H15X 2569   0.553   0.253  12.050 -0.2614  0.7962  3.3058
   20DOPE  H15Y 2570   0.640   0.381  11.978 -0.9667  0.3308 -1.2313
   20DOPE  C316 2571   0.464   0.323  11.866 -0.4816 -0.1686 -0.0271
   20DOPE  H16X 2572   0.433   0.420  11.824 -0.1451 -0.8503 -1.9500
   20DOPE  H16Y 2573   0.372   0.261  11.869 -1.3270  1.0220 -0.9361
   20DOPE  C317 2574   0.556   0.256  11.758  0.0202  0.0897 -0.0853
   20DOPE  H17X 2575   0.641   0.318  11.723  0.1360 -0.6100 -1.0816
   20DOPE  H17Y 2576   0.596   0.162  11.801 -2.3085 -0.6585  0.6110
   20DOPE  C318 2577   0.475   0.223  11.635 -0.0082  0.4499  0.3239
   20DOPE  H18X 2578   0.535   0.164  11.562  1.7029  1.3124  0.9785
   20DOPE  H18Y 2579   0.383   0.164  11.657 -0.1015  0.8283  0.9866
   20DOPE  H18Z 2580   0.434   0.310  11.580  0.2917  0.3493 -0.0618
   21DOPE     N 2581   4.248   1.300  13.544  0.1169  0.6785  0.3144
   21DOPE   HN1 2582   4.289   1.235  13.615 -0.2766 -0.9176 -0.8552
   21DOPE   HN2 2583   4.197   1.379  13.590  1.2242  1.2229  0.6356
   21DOPE   HN3 2584   4.184   1.238  13.490  0.6055  0.9050 -0.5346
   21DOPE   C12 2585   4.356   1.359  13.456 -0.2471  0.5428  0.0755
   21DOPE  H12A 2586   4.318   1.384  13.355 -1.7772  0.2305  0.5352
   21DOPE  H12B 2587   4.429   1.277  13.441  1.4361  2.0602 -0.3733
   21DOPE   C11 2588   4.413   1.490  13.515 -0.6079 -0.1603  0.0699
   21DOPE  H11A 2589   4.490   1.525  13.443 -1.6622 -1.2853 -1.6939
   21DOPE  H11B 2590   4.466   1.462  13.608 -1.6852  2.1177  1.4634
   21DOPE     P 2591   4.339   1.741  13.568 -0.4568  0.5085  0.3940
   21DOPE   O13 2592   4.416   1.741  13.695 -0.4139 -0.0628 -0.6814
   21DOPE   O14 2593   4.213   1.819  13.570 -0.5968  0.3065 -0.0264
   21DOPE   O11 2594   4.433   1.785  13.455  0.4380  0.0826 -0.3028
   21DOPE   O12 2595   4.309   1.584  13.532  0.6606 -0.0360  0.2604
   21DOPE    C1 2596   4.376   1.840  13.337  0.7740  0.0089 -0.3862
   21DOPE    HA 2597   4.451   1.918  13.308  1.3786  0.0054  1.0924
   21DOPE    HB 2598   4.288   1.904  13.360  0.5096 -0.2003 -0.8197
   21DOPE    C2 2599   4.351   1.744  13.215 -0.4591  0.0341  0.1822
   21DOPE    HS 2600   4.308   1.802  13.131  1.1007  0.2138 -0.5458
   21DOPE   O21 2601   4.277   1.629  13.242 -0.0038  0.2906 -0.4410
   21DOPE   C21 2602   4.152   1.655  13.258 -0.1963 -0.9540  0.1955
   21DOPE   O22 2603   4.098   1.764  13.247 -0.1631 -0.1004 -0.7797
   21DOPE   C22 2604   4.072   1.535  13.295  0.5503  0.0503 -0.3218
   21DOPE   H2R 2605   3.968   1.562  13.323  1.7528  2.0840  2.6887
   21DOPE   H2S 2606   4.121   1.506  13.390  2.8166  0.9845 -1.1457
   21DOPE    C3 2607   4.496   1.697  13.164  0.1428  0.0159 -0.0158
   21DOPE    HX 2608   4.550   1.636  13.239  1.9261  0.2016 -1.0880
   21DOPE    HY 2609   4.564   1.785  13.164  0.0262  0.1068 -0.0647
   21DOPE   O31 2610   4.496   1.633  13.035 -0.1781 -0.0259 -0.2779
   21DOPE   C31 2611   4.483   1.726  12.939  0.3139  0.1968 -0.1167
   21DOPE   O32 2612   4.483   1.848  12.959 -0.0169  0.7349  0.6153
   21DOPE   C32 2613   4.465   1.655  12.802  0.0615 -0.5231 -0.3855
   21DOPE   H2X 2614   4.536   1.569  12.799  0.9598  0.0200  2.5404
   21DOPE   H2Y 2615   4.373   1.593  12.805 -1.4781  1.6411 -1.0835
   21DOPE   C23 2616   4.065   1.427  13.188 -0.2742  0.5222 -0.3632
   21DOPE   H3R 2617   4.024   1.329  13.222  0.0929 -0.0249 -1.4374
   21DOPE   H3S 2618   4.170   1.409  13.157 -0.4009  0.2489 -0.6484
   21DOPE   C24 2619   3.979   1.467  13.068  0.7173 -0.5678  0.1801
   21DOPE   H4R 2620   3.906   1.545  13.101  0.9959 -0.7165  1.1875
   21DOPE   H4S 2621   3.928   1.374  13.036 -0.8536 -0.3434  1.8129
   21DOPE   C25 2622   4.064   1.518  12.953 -0.4538  0.8777  0.2136
   21DOPE   H5R 2623   4.109   1.428  12.905 -0.6071  0.1313  1.4357
   21DOPE   H5S 2624   4.147   1.584  12.987  0.5854 -0.3613  0.1596
   21DOPE   C26 2625   3.978   1.603  12.861 -0.2024 -0.1788 -0.0471
   21DOPE   H6R 2626   3.931   1.685  12.918 -1.0171 -1.8171  1.7580
   21DOPE   H6S 2627   3.904   1.532  12.816 -1.7795  0.8725  0.7989
   21DOPE   C27 2628   4.052   1.676  12.736 -0.4230  0.0652  0.2304
   21DOPE   H7R 2629   4.146   1.725  12.769 -1.0682  0.6126  1.3052
   21DOPE   H7S 2630   3.987   1.760  12.702  1.7425  0.6106 -2.9620
   21DOPE   C28 2631   4.093   1.575  12.624  0.4025  0.1144 -0.6205
   21DOPE   H8R 2632   4.162   1.497  12.661  0.2704 -1.1954 -2.9630
   21DOPE   H8S 2633   4.155   1.620  12.544  3.4859 -0.0382  1.4828
   21DOPE   C29 2634   3.971   1.509  12.570 -0.5085  0.2884  0.1703
   21DOPE   H9R 2635   3.942   1.415  12.619 -1.3924  0.5820  0.2429
   21DOPE  C210 2636   3.888   1.558  12.476 -0.7765  0.9665 -0.3245
   21DOPE  H10R 2637   3.806   1.501  12.431  0.3707  0.1676 -1.4843
   21DOPE  C211 2638   3.909   1.688  12.399  0.5305  0.3526  0.4337
   21DOPE  H11R 2639   3.981   1.749  12.457 -0.2639  2.4396 -0.6485
   21DOPE  H11S 2640   3.815   1.747  12.402  0.3587  0.2487 -1.4830
   21DOPE  C212 2641   3.970   1.677  12.255 -0.9667  0.0905  0.6870
   21DOPE  H12R 2642   4.067   1.625  12.274  0.1215  1.3026 -1.1923
   21DOPE  H12S 2643   3.992   1.771  12.199 -1.2390 -1.3597 -2.0021
   21DOPE  C213 2644   3.882   1.603  12.151  0.5776 -0.2130 -0.2734
   21DOPE  H13R 2645   3.779   1.645  12.156  0.6877 -0.0306  0.5959
   21DOPE  H13S 2646   3.885   1.496  12.180  1.7845 -0.1130  0.0278
   21DOPE  C214 2647   3.929   1.630  12.009  0.3006  0.4939 -0.5156
   21DOPE  H14R 2648   4.026   1.577  11.996 -0.2251 -1.1814  1.6253
   21DOPE  H14S 2649   3.952   1.738  12.001  0.0552  1.2013  4.6316
   21DOPE  C215 2650   3.838   1.573  11.903 -0.5597  0.0644 -0.2004
   21DOPE  H15R 2651   3.737   1.619  11.912 -0.5351 -0.3826  3.9522
   21DOPE  H15S 2652   3.821   1.466  11.924  2.9253 -0.2151  2.0393
   21DOPE  C216 2653   3.892   1.588  11.762 -0.1517 -0.3454  0.4673
   21DOPE  H16R 2654   3.979   1.521  11.743  1.2742  1.2762  1.0665
   21DOPE  H16S 2655   3.938   1.685  11.733 -1.6848  0.2648 -0.0123
   21DOPE  C217 2656   3.785   1.552  11.661  0.8783  0.4275  0.4311
   21DOPE  H17R 2657   3.706   1.629  11.676 -1.4129 -1.8240  0.5665
   21DOPE  H17S 2658   3.736   1.457  11.689 -2.4555  1.0922 -2.4316
   21DOPE  C218 2659   3.827   1.555  11.512  0.3064 -0.3893 -0.0488
   21DOPE  H18R 2660   3.922   1.499  11.502  0.2777 -0.1670 -1.8055
   21DOPE  H18S 2661   3.830   1.661  11.479 -0.8045 -0.8414 -1.7420
   21DOPE  H18T 2662   3.766   1.489  11.446  0.4647 -0.2709 -0.3136
   21DOPE   C33 2663   4.459   1.744  12.682  0.0593 -0.4949  0.3755
   21DOPE   H3X 2664   4.555   1.799  12.669 -0.3505  0.0443 -0.4891
   21DOPE   H3Y 2665   4.379   1.820  12.694 -0.9749 -0.9578 -2.5672
   21DOPE   C34 2666   4.433   1.664  12.555  0.1808 -0.5637  0.1594
   21DOPE   H4X 2667   4.523   1.602  12.538  0.5570 -0.2462  0.9370
   21DOPE   H4Y 2668   4.352   1.589  12.570  0.4589 -0.6576  1.3172
   21DOPE   C35 2669   4.405   1.754  12.438  0.2365  0.2277  0.2377
   21DOPE   H5X 2670   4.482   1.834  12.451  0.7534 -0.5806  2.6847
   21DOPE   H5Y 2671   4.302   1.793  12.451  0.9815  2.4622 -0.1612
   21DOPE   C36 2672   4.418   1.687  12.303  1.1388 -0.0517  0.3233
   21DOPE   H6X 2673   4.359   1.594  12.300 -0.3496  0.8973 -1.8025
   21DOPE   H6Y 2674   4.519   1.641  12.305  0.4712 -1.5720  0.7130
   21DOPE   C37 2675   4.382   1.769  12.183  0.0114 -0.5540 -0.0957
   21DOPE   H7X 2676   4.275   1.795  12.195 -0.0630  0.3256 -2.1307
   21DOPE   H7Y 2677   4.431   1.868  12.183  0.9107 -0.9852  0.5043
   21DOPE   C38 2678   4.375   1.697  12.039 -0.1713  0.4056 -0.3466
   21DOPE   H8X 2679   4.340   1.780  11.973 -0.1467  1.5147  0.9839
   21DOPE   H8Y 2680   4.297   1.618  12.038 -0.1487  0.3748 -1.7994
   21DOPE   C39 2681   4.511   1.645  12.000 -0.3888  0.4078  0.3597
   21DOPE   H9X 2682   4.546   1.558  12.058 -1.7793 -0.3186  0.1499
   21DOPE  C310 2683   4.600   1.699  11.911 -0.0046  1.1050  0.0354
   21DOPE  H10X 2684   4.701   1.661  11.892 -0.4014 -0.1057  0.2295
   21DOPE  C311 2685   4.579   1.820  11.829  0.2320  0.2751  0.7832
   21DOPE  H11X 2686   4.505   1.890  11.873 -0.8060  0.2803 -0.8789
   21DOPE  H11Y 2687   4.673   1.877  11.811 -0.9756  1.7308 -1.4850
   21DOPE  C312 2688   4.518   1.800  11.695 -0.2132  0.0966 -0.6275
   21DOPE  H12X 2689   4.519   1.903  11.652  2.4882  0.6755  0.6199
   21DOPE  H12Y 2690   4.415   1.760  11.704 -0.6476  1.5025  1.5385
   21DOPE  C313 2691   4.603   1.704  11.603  0.2117 -0.0521 -0.2999
   21DOPE  H13X 2692   4.619   1.610  11.660  1.8493 -0.8732 -2.0234
   21DOPE  H13Y 2693   4.542   1.689  11.511 -2.4522  1.2336  1.1480
   21DOPE  C314 2694   4.751   1.747  11.584  0.3272  0.7415  0.4200
   21DOPE  H14X 2695   4.794   1.752  11.686  1.1605  2.6438  0.0169
   21DOPE  H14Y 2696   4.762   1.849  11.543  0.5023  1.4658  2.1659
   21DOPE  C315 2697   4.822   1.645  11.499 -0.1499  0.0937  0.2071
   21DOPE  H15X 2698   4.789   1.542  11.524  1.3465 -0.4289  0.1017
   21DOPE  H15Y 2699   4.929   1.651  11.527  0.6343 -2.2560 -1.9553
   21DOPE  C316 2700   4.821   1.666  11.352 -0.3355  0.6820  0.0632
   21DOPE  H16X 2701   4.848   1.767  11.316 -1.2920  0.5624 -1.0559
   21DOPE  H16Y 2702   4.722   1.635  11.310 -0.1357 -0.2194  0.2307
   21DOPE  C317 2703   4.921   1.568  11.289  0.3615  0.1174 -0.8304
   21DOPE  H17X 2704   5.026   1.604  11.287  0.8473 -1.2060 -0.1475
   21DOPE  H17Y 2705   4.932   1.478  11.353 -0.1142 -0.2468 -1.2505
   21DOPE  C318 2706   4.886   1.535  11.148 -0.0156 -0.3583  1.0186
   21DOPE  H18X 2707   4.879   1.626  11.085 -1.7959  0.3585  2.2002
   21DOPE  H18Y 2708   4.958   1.459  11.109 -0.2318 -1.3076  2.3795
   21DOPE  H18Z 2709   4.788   1.484  11.135 -0.8924  1.0583  1.8152
   22DOPE     N 2710   0.754   4.433  14.104 -0.9023 -0.1872  0.2185
   22DOPE   HN1 2711   0.803   4.503  14.165  1.0663  0.5184 -2.0301
   22DOPE   HN2 2712   0.667   4.416  14.158  0.6769 -1.1911  2.6530
   22DOPE   HN3 2713   0.810   4.346  14.097 -1.2172 -0.3694 -0.0571
   22DOPE   C12 2714   0.712   4.477  13.966 -0.3037 -0.2997  0.2171
   22DOPE  H12A 2715   0.637   4.558  13.981  0.2761  0.2772  0.0514
   22DOPE  H12B 2716   0.666   4.387  13.920  0.2874 -1.0241  0.9917
   22DOPE   C11 2717   0.820   4.544  13.877 -0.4737  0.3713  0.2670
   22DOPE  H11A 2718   0.776   4.568  13.778 -0.9183 -1.6964 -0.0814
   22DOPE  H11B 2719   0.897   4.468  13.851 -1.1677 -0.2658  0.0638
   22DOPE     P 2720   1.023   4.699  13.889 -0.2098  0.1710 -0.1104
   22DOPE   O13 2721   1.106   4.582  13.928 -0.0698 -0.0159 -0.3046
   22DOPE   O14 2722   1.067   4.828  13.942  0.1723  0.0201  0.4820
   22DOPE   O11 2723   1.013   4.702  13.735  0.3029  0.0463 -0.0751
   22DOPE   O12 2724   0.878   4.655  13.939  0.4583  0.1383  0.3491
   22DOPE    C1 2725   0.926   4.802  13.676 -0.4819 -0.0354  0.0311
   22DOPE    HA 2726   0.982   4.895  13.653  0.3614 -0.7668 -0.9862
   22DOPE    HB 2727   0.843   4.835  13.743  1.8517  1.9760  2.1028
   22DOPE    C2 2728   0.863   4.745  13.550  0.4609 -1.3314 -0.0656
   22DOPE    HS 2729   0.808   4.653  13.581 -2.7061  1.0128  1.7691
   22DOPE   O21 2730   0.971   4.721  13.452  0.0155  0.0174 -0.2481
   22DOPE   C21 2731   0.930   4.637  13.357 -0.6790 -0.1141  0.7192
   22DOPE   O22 2732   0.837   4.560  13.361  0.1633  0.1964 -0.2444
   22DOPE   C22 2733   1.038   4.629  13.244 -0.4956 -0.5430 -0.2087
   22DOPE   H2R 2734   1.113   4.558  13.287  1.5888  1.0120 -1.0818
   22DOPE   H2S 2735   1.089   4.727  13.239  0.4095 -0.9970 -0.2904
   22DOPE    C3 2736   0.757   4.852  13.493 -0.2209  0.1446  0.1493
   22DOPE    HX 2737   0.797   4.956  13.492 -1.2397  0.5529  0.0324
   22DOPE    HY 2738   0.689   4.869  13.579 -0.7509  1.3145 -0.4678
   22DOPE   O31 2739   0.713   4.823  13.361  0.2864 -0.2930 -0.1499
   22DOPE   C31 2740   0.607   4.744  13.353 -0.4563 -0.6516  0.1897
   22DOPE   O32 2741   0.539   4.711  13.448 -0.0374  0.1114  0.1260
   22DOPE   C32 2742   0.577   4.703  13.211 -0.3499  0.1430 -0.2177
   22DOPE   H2X 2743   0.489   4.768  13.188 -2.0188 -1.2819  1.7664
   22DOPE   H2Y 2744   0.661   4.728  13.143 -0.4308  0.8782 -0.0543
   22DOPE   C23 2745   0.981   4.589  13.101 -0.0720 -0.0777 -0.8611
   22DOPE   H3R 2746   0.892   4.651  13.078  0.9813  1.6433 -0.4775
   22DOPE   H3S 2747   0.943   4.485  13.111  1.2986 -0.4264  1.7042
   22DOPE   C24 2748   1.086   4.603  12.994  0.0835  0.6584  0.5957
   22DOPE   H4R 2749   1.157   4.525  13.030 -0.9068  0.4584  2.1991
   22DOPE   H4S 2750   1.131   4.704  12.981 -0.6108  0.8512 -0.4643
   22DOPE   C25 2751   1.045   4.558  12.850 -0.2338 -0.2906 -0.8889
   22DOPE   H5R 2752   0.970   4.637  12.828 -1.2754 -0.3603  1.9670
   22DOPE   H5S 2753   1.007   4.454  12.845  3.6080 -2.0731  1.7150
   22DOPE   C26 2754   1.166   4.567  12.751 -0.5757  0.3644 -0.0709
   22DOPE   H6R 2755   1.223   4.472  12.758 -0.1905  0.6466  0.8093
   22DOPE   H6S 2756   1.229   4.655  12.777  0.7553 -0.5134 -0.2600
   22DOPE   C27 2757   1.118   4.582  12.605 -0.2356  0.6613  0.1589
   22DOPE   H7R 2758   1.067   4.680  12.592  0.0951  1.0519  1.5979
   22DOPE   H7S 2759   1.048   4.504  12.569  0.0213  0.4715  0.0685
   22DOPE   C28 2760   1.248   4.565  12.511 -0.5896  0.3122 -0.5411
   22DOPE   H8R 2761   1.274   4.457  12.506 -1.3241  0.1840 -2.3599
   22DOPE   H8S 2762   1.331   4.634  12.539 -2.6526  3.3885 -1.4391
   22DOPE   C29 2763   1.220   4.594  12.372  0.9645 -0.2153 -0.1919
   22DOPE   H9R 2764   1.175   4.694  12.371  0.5505 -0.2410  3.1200
   22DOPE  C210 2765   1.224   4.524  12.260  0.5143  0.6619 -0.0791
   22DOPE  H10R 2766   1.192   4.575  12.168 -2.9070 -0.3546  0.3937
   22DOPE  C211 2767   1.296   4.396  12.225  0.1279  0.7061  0.1469
   22DOPE  H11R 2768   1.224   4.316  12.197 -0.0591  0.9943 -0.1996
   22DOPE  H11S 2769   1.343   4.359  12.319  0.3606  1.3324  0.2805
   22DOPE  C212 2770   1.395   4.408  12.112  0.0554 -0.6269 -0.3353
   22DOPE  H12R 2771   1.482   4.343  12.139  0.2157  0.0755  0.9643
   22DOPE  H12S 2772   1.444   4.508  12.117  0.3929 -0.8257  0.6890
   22DOPE  C213 2773   1.333   4.372  11.968 -0.0131 -0.0015  0.7453
   22DOPE  H13R 2774   1.258   4.453  11.950 -0.2341 -0.4737 -0.5412
   22DOPE  H13S 2775   1.284   4.273  11.970  2.2540 -1.1597  1.2433
   22DOPE  C214 2776   1.447   4.381  11.861  0.3844 -0.2771  0.5681
   22DOPE  H14R 2777   1.508   4.292  11.884  0.6986 -0.1267  0.3233
   22DOPE  H14S 2778   1.505   4.475  11.870 -2.1894  1.4850  0.0699
   22DOPE  C215 2779   1.393   4.376  11.719 -0.2306 -0.2498 -0.3545
   22DOPE  H15R 2780   1.286   4.406  11.715 -0.2297 -0.2935 -0.7287
   22DOPE  H15S 2781   1.397   4.270  11.685 -2.1781 -0.8307  1.0032
   22DOPE  C216 2782   1.471   4.466  11.627 -0.0888  0.4983 -0.3395
   22DOPE  H16R 2783   1.574   4.428  11.612  0.1691  0.5175  1.2434
   22DOPE  H16S 2784   1.491   4.568  11.665  0.1143  0.5485 -0.5859
   22DOPE  C217 2785   1.406   4.490  11.487  0.0559  0.2627  0.2737
   22DOPE  H17R 2786   1.371   4.394  11.443  0.9402  0.5134 -1.0297
   22DOPE  H17S 2787   1.488   4.531  11.424  0.9291 -1.7760 -0.0119
   22DOPE  C218 2788   1.289   4.580  11.501  0.7083  0.3547  0.3976
   22DOPE  H18R 2789   1.263   4.629  11.405 -0.1434 -0.4350  0.2083
   22DOPE  H18S 2790   1.315   4.663  11.571  1.6109  1.7627 -1.5346
   22DOPE  H18T 2791   1.201   4.521  11.535  1.5465 -1.6338 -0.7620
   22DOPE   C33 2792   0.542   4.553  13.210  0.6096 -0.4368 -0.0697
   22DOPE   H3X 2793   0.461   4.531  13.282  1.7871 -1.1897  1.0673
   22DOPE   H3Y 2794   0.631   4.492  13.235  1.1191  0.1054 -0.5223
   22DOPE   C34 2795   0.492   4.509  13.072 -0.0345  0.6682 -0.3336
   22DOPE   H4X 2796   0.463   4.402  13.077 -1.6206  1.0476 -0.8495
   22DOPE   H4Y 2797   0.404   4.575  13.057  1.2612  3.0945  1.8790
   22DOPE   C35 2798   0.605   4.513  12.972 -0.3627  0.0046  0.2445
   22DOPE   H5X 2799   0.701   4.481  13.017 -0.0419  1.6187  0.7604
   22DOPE   H5Y 2800   0.627   4.615  12.936  3.3628 -0.3857  1.0445
   22DOPE   C36 2801   0.573   4.429  12.849 -0.6803  0.5189  0.0321
   22DOPE   H6X 2802   0.550   4.326  12.885  0.6217  0.1283 -0.2086
   22DOPE   H6Y 2803   0.667   4.419  12.791 -1.0373 -2.4343 -0.2025
   22DOPE   C37 2804   0.464   4.495  12.761 -0.2501  0.0162  0.2457
   22DOPE   H7X 2805   0.428   4.417  12.691  0.4315 -0.2500  0.1828
   22DOPE   H7Y 2806   0.383   4.538  12.824  1.3923  2.5030  0.7863
   22DOPE   C38 2807   0.514   4.623  12.684 -0.6006  0.4274  1.1435
   22DOPE   H8X 2808   0.608   4.597  12.631 -2.0286 -3.5219  0.2079
   22DOPE   H8Y 2809   0.536   4.714  12.745 -0.7538  1.2303  0.0260
   22DOPE   C39 2810   0.422   4.663  12.566 -0.0002 -0.4943 -0.1766
   22DOPE   H9X 2811   0.341   4.733  12.590 -0.8981 -1.4598 -0.3141
   22DOPE  C310 2812   0.410   4.601  12.444 -0.4593 -0.3940 -0.1936
   22DOPE  H10X 2813   0.347   4.649  12.369  0.5303  0.7096 -0.3529
   22DOPE  C311 2814   0.509   4.501  12.392 -0.1373  0.1200  0.5925
   22DOPE  H11X 2815   0.576   4.470  12.475 -0.3168  0.4224  0.8546
   22DOPE  H11Y 2816   0.457   4.405  12.372  0.6430  0.0912 -1.4881
   22DOPE  C312 2817   0.577   4.537  12.260  0.1310  0.7493 -0.5877
   22DOPE  H12X 2818   0.671   4.478  12.253  0.5476  1.5433 -2.1410
   22DOPE  H12Y 2819   0.596   4.646  12.266 -0.1618  0.7805 -0.2108
   22DOPE  C313 2820   0.488   4.510  12.139  0.2816 -0.8099 -0.7845
   22DOPE  H13X 2821   0.477   4.400  12.121 -0.4126 -0.6712 -1.2689
   22DOPE  H13Y 2822   0.390   4.557  12.159  0.5355  0.2292 -1.8543
   22DOPE  C314 2823   0.530   4.594  12.019 -0.2502 -0.5914  0.7797
   22DOPE  H14X 2824   0.626   4.551  11.983 -1.2164 -0.5963 -2.0375
   22DOPE  H14Y 2825   0.543   4.700  12.051  1.0242 -0.4820 -0.0277
   22DOPE  C315 2826   0.435   4.578  11.900  0.0843  0.1956  0.2425
   22DOPE  H15X 2827   0.335   4.616  11.929  0.8355  0.1339  3.2126
   22DOPE  H15Y 2828   0.414   4.472  11.874  0.0509 -0.2415  1.9458
   22DOPE  C316 2829   0.467   4.656  11.772 -0.9349 -0.4361  0.1756
   22DOPE  H16X 2830   0.572   4.637  11.741 -0.5083 -0.7875  1.7485
   22DOPE  H16Y 2831   0.456   4.759  11.812  0.3326  0.0503 -0.6497
   22DOPE  C317 2832   0.376   4.629  11.649 -0.0016 -0.4702  0.0351
   22DOPE  H17X 2833   0.402   4.530  11.604  3.2330  0.0507  0.5438
   22DOPE  H17Y 2834   0.275   4.623  11.694 -0.1483  1.6927  0.0952
   22DOPE  C318 2835   0.375   4.744  11.551  0.2322 -0.0161  0.3306
   22DOPE  H18X 2836   0.302   4.722  11.470  0.8539 -2.2114  0.3178
   22DOPE  H18Y 2837   0.336   4.831  11.608  2.0908 -0.1326  1.8711
   22DOPE  H18Z 2838   0.477   4.769  11.513  0.2341 -1.0582 -0.3914
   23DOPE     N 2839   6.683   1.451  14.104 -0.1458  0.0768 -0.0333
   23DOPE   HN1 2840   6.749   1.527  14.079  1.1263 -0.1060  2.4634
   23DOPE   HN2 2841   6.731   1.359  14.116 -1.2809 -0.8492 -2.0820
   23DOPE   HN3 2842   6.620   1.435  14.024  0.4984 -0.6756 -0.4102
   23DOPE   C12 2843   6.621   1.487  14.237  0.1429  0.0177 -0.3334
   23DOPE  H12A 2844   6.703   1.500  14.311  0.5754  0.0242 -0.8040
   23DOPE  H12B 2845   6.555   1.406  14.275 -1.5315  1.2013 -0.5923
   23DOPE   C11 2846   6.530   1.614  14.207  0.2890 -0.4692  0.6356
   23DOPE  H11A 2847   6.462   1.638  14.291 -2.6396 -2.0617 -1.1179
   23DOPE  H11B 2848   6.466   1.584  14.121 -0.5655 -3.0487  2.0703
   23DOPE     P 2849   6.570   1.839  14.068  0.5968 -0.3757 -0.2740
   23DOPE   O13 2850   6.653   1.957  14.087  0.7338 -0.0946  0.1220
   23DOPE   O14 2851   6.424   1.864  14.070 -0.6577  0.4201 -0.0490
   23DOPE   O11 2852   6.617   1.755  13.941 -0.0115 -0.5685  0.1015
   23DOPE   O12 2853   6.605   1.734  14.178  0.1054 -0.4051 -0.2489
   23DOPE    C1 2854   6.522   1.688  13.854  0.8190 -0.1557 -0.1592
   23DOPE    HA 2855   6.414   1.697  13.875  0.9813  2.7652 -0.1689
   23DOPE    HB 2856   6.539   1.579  13.841  0.4501 -0.2992  0.5155
   23DOPE    C2 2857   6.545   1.748  13.717 -1.0265 -0.3888 -0.9296
   23DOPE    HS 2858   6.528   1.858  13.717 -0.7147 -0.3386 -0.4953
   23DOPE   O21 2859   6.461   1.670  13.625 -0.0577 -0.1199 -0.1223
   23DOPE   C21 2860   6.411   1.738  13.520 -0.4841 -0.0659 -0.0441
   23DOPE   O22 2861   6.405   1.857  13.504  0.0416 -0.0936  0.1252
   23DOPE   C22 2862   6.384   1.631  13.412  0.9822  0.0500  0.4936
   23DOPE   H2R 2863   6.292   1.573  13.435  1.7536 -1.1494  0.6657
   23DOPE   H2S 2864   6.467   1.557  13.413  2.1466  1.3257  1.2528
   23DOPE    C3 2865   6.692   1.730  13.681 -0.7884 -0.2499 -0.0150
   23DOPE    HX 2866   6.703   1.619  13.678  0.3515 -0.2803  2.7567
   23DOPE    HY 2867   6.759   1.774  13.757 -1.3843  1.2985 -0.3469
   23DOPE   O31 2868   6.716   1.771  13.542 -0.4178  0.4652  0.2014
   23DOPE   C31 2869   6.723   1.907  13.527  0.2300 -0.3059  0.0038
   23DOPE   O32 2870   6.718   1.988  13.619 -0.0304  0.8059  0.0035
   23DOPE   C32 2871   6.716   1.941  13.382 -0.1600  0.6240  0.4034
   23DOPE   H2X 2872   6.821   1.959  13.352  0.4301 -0.4656  1.7161
   23DOPE   H2Y 2873   6.675   1.850  13.335  0.1657  1.1448 -0.9257
   23DOPE   C23 2874   6.363   1.694  13.269 -0.1791  0.3508  0.4706
   23DOPE   H3R 2875   6.429   1.784  13.266  2.8804 -1.7136  1.7312
   23DOPE   H3S 2876   6.255   1.721  13.274 -0.2067  0.0365  2.0260
   23DOPE   C24 2877   6.399   1.602  13.159 -0.1839 -0.0216 -0.3211
   23DOPE   H4R 2878   6.339   1.510  13.168 -2.0793  1.0637 -1.3552
   23DOPE   H4S 2879   6.509   1.585  13.168 -0.0070  0.0034 -2.1016
   23DOPE   C25 2880   6.367   1.654  13.018  0.1843  0.1892  0.5300
   23DOPE   H5R 2881   6.271   1.709  13.006  0.1215 -0.0675 -0.1999
   23DOPE   H5S 2882   6.357   1.567  12.950 -1.2977  0.9526 -0.2845
   23DOPE   C26 2883   6.480   1.730  12.958  0.1425 -0.0567 -0.4979
   23DOPE   H6R 2884   6.573   1.673  12.976 -0.4602 -1.0721 -0.5240
   23DOPE   H6S 2885   6.489   1.833  13.001 -0.6197 -0.2880  0.2649
   23DOPE   C27 2886   6.446   1.733  12.812 -0.4229  0.2177  0.5104
   23DOPE   H7R 2887   6.348   1.782  12.794 -2.0285 -3.5508 -2.1733
   23DOPE   H7S 2888   6.445   1.630  12.772  0.3618 -0.2187  1.5777
   23DOPE   C28 2889   6.545   1.814  12.722  0.7913 -0.8182 -0.1186
   23DOPE   H8R 2890   6.637   1.753  12.710 -0.3922 -2.6319 -0.4167
   23DOPE   H8S 2891   6.565   1.906  12.781  1.2306 -0.5374 -0.6928
   23DOPE   C29 2892   6.485   1.851  12.585  0.3065  0.2399 -0.3317
   23DOPE   H9R 2893   6.402   1.923  12.587 -1.3823 -1.6275  0.0794
   23DOPE  C210 2894   6.514   1.797  12.468  0.3724  0.7321 -0.4756
   23DOPE  H10R 2895   6.449   1.821  12.383 -1.0256  0.0190  0.3544
   23DOPE  C211 2896   6.605   1.682  12.442  0.5210 -0.7811 -0.7291
   23DOPE  H11R 2897   6.562   1.602  12.506 -1.8562  0.9549  0.0263
   23DOPE  H11S 2898   6.703   1.706  12.488  0.3310  2.0495 -1.5810
   23DOPE  C212 2899   6.616   1.638  12.299 -0.1521 -0.2119  0.3030
   23DOPE  H12R 2900   6.513   1.627  12.258  0.3695  0.7998 -1.3742
   23DOPE  H12S 2901   6.672   1.542  12.293  0.5033  0.0380  1.8779
   23DOPE  C213 2902   6.674   1.740  12.203 -0.6410 -0.6876 -0.5548
   23DOPE  H13R 2903   6.756   1.793  12.256 -0.9755 -0.3177 -0.3978
   23DOPE  H13S 2904   6.592   1.811  12.180  0.2222 -0.0113 -1.6314
   23DOPE  C214 2905   6.741   1.678  12.084 -0.6097  0.4158  0.0329
   23DOPE  H14R 2906   6.813   1.599  12.113  1.9006  2.3177 -0.6494
   23DOPE  H14S 2907   6.805   1.758  12.041 -1.4149  0.7619 -0.5498
   23DOPE  C215 2908   6.654   1.629  11.972  0.1013 -0.2872  0.2958
   23DOPE  H15R 2909   6.572   1.697  11.939 -0.4329 -1.3965 -0.6898
   23DOPE  H15S 2910   6.610   1.535  12.011 -1.4516  0.7470  1.1986
   23DOPE  C216 2911   6.742   1.600  11.849  0.5106 -0.0648  0.2431
   23DOPE  H16R 2912   6.833   1.546  11.881  0.5338  0.7064  1.5470
   23DOPE  H16S 2913   6.767   1.703  11.816 -1.0569  0.6505  1.1691
   23DOPE  C217 2914   6.664   1.541  11.730 -0.1997 -0.3449  0.2608
   23DOPE  H17R 2915   6.734   1.521  11.646  0.2244  1.3238  0.1886
   23DOPE  H17S 2916   6.589   1.615  11.697  2.3172  1.6442 -1.4041
   23DOPE  C218 2917   6.612   1.401  11.763  0.1887 -0.1282  0.2343
   23DOPE  H18R 2918   6.685   1.318  11.775 -0.7691 -1.1397 -0.6127
   23DOPE  H18S 2919   6.539   1.372  11.684  0.9918 -0.7628 -0.2896
   23DOPE  H18T 2920   6.554   1.405  11.858  0.8543 -0.2351  0.6493
   23DOPE   C33 2921   6.624   2.067  13.362  0.4412 -0.6548  1.1091
   23DOPE   H3X 2922   6.672   2.155  13.411  1.3303  0.6593 -1.8837
   23DOPE   H3Y 2923   6.523   2.053  13.406  0.3419  0.3944  1.2594
   23DOPE   C34 2924   6.597   2.097  13.216  0.5386 -0.6954  0.1419
   23DOPE   H4X 2925   6.531   2.026  13.162  0.1124 -0.1343 -0.0967
   23DOPE   H4Y 2926   6.539   2.192  13.226 -0.4300 -1.3632  1.0499
   23DOPE   C35 2927   6.722   2.111  13.129 -0.1879 -0.1478 -0.0019
   23DOPE   H5X 2928   6.780   2.017  13.132  0.7101  0.3974  0.1321
   23DOPE   H5Y 2929   6.791   2.188  13.171  0.2672 -0.4959 -0.1065
   23DOPE   C36 2930   6.692   2.154  12.984  0.2684 -0.0915 -0.7937
   23DOPE   H6X 2931   6.652   2.257  12.973 -0.1793 -0.1058  0.5515
   23DOPE   H6Y 2932   6.631   2.088  12.919  0.0904 -0.2620 -0.4600
   23DOPE   C37 2933   6.820   2.163  12.901  0.0964 -0.6378 -0.1315
   23DOPE   H7X 2934   6.902   2.218  12.951 -1.4489  1.5176  0.2019
   23DOPE   H7Y 2935   6.859   2.062  12.876 -0.9119 -0.7906 -1.1844
   23DOPE   C38 2936   6.815   2.253  12.771  0.6743  0.3064 -0.1786
   23DOPE   H8X 2937   6.913   2.259  12.719  0.1321  0.4848 -1.2060
   23DOPE   H8Y 2938   6.792   2.360  12.792 -1.2848  0.1015 -1.0340
   23DOPE   C39 2939   6.705   2.203  12.671  0.0209  1.1812  0.3661
   23DOPE   H9X 2940   6.603   2.232  12.700  0.2552  0.8822  1.5548
   23DOPE  C310 2941   6.714   2.128  12.563 -0.5918 -0.1998  0.1818
   23DOPE  H10X 2942   6.627   2.106  12.500  0.5625 -1.1486 -1.1591
   23DOPE  C311 2943   6.844   2.077  12.494 -0.8238  0.3436 -0.2029
   23DOPE  H11X 2944   6.907   2.046  12.580 -1.9768  0.2608  0.6331
   23DOPE  H11Y 2945   6.814   1.983  12.441  2.7020  0.0658 -1.9702
   23DOPE  C312 2946   6.913   2.171  12.387  0.2693  0.6386  0.8423
   23DOPE  H12X 2947   7.022   2.149  12.383  0.6970  2.7360 -1.5317
   23DOPE  H12Y 2948   6.908   2.278  12.419  1.7046  1.2233 -0.7617
   23DOPE  C313 2949   6.850   2.166  12.245 -0.3846 -0.2546 -0.3400
   23DOPE  H13X 2950   6.740   2.164  12.259 -0.4309  0.4032 -0.5678
   23DOPE  H13Y 2951   6.868   2.260  12.188 -0.1509  0.5227  0.9843
   23DOPE  C314 2952   6.911   2.050  12.166  0.3275  0.1719 -0.3188
   23DOPE  H14X 2953   6.906   1.945  12.203  2.1994 -0.4607 -1.6739
   23DOPE  H14Y 2954   7.018   2.070  12.146  0.5005 -1.8350 -1.7264
   23DOPE  C315 2955   6.865   2.053  12.021  0.6786  0.1814  0.5450
   23DOPE  H15X 2956   6.910   1.968  11.966 -0.6513 -0.3609  0.2348
   23DOPE  H15Y 2957   6.897   2.145  11.967 -0.8964 -0.3511 -1.4273
   23DOPE  C316 2958   6.712   2.047  11.998 -0.2389 -0.0085  0.1352
   23DOPE  H16X 2959   6.675   2.141  12.042  0.4509  0.0839  0.5367
   23DOPE  H16Y 2960   6.664   1.975  12.068 -0.4323  0.6313  0.6645
   23DOPE  C317 2961   6.680   2.024  11.853  0.1405 -0.3736  0.6501
   23DOPE  H17X 2962   6.719   2.107  11.790  0.5625 -0.9104  0.1965
   23DOPE  H17Y 2963   6.720   1.927  11.816  0.7901 -0.3136  1.1757
   23DOPE  C318 2964   6.526   2.030  11.834 -0.2189 -0.4171 -0.0174
   23DOPE  H18X 2965   6.485   1.948  11.896  0.1123  0.1906  1.0386
   23DOPE  H18Y 2966   6.480   2.127  11.861  0.4362  0.7949 -2.8720
   23DOPE  H18Z 2967   6.507   2.015  11.726 -0.8723 -1.4466  0.2335
   24DOPE     N 2968   0.205   5.253  13.998  0.1417  0.6169 -0.4396
   24DOPE   HN1 2969   0.291   5.298  13.958 -0.3906 -0.0306 -2.4223
   24DOPE   HN2 2970   0.222   5.219  14.094  2.9173 -0.0196 -1.0565
   24DOPE   HN3 2971   0.176   5.161  13.959  0.7335 -0.4620  1.5174
   24DOPE   C12 2972   0.090   5.358  13.989 -0.1165 -0.5918  0.6391
   24DOPE  H12A 2973   0.012   5.327  14.061 -0.1410  1.4675  1.5681
   24DOPE  H12B 2974   0.060   5.368  13.883 -0.7298 -1.1131  0.7589
   24DOPE   C11 2975   0.142   5.496  14.040  0.1220  0.0746 -0.0645
   24DOPE  H11A 2976   0.220   5.540  13.974 -0.5571 -0.3941 -1.2038
   24DOPE  H11B 2977   0.190   5.484  14.140 -0.3133 -0.4828  0.0850
   24DOPE     P 2978  -0.018   5.675  13.921 -0.0695 -0.1900 -0.2330
   24DOPE   O13 2979  -0.091   5.791  13.986 -0.0798 -0.0723  0.2014
   24DOPE   O14 2980  -0.092   5.588  13.828  0.5385 -0.5142 -0.1544
   24DOPE   O11 2981   0.120   5.730  13.861  0.4377  0.3682 -0.0500
   24DOPE   O12 2982   0.031   5.584  14.045  0.5673 -0.6790  0.6740
   24DOPE    C1 2983   0.202   5.833  13.910  0.3891  0.4092 -0.2104
   24DOPE    HA 2984   0.306   5.809  13.879  0.7096  0.7334  0.5882
   24DOPE    HB 2985   0.200   5.851  14.020  0.9316  1.0033 -0.2907
   24DOPE    C2 2986   0.158   5.964  13.847 -0.3929 -0.4520 -0.6107
   24DOPE    HS 2987   0.049   5.969  13.868 -0.4525  0.4593 -1.1038
   24DOPE   O21 2988   0.189   5.946  13.710 -0.1706  0.2924  0.2908
   24DOPE   C21 2989   0.092   5.982  13.628 -1.1670 -0.5872  0.0428
   24DOPE   O22 2990  -0.011   6.039  13.663 -0.1257  0.3849  0.0423
   24DOPE   C22 2991   0.133   5.955  13.484 -0.5216 -0.1343  0.4297
   24DOPE   H2R 2992   0.131   5.844  13.476 -1.0924 -0.1008  0.0204
   24DOPE   H2S 2993   0.238   5.987  13.474  0.8563 -3.6066  2.0203
   24DOPE    C3 2994   0.223   6.092  13.910  0.0610 -0.3689  0.0667
   24DOPE    HX 2995   0.332   6.087  13.891  0.3867  4.1384 -0.5536
   24DOPE    HY 2996   0.212   6.107  14.020 -1.3331 -2.8013  0.3256
   24DOPE   O31 2997   0.190   6.206  13.832  0.1127  0.2722  0.7005
   24DOPE   C31 2998   0.079   6.264  13.859  0.5010  0.2390  0.3780
   24DOPE   O32 2999   0.001   6.238  13.951 -0.2990 -0.1566 -0.2999
   24DOPE   C32 3000   0.064   6.388  13.769  0.6347 -0.6198  0.9184
   24DOPE   H2X 3001   0.105   6.475  13.826 -0.9180  0.8350 -0.0900
   24DOPE   H2Y 3002   0.125   6.377  13.677 -0.4412  0.2061  0.0726
   24DOPE   C23 3003   0.048   6.031  13.385 -0.1831 -0.5780  0.0513
   24DOPE   H3R 3004   0.052   6.137  13.417  4.1294 -0.3039 -0.7280
   24DOPE   H3S 3005  -0.061   6.012  13.395 -0.6075  1.9209  0.8684
   24DOPE   C24 3006   0.088   6.003  13.238  0.1418  0.5169  0.4725
   24DOPE   H4R 3007   0.073   5.897  13.206 -0.9315  1.0953 -1.0522
   24DOPE   H4S 3008   0.191   6.035  13.213  0.0857  0.7194  0.5019
   24DOPE   C25 3009  -0.007   6.077  13.152 -1.0973 -0.0452 -0.0193
   24DOPE   H5R 3010   0.011   6.187  13.156 -0.6092 -0.0791 -1.0726
   24DOPE   H5S 3011  -0.111   6.058  13.187 -2.0526 -2.5741 -3.6355
   24DOPE   C26 3012   0.013   6.037  13.005  0.2990 -0.1376 -0.4629
   24DOPE   H6R 3013  -0.022   5.933  12.987 -0.0502 -0.0094 -0.5324
   24DOPE   H6S 3014   0.121   6.045  12.978 -0.2734  1.4750 -2.5212
   24DOPE   C27 3015  -0.067   6.127  12.910 -0.0838  0.3284  0.0726
   24DOPE   H7R 3016  -0.026   6.231  12.901 -0.9343  0.6889  0.3077
   24DOPE   H7S 3017  -0.173   6.129  12.942  0.2726 -1.5020  1.5096
   24DOPE   C28 3018  -0.062   6.069  12.772 -0.9283 -0.0925 -0.4119
   24DOPE   H8R 3019  -0.085   5.961  12.768  1.4465 -0.6529 -3.6055
   24DOPE   H8S 3020   0.043   6.075  12.735 -0.1759  0.2602  1.6566
   24DOPE   C29 3021  -0.153   6.123  12.662 -0.1854  0.0191 -0.3069
   24DOPE   H9R 3022  -0.257   6.142  12.694  0.8319  0.2112  3.2961
   24DOPE  C210 3023  -0.121   6.140  12.533 -0.2007 -0.6749 -0.0343
   24DOPE  H10R 3024  -0.195   6.172  12.458  0.7183  2.0977  0.1326
   24DOPE  C211 3025   0.003   6.084  12.474  0.0036  0.2576  0.0768
   24DOPE  H11R 3026   0.046   6.003  12.536 -1.0670  0.2620  0.8446
   24DOPE  H11S 3027   0.080   6.164  12.475 -1.7411  2.0462  2.5359
   24DOPE  C212 3028  -0.025   6.040  12.325  0.0537  0.0470 -0.0036
   24DOPE  H12R 3029   0.062   6.028  12.257 -0.2846  1.0978 -0.6540
   24DOPE  H12S 3030  -0.082   6.118  12.268 -0.1508 -0.9250 -1.1739
   24DOPE  C213 3031  -0.119   5.920  12.323  0.3644  0.6702 -0.0670
   24DOPE  H13R 3032  -0.215   5.939  12.376  0.1807  1.2275 -0.5824
   24DOPE  H13S 3033  -0.073   5.833  12.374 -1.6651  0.5468  1.6838
   24DOPE  C214 3034  -0.161   5.875  12.180  0.1867 -0.2362 -0.2615
   24DOPE  H14R 3035  -0.209   5.776  12.190 -0.0153 -0.1992 -0.8579
   24DOPE  H14S 3036  -0.073   5.870  12.112 -0.6753  0.0170 -1.4165
   24DOPE  C215 3037  -0.253   5.970  12.109 -0.1952  0.2456  0.3591
   24DOPE  H15R 3038  -0.205   6.067  12.085 -1.3334  0.7456  0.0805
   24DOPE  H15S 3039  -0.338   5.994  12.176 -0.0361  2.7614 -0.2745
   24DOPE  C216 3040  -0.316   5.917  11.971 -0.0028  0.4561 -0.1411
   24DOPE  H16R 3041  -0.411   5.971  11.951 -0.5413 -0.2024  0.6115
   24DOPE  H16S 3042  -0.343   5.810  11.983  1.5130  0.2558  2.1463
   24DOPE  C217 3043  -0.217   5.934  11.849 -0.4618  0.7312  0.5236
   24DOPE  H17R 3044  -0.123   5.876  11.862  0.4027  2.6102  3.8927
   24DOPE  H17S 3045  -0.181   6.039  11.860 -2.1033  1.3935 -0.1347
   24DOPE  C218 3046  -0.276   5.927  11.709 -0.0409 -1.1274  0.4362
   24DOPE  H18R 3047  -0.188   5.919  11.642  0.1894  0.6301  0.4851
   24DOPE  H18S 3048  -0.331   6.022  11.698  2.8713  0.6731  0.3257
   24DOPE  H18T 3049  -0.341   5.837  11.702  0.2954 -1.3464  0.0841
   24DOPE   C33 3050  -0.081   6.414  13.709 -0.5500  0.3704 -0.8607
   24DOPE   H3X 3051  -0.147   6.407  13.798  0.8838  0.7277  0.2509
   24DOPE   H3Y 3052  -0.115   6.336  13.637  2.2232  0.4531 -2.4029
   24DOPE   C34 3053  -0.087   6.552  13.643  0.3222 -0.7211  0.1035
   24DOPE   H4X 3054  -0.194   6.570  13.620  0.1313 -0.1610  1.3194
   24DOPE   H4Y 3055  -0.066   6.639  13.710 -0.3336  0.9189 -1.7083
   24DOPE   C35 3056  -0.010   6.558  13.508  0.9244  0.6524  0.0830
   24DOPE   H5X 3057  -0.021   6.461  13.455 -1.4670 -0.4737  2.4357
   24DOPE   H5Y 3058   0.099   6.577  13.525  0.9045  0.0172  0.9828
   24DOPE   C36 3059  -0.053   6.671  13.408  0.1476 -0.3463  0.1675
   24DOPE   H6X 3060  -0.024   6.770  13.450  0.0010 -1.3090  2.7017
   24DOPE   H6Y 3061  -0.163   6.657  13.398  0.1052  1.0700 -2.0496
   24DOPE   C37 3062   0.032   6.645  13.278  0.2399 -0.1155  0.2877
   24DOPE   H7X 3063   0.045   6.749  13.241  0.2873 -0.3296 -0.2971
   24DOPE   H7Y 3064   0.139   6.622  13.294  0.2578 -2.9626 -2.7994
   24DOPE   C38 3065  -0.027   6.556  13.167  0.0480  0.6120 -0.1056
   24DOPE   H8X 3066  -0.040   6.448  13.189 -0.8918  0.5847 -0.7657
   24DOPE   H8Y 3067   0.040   6.564  13.079  0.0541 -0.4452 -0.2167
   24DOPE   C39 3068  -0.154   6.609  13.118 -0.2000  0.0826  0.4461
   24DOPE   H9X 3069  -0.212   6.667  13.191  1.4013 -0.6187  2.3760
   24DOPE  C310 3070  -0.205   6.571  12.993 -0.1582 -0.1630 -0.4732
   24DOPE  H10X 3071  -0.311   6.595  12.976 -0.4081 -0.7796  0.1414
   24DOPE  C311 3072  -0.136   6.482  12.892  0.1343  0.3380  0.5246
   24DOPE  H11X 3073  -0.026   6.473  12.907  0.4571  2.3132 -0.2497
   24DOPE  H11Y 3074  -0.198   6.390  12.897 -1.1784  1.2405  4.1151
   24DOPE  C312 3075  -0.146   6.505  12.740 -0.3477  0.2096  0.5624
   24DOPE  H12X 3076  -0.248   6.477  12.705  0.1741 -1.1233  0.0455
   24DOPE  H12Y 3077  -0.078   6.430  12.694 -0.2274  1.0905 -0.7368
   24DOPE  C313 3078  -0.114   6.646  12.685 -0.9583 -0.3247  0.1249
   24DOPE  H13X 3079  -0.175   6.724  12.736  1.9339  2.3642 -0.2177
   24DOPE  H13Y 3080  -0.007   6.666  12.707  0.2056 -3.1316 -2.3136
   24DOPE  C314 3081  -0.138   6.659  12.536 -0.3211 -0.2892 -0.0105
   24DOPE  H14X 3082  -0.246   6.639  12.526 -0.4077  0.3860 -0.5037
   24DOPE  H14Y 3083  -0.095   6.575  12.477 -1.5151 -0.4317 -0.6956
   24DOPE  C315 3084  -0.088   6.792  12.470  0.2349  0.9021  0.6378
   24DOPE  H15X 3085   0.020   6.818  12.474 -0.1679  2.6737  1.3711
   24DOPE  H15Y 3086  -0.134   6.876  12.527  2.8819  2.4325  0.7036
   24DOPE  C316 3087  -0.127   6.802  12.322  0.1184  0.0334  0.6863
   24DOPE  H16X 3088  -0.107   6.904  12.283 -1.5818  0.6551  1.3172
   24DOPE  H16Y 3089  -0.237   6.785  12.317  0.1485 -0.0934  0.4143
   24DOPE  C317 3090  -0.077   6.696  12.224  0.4998  0.8107 -0.2842
   24DOPE  H17X 3091   0.034   6.686  12.231  0.3992  0.4393  4.9259
   24DOPE  H17Y 3092  -0.126   6.600  12.251  1.2784  0.2850 -0.7182
   24DOPE  C318 3093  -0.134   6.726  12.083 -0.8607  0.3120 -0.1354
   24DOPE  H18X 3094  -0.109   6.634  12.024  0.6610 -0.8240  2.1427
   24DOPE  H18Y 3095  -0.245   6.733  12.083 -1.0158 -1.5691  0.0116
   24DOPE  H18Z 3096  -0.087   6.818  12.043  1.2172 -0.6001  0.0511
   25DOPE     N 3097   1.969   6.611  13.933 -0.1143 -0.0717  1.4085
   25DOPE   HN1 3098   2.007   6.541  14.000  1.0739  0.8661  1.7513
   25DOPE   HN2 3099   2.031   6.694  13.942  0.9758 -0.8937  1.6863
   25DOPE   HN3 3100   1.875   6.627  13.974 -0.7003  1.0969 -0.2764
   25DOPE   C12 3101   1.956   6.546  13.794  0.0911 -0.4278 -0.2861
   25DOPE  H12A 3102   2.050   6.564  13.736 -0.5541 -1.0374 -1.5653
   25DOPE  H12B 3103   1.886   6.602  13.729  2.7687  0.7296 -2.3776
   25DOPE   C11 3104   1.919   6.402  13.803 -0.3379 -0.0738 -0.0701
   25DOPE  H11A 3105   2.007   6.353  13.850  0.1400  2.3847  1.7719
   25DOPE  H11B 3106   1.915   6.356  13.702 -1.5107 -0.0921 -0.0327
   25DOPE     P 3107   1.708   6.255  13.873 -0.5939 -0.6166  0.0015
   25DOPE   O13 3108   1.579   6.274  13.947 -0.1130 -0.0305 -0.1243
   25DOPE   O14 3109   1.790   6.137  13.905 -0.6491 -0.2248 -0.2552
   25DOPE   O11 3110   1.681   6.245  13.719  0.1178  0.1688  0.2734
   25DOPE   O12 3111   1.802   6.382  13.880  0.2846 -1.0838 -0.0291
   25DOPE    C1 3112   1.573   6.320  13.663 -0.2505 -0.3076 -0.8108
   25DOPE    HA 3113   1.574   6.428  13.687 -0.8842 -0.3465 -0.5916
   25DOPE    HB 3114   1.476   6.276  13.696 -0.7364 -0.4477 -2.3170
   25DOPE    C2 3115   1.586   6.304  13.509  0.2103 -0.0623  0.4829
   25DOPE    HS 3116   1.517   6.377  13.462 -0.1449 -0.6601  0.0631
   25DOPE   O21 3117   1.561   6.166  13.471  0.5033  0.5820 -0.4149
   25DOPE   C21 3118   1.439   6.129  13.457 -0.1568  0.5474 -0.1176
   25DOPE   O22 3119   1.340   6.189  13.495 -0.3165 -0.5153 -0.7779
   25DOPE   C22 3120   1.431   5.988  13.395 -0.0384 -0.5944  0.4446
   25DOPE   H2R 3121   1.418   5.916  13.479  0.5130 -0.1703  0.9028
   25DOPE   H2S 3122   1.530   5.960  13.353 -0.7194 -0.9676 -0.9449
   25DOPE    C3 3123   1.729   6.334  13.458 -0.0410  0.3314  0.3505
   25DOPE    HX 3124   1.792   6.245  13.480 -0.9552 -0.8944 -1.6756
   25DOPE    HY 3125   1.761   6.420  13.520 -0.0293 -0.7524  1.9282
   25DOPE   O31 3126   1.729   6.361  13.319  0.3082 -0.2061  0.3101
   25DOPE   C31 3127   1.709   6.485  13.278  0.1954 -0.5436 -0.2612
   25DOPE   O32 3128   1.685   6.581  13.351 -0.2005 -0.2725 -0.4590
   25DOPE   C32 3129   1.717   6.485  13.125 -0.6840 -0.0084 -0.5717
   25DOPE   H2X 3130   1.816   6.445  13.096 -0.4671  0.1220 -0.0200
   25DOPE   H2Y 3131   1.628   6.427  13.090 -0.1368 -1.0184 -0.3406
   25DOPE   C23 3132   1.301   5.978  13.310  0.6033 -0.4187 -0.1363
   25DOPE   H3R 3133   1.293   6.050  13.225 -0.3062 -2.3689 -1.7713
   25DOPE   H3S 3134   1.217   5.993  13.381 -0.3877  0.3815 -1.4072
   25DOPE   C24 3135   1.287   5.833  13.255  0.0554  0.0045  0.3572
   25DOPE   H4R 3136   1.188   5.813  13.209  0.3767 -2.0288  0.4338
   25DOPE   H4S 3137   1.282   5.752  13.332  1.1054 -0.4219 -0.0064
   25DOPE   C25 3138   1.398   5.787  13.155  0.0638  0.3379 -0.4911
   25DOPE   H5R 3139   1.387   5.678  13.137 -1.9068  0.1971  1.1396
   25DOPE   H5S 3140   1.493   5.797  13.211 -0.7266  1.8176  0.6752
   25DOPE   C26 3141   1.398   5.854  13.020 -0.7426 -0.7094 -0.5868
   25DOPE   H6R 3142   1.485   5.823  12.959 -1.2515  0.2856 -1.8684
   25DOPE   H6S 3143   1.418   5.963  13.026  0.9898 -1.0838  2.2691
   25DOPE   C27 3144   1.271   5.824  12.935 -0.2857  0.1064 -0.9516
   25DOPE   H7R 3145   1.196   5.899  12.968 -1.5827 -1.7931  0.5731
   25DOPE   H7S 3146   1.228   5.730  12.974  1.4130 -0.1783  0.3323
   25DOPE   C28 3147   1.285   5.819  12.783  0.8787  0.9662 -0.3736
   25DOPE   H8R 3148   1.187   5.779  12.748  1.5361 -2.1562  1.0184
   25DOPE   H8S 3149   1.356   5.743  12.745  2.7530  1.9616  0.9760
   25DOPE   C29 3150   1.321   5.947  12.717 -0.3083  0.1672 -0.5737
   25DOPE   H9R 3151   1.392   6.006  12.775  0.5546 -2.3489  1.1050
   25DOPE  C210 3152   1.280   5.993  12.599 -0.0969  0.5407 -0.6737
   25DOPE  H10R 3153   1.322   6.084  12.554 -1.6356  0.2506 -2.8262
   25DOPE  C211 3154   1.177   5.937  12.503  0.2781  0.0786 -0.2850
   25DOPE  H11R 3155   1.104   6.018  12.482  0.5466  0.8734  1.6503
   25DOPE  H11S 3156   1.121   5.845  12.528  0.7681 -0.1599 -0.0585
   25DOPE  C212 3157   1.240   5.903  12.362 -0.2896 -0.0874  0.1878
   25DOPE  H12R 3158   1.294   5.806  12.368 -1.1043 -0.4662  1.9539
   25DOPE  H12S 3159   1.310   5.982  12.326  3.4540 -3.6179 -1.0185
   25DOPE  C213 3160   1.141   5.900  12.253 -0.2009 -0.1286 -0.2389
   25DOPE  H13R 3161   1.068   5.982  12.260 -1.1180 -0.9870  0.6195
   25DOPE  H13S 3162   1.093   5.800  12.258  0.7773 -0.6349 -0.6051
   25DOPE  C214 3163   1.193   5.901  12.118  0.0597  0.2404  0.2443
   25DOPE  H14R 3164   1.274   5.827  12.099  0.0407  0.2821 -0.0012
   25DOPE  H14S 3165   1.240   5.999  12.095 -1.9412  1.5588  1.5757
   25DOPE  C215 3166   1.082   5.881  12.008  0.6865  0.2823  0.1581
   25DOPE  H15R 3167   1.005   5.961  12.006  1.4743  1.0379 -1.0066
   25DOPE  H15S 3168   1.024   5.786  12.011  0.4534  0.3702 -1.0685
   25DOPE  C216 3169   1.152   5.907  11.877  0.7356  0.0433 -0.0235
   25DOPE  H16R 3170   1.208   5.813  11.856  0.6147 -0.1571  0.5408
   25DOPE  H16S 3171   1.218   5.996  11.884 -2.2413  2.3387  1.1530
   25DOPE  C217 3172   1.065   5.928  11.755 -0.5286  0.3650 -0.1276
   25DOPE  H17R 3173   1.032   6.034  11.763  1.5878  1.0005  0.8595
   25DOPE  H17S 3174   0.986   5.851  11.738 -0.7374  0.5568 -0.0279
   25DOPE  C218 3175   1.158   5.914  11.631  0.1323 -0.0567 -0.3872
   25DOPE  H18R 3176   1.107   5.936  11.534 -0.4410  1.4399  0.2260
   25DOPE  H18S 3177   1.189   5.808  11.620 -1.2306 -0.6885  1.3881
   25DOPE  H18T 3178   1.246   5.980  11.642 -1.4462  1.9544  1.0764
   25DOPE   C33 3179   1.714   6.625  13.059  0.2624  0.0728  0.3352
   25DOPE   H3X 3180   1.808   6.679  13.085  0.0603 -0.3065  1.9588
   25DOPE   H3Y 3181   1.627   6.688  13.088 -1.0746 -0.3088 -2.5078
   25DOPE   C34 3182   1.701   6.615  12.913 -0.1595 -0.1670  0.3962
   25DOPE   H4X 3183   1.785   6.553  12.875 -0.9370 -2.3380  1.9551
   25DOPE   H4Y 3184   1.601   6.578  12.880 -0.5841  1.2618  0.0293
   25DOPE   C35 3185   1.711   6.746  12.829  0.4420  0.0588  0.3577
   25DOPE   H5X 3186   1.806   6.798  12.856  0.4007  1.0291 -1.2392
   25DOPE   H5Y 3187   1.628   6.816  12.850  0.5142 -0.0470  1.0341
   25DOPE   C36 3188   1.710   6.728  12.679 -0.1958  0.4015 -0.2341
   25DOPE   H6X 3189   1.780   6.652  12.638 -1.3096 -1.6673  1.4818
   25DOPE   H6Y 3190   1.745   6.825  12.638  0.7148  0.2629  0.1922
   25DOPE   C37 3191   1.571   6.693  12.627 -0.3706 -0.2055 -0.7723
   25DOPE   H7X 3192   1.535   6.607  12.688  0.6317 -0.4085 -0.4555
   25DOPE   H7Y 3193   1.502   6.779  12.640 -1.2397 -0.7170 -1.8055
   25DOPE   C38 3194   1.566   6.655  12.474 -0.0398 -0.0415 -0.0006
   25DOPE   H8X 3195   1.647   6.584  12.444 -0.1230  0.6964 -2.2022
   25DOPE   H8Y 3196   1.593   6.750  12.423 -2.5858 -0.0602 -1.5495
   25DOPE   C39 3197   1.432   6.610  12.431 -0.1382  0.2551  0.1663
   25DOPE   H9X 3198   1.365   6.569  12.509 -0.0664 -0.3539 -0.0844
   25DOPE  C310 3199   1.384   6.620  12.305 -0.4017  0.5842 -0.6387
   25DOPE  H10X 3200   1.283   6.580  12.289  0.2190 -1.2535 -0.2964
   25DOPE  C311 3201   1.448   6.679  12.181 -0.0303 -0.4817 -0.5155
   25DOPE  H11X 3202   1.554   6.711  12.192  0.6730 -2.7052 -0.4270
   25DOPE  H11Y 3203   1.455   6.600  12.104  0.1243 -1.0558  0.0730
   25DOPE  C312 3204   1.368   6.807  12.146 -0.8906 -0.3434 -0.5410
   25DOPE  H12X 3205   1.356   6.871  12.236  1.6573 -0.0537 -0.3233
   25DOPE  H12Y 3206   1.266   6.771  12.120 -1.0184  0.9725 -1.9699
   25DOPE  C313 3207   1.412   6.878  12.021 -0.1321  0.1341 -0.1555
   25DOPE  H13X 3208   1.364   6.978  12.019 -0.9712 -0.2471  0.1601
   25DOPE  H13Y 3209   1.521   6.899  12.031 -0.7142  3.2847  0.6984
   25DOPE  C314 3210   1.378   6.806  11.889  0.0083 -0.5385  0.5524
   25DOPE  H14X 3211   1.270   6.821  11.866  0.4655  1.5713 -0.3936
   25DOPE  H14Y 3212   1.392   6.696  11.898  1.2396 -0.3917  0.5442
   25DOPE  C315 3213   1.471   6.861  11.779 -0.1560 -0.3182  0.0951
   25DOPE  H15X 3214   1.574   6.860  11.820 -0.1300  0.2429  0.0604
   25DOPE  H15Y 3215   1.448   6.967  11.752  1.5335 -0.1631 -0.8654
   25DOPE  C316 3216   1.461   6.781  11.649 -0.3452  0.6787 -0.0009
   25DOPE  H16X 3217   1.499   6.678  11.665 -0.2497  0.5368 -1.0579
   25DOPE  H16Y 3218   1.522   6.817  11.564 -0.7178 -1.1216 -1.0904
   25DOPE  C317 3219   1.320   6.770  11.591 -0.9780 -0.5349  0.5610
   25DOPE  H17X 3220   1.327   6.696  11.508 -0.7003  0.8778 -0.7289
   25DOPE  H17Y 3221   1.252   6.726  11.667 -0.6928 -0.7121  0.7129
   25DOPE  C318 3222   1.275   6.899  11.536 -0.5531  0.5594  0.0325
   25DOPE  H18X 3223   1.167   6.889  11.508 -0.6083  1.1549  0.0105
   25DOPE  H18Y 3224   1.272   6.975  11.617  1.8616 -0.9658  1.6676
   25DOPE  H18Z 3225   1.338   6.949  11.459 -3.4088  2.4770 -1.2512
   26DOPE     N 3226   2.214   0.574  13.743  0.4527  0.0680 -0.8013
   26DOPE   HN1 3227   2.128   0.562  13.801 -0.3172  1.7808 -1.5192
   26DOPE   HN2 3228   2.289   0.601  13.810 -0.6224 -0.2629  0.6038
   26DOPE   HN3 3229   2.198   0.653  13.678  2.3457  2.0009  0.9119
   26DOPE   C12 3230   2.246   0.457  13.655 -1.2109  0.2749 -0.3165
   26DOPE  H12A 3231   2.334   0.488  13.595  1.1498 -1.3113  2.1023
   26DOPE  H12B 3232   2.165   0.439  13.581  1.9115 -1.8215 -3.5211
   26DOPE   C11 3233   2.277   0.334  13.740  0.1153  0.0960 -0.1863
   26DOPE  H11A 3234   2.364   0.363  13.803 -0.0112 -0.1605  0.1027
   26DOPE  H11B 3235   2.315   0.254  13.673  3.2248  1.6878 -0.5092
   26DOPE     P 3236   2.065   0.187  13.781 -0.1849 -0.4828  0.1733
   26DOPE   O13 3237   1.942   0.247  13.834 -0.1458  0.1574 -0.0592
   26DOPE   O14 3238   2.117   0.056  13.825  0.2881  0.3788  0.4180
   26DOPE   O11 3239   2.087   0.199  13.620 -0.2275 -0.3922  0.3429
   26DOPE   O12 3240   2.170   0.296  13.825  0.2867  0.4397 -0.5112
   26DOPE    C1 3241   2.083   0.082  13.544  0.8264  0.3477  0.4488
   26DOPE    HA 3242   2.019   0.003  13.588  0.1762 -0.5580 -1.9946
   26DOPE    HB 3243   2.187   0.044  13.551  1.7194  2.7363  1.2382
   26DOPE    C2 3244   2.046   0.092  13.392  0.8151  0.2707 -0.3719
   26DOPE    HS 3245   2.118   0.158  13.338  0.1238  0.2304 -1.3674
   26DOPE   O21 3246   1.912   0.134  13.380 -0.3572 -0.1805  0.3103
   26DOPE   C21 3247   1.873   0.198  13.262  0.6106  0.2247  0.0113
   26DOPE   O22 3248   1.952   0.235  13.179 -0.1407  0.1138 -0.2139
   26DOPE   C22 3249   1.719   0.233  13.259 -0.1274  0.8551 -0.5469
   26DOPE   H2R 3250   1.700   0.278  13.359 -0.5321 -0.3185 -0.0740
   26DOPE   H2S 3251   1.667   0.137  13.240  1.0142 -0.5854  2.8092
   26DOPE    C3 3252   2.068  -0.050  13.312 -0.1958 -0.8962 -0.7758
   26DOPE    HX 3253   1.987  -0.113  13.355 -0.5217  1.2410  2.0680
   26DOPE    HY 3254   2.167  -0.089  13.341  0.2419 -0.0722 -1.1337
   26DOPE   O31 3255   2.057  -0.038  13.168  0.2559  1.1366  0.0195
   26DOPE   C31 3256   2.165  -0.002  13.106 -1.1942 -0.3260  0.5753
   26DOPE   O32 3257   2.270   0.025  13.161 -0.2979 -0.1146  0.2417
   26DOPE   C32 3258   2.135  -0.008  12.958 -0.9793  0.5142 -0.3533
   26DOPE   H2X 3259   2.120  -0.117  12.944  0.2482 -0.2771  3.3980
   26DOPE   H2Y 3260   2.035   0.039  12.942 -0.8031  0.4037 -1.8974
   26DOPE   C23 3261   1.689   0.343  13.157  0.1997  0.1585 -0.1323
   26DOPE   H3R 3262   1.768   0.420  13.162 -2.1667  2.7972 -0.6922
   26DOPE   H3S 3263   1.594   0.395  13.184  1.2774  1.8826  0.4507
   26DOPE   C24 3264   1.668   0.291  13.011 -0.1038  0.2323  0.3693
   26DOPE   H4R 3265   1.587   0.215  13.016 -0.1562  0.3037  0.6327
   26DOPE   H4S 3266   1.763   0.251  12.970 -1.4447  0.0990 -2.9874
   26DOPE   C25 3267   1.625   0.403  12.915  0.1627 -0.5856  0.2472
   26DOPE   H5R 3268   1.713   0.471  12.912 -0.5964  0.4847  1.3622
   26DOPE   H5S 3269   1.537   0.458  12.954 -0.3891 -1.3512  0.1104
   26DOPE   C26 3270   1.598   0.360  12.771 -0.0093  0.2212  0.2874
   26DOPE   H6R 3271   1.496   0.319  12.757  0.0867 -0.5251  1.6554
   26DOPE   H6S 3272   1.671   0.277  12.757  0.5419  0.5148  1.3127
   26DOPE   C27 3273   1.623   0.467  12.664  0.0129  0.3168  0.2284
   26DOPE   H7R 3274   1.720   0.459  12.610 -1.1136  0.7706 -1.9929
   26DOPE   H7S 3275   1.628   0.572  12.701 -0.5610  1.3594 -2.4564
   26DOPE   C28 3276   1.511   0.482  12.558  0.0210 -0.6306 -0.3147
   26DOPE   H8R 3277   1.526   0.584  12.518  0.8621 -0.9752 -0.9019
   26DOPE   H8S 3278   1.411   0.478  12.606  0.4579  1.9323  0.9449
   26DOPE   C29 3279   1.508   0.369  12.459 -0.0883 -0.3828 -0.1777
   26DOPE   H9R 3280   1.470   0.268  12.485  0.9905 -0.9561 -0.7710
   26DOPE  C210 3281   1.550   0.383  12.331  0.1020  0.2591 -0.1671
   26DOPE  H10R 3282   1.536   0.302  12.258  0.3243 -1.2017  1.3625
   26DOPE  C211 3283   1.611   0.505  12.276 -0.0221 -0.0301  0.8790
   26DOPE  H11R 3284   1.692   0.476  12.206 -1.2059  1.6062 -1.3120
   26DOPE  H11S 3285   1.662   0.569  12.351 -0.3330  0.2361  0.8636
   26DOPE  C212 3286   1.498   0.581  12.203 -0.5434  0.5226  0.5301
   26DOPE  H12R 3287   1.540   0.675  12.161 -2.2958  0.6755 -1.0171
   26DOPE  H12S 3288   1.413   0.605  12.271 -1.8282  2.6496 -1.6321
   26DOPE  C213 3289   1.445   0.499  12.084 -0.1039  0.2684 -0.2748
   26DOPE  H13R 3290   1.358   0.439  12.116 -0.6013  1.3233  0.4200
   26DOPE  H13S 3291   1.523   0.429  12.048  0.6719  1.4750 -1.0440
   26DOPE  C214 3292   1.399   0.603  11.978  0.5428  0.3339  0.4199
   26DOPE  H14R 3293   1.486   0.646  11.923  0.8181  1.6633  1.8120
   26DOPE  H14S 3294   1.348   0.691  12.024  0.9412  0.8481 -0.1097
   26DOPE  C215 3295   1.303   0.541  11.880 -0.5221 -0.0543  0.2466
   26DOPE  H15R 3296   1.347   0.447  11.840  0.1541  0.4796 -0.2982
   26DOPE  H15S 3297   1.308   0.608  11.792 -0.7642 -0.3304  0.0205
   26DOPE  C216 3298   1.157   0.528  11.924  0.0962  0.5982  0.1960
   26DOPE  H16R 3299   1.127   0.627  11.966 -0.0268 -0.1178  1.8698
   26DOPE  H16S 3300   1.154   0.446  11.999 -0.3168 -0.3336 -0.8070
   26DOPE  C217 3301   1.059   0.476  11.822  0.5410  0.4538  0.4373
   26DOPE  H17R 3302   0.960   0.468  11.873 -0.1000 -0.6572 -0.8971
   26DOPE  H17S 3303   1.072   0.369  11.795  0.6451  0.7021 -0.5079
   26DOPE  C218 3304   1.029   0.554  11.686  0.0016  0.1943  0.3740
   26DOPE  H18R 3305   0.935   0.522  11.637 -0.2010 -0.5154  1.2012
   26DOPE  H18S 3306   1.118   0.539  11.621  0.8274  0.1270  1.4893
   26DOPE  H18T 3307   1.016   0.662  11.705  1.2885  0.5225 -0.4803
   26DOPE   C33 3308   2.260   0.029  12.867  0.1427  0.3209 -0.1330
   26DOPE   H3X 3309   2.342  -0.038  12.903 -0.4524 -0.3434  0.0148
   26DOPE   H3Y 3310   2.285   0.136  12.883 -2.1955  0.8771  0.2214
   26DOPE   C34 3311   2.246  -0.005  12.713 -0.4402  0.1019 -0.5173
   26DOPE   H4X 3312   2.347   0.003  12.668 -0.3401 -1.0158 -0.5313
   26DOPE   H4Y 3313   2.228  -0.115  12.716  0.1045  0.0084 -0.5566
   26DOPE   C35 3314   2.145   0.084  12.642  0.2361  0.2746  0.5342
   26DOPE   H5X 3315   2.160   0.191  12.668  0.1352  1.3761 -3.3016
   26DOPE   H5Y 3316   2.046   0.065  12.688  0.2582  0.1791  0.5419
   26DOPE   C36 3317   2.156   0.078  12.485 -0.0797  0.5612 -0.7631
   26DOPE   H6X 3318   2.139  -0.029  12.460  4.2771 -1.3598  3.0598
   26DOPE   H6Y 3319   2.257   0.111  12.452 -0.0584  2.5752  1.0678
   26DOPE   C37 3320   2.046   0.176  12.426 -0.4513  0.3908 -0.8718
   26DOPE   H7X 3321   1.954   0.153  12.483 -0.4903  0.3273 -0.9591
   26DOPE   H7Y 3322   2.074   0.278  12.460  0.6420  0.5130 -2.0748
   26DOPE   C38 3323   2.030   0.180  12.280  0.5572  0.4817  0.1796
   26DOPE   H8X 3324   2.005   0.074  12.257  1.2476 -0.2849  2.6024
   26DOPE   H8Y 3325   2.126   0.209  12.233  2.3378 -1.0148  2.6294
   26DOPE   C39 3326   1.914   0.262  12.235 -0.1895  0.5111 -0.2676
   26DOPE   H9X 3327   1.918   0.368  12.262 -1.5931  0.7827 -0.9933
   26DOPE  C310 3328   1.813   0.219  12.143 -0.0323 -0.0855 -0.5778
   26DOPE  H10X 3329   1.747   0.299  12.106 -0.0714 -0.5732 -1.6003
   26DOPE  C311 3330   1.800   0.089  12.063 -0.3640 -0.1863  0.5160
   26DOPE  H11X 3331   1.806  -0.001  12.128  0.3293  0.3077  1.1557
   26DOPE  H11Y 3332   1.701   0.075  12.015  1.0383  0.6572 -2.9327
   26DOPE  C312 3333   1.908   0.071  11.953 -0.3742 -0.4233  0.0925
   26DOPE  H12X 3334   2.014   0.084  11.985 -0.5564  1.2851  0.0870
   26DOPE  H12Y 3335   1.878   0.151  11.882 -0.4583 -2.1609 -1.9418
   26DOPE  C313 3336   1.896  -0.055  11.879 -0.4460  0.1280  0.0767
   26DOPE  H13X 3337   1.919  -0.139  11.949  0.6250  0.5330  0.2425
   26DOPE  H13Y 3338   1.788  -0.071  11.860 -0.1685 -1.7807 -0.1332
   26DOPE  C314 3339   1.977  -0.061  11.747  0.1344  0.6028  0.2527
   26DOPE  H14X 3340   1.959  -0.167  11.716 -1.4083  0.8950  0.0615
   26DOPE  H14Y 3341   2.087  -0.046  11.757  0.2620 -0.5220  0.7523
   26DOPE  C315 3342   1.918   0.030  11.637 -0.1614 -0.6466 -0.5301
   26DOPE  H15X 3343   1.940   0.131  11.677  0.5958 -1.0107 -0.0034
   26DOPE  H15Y 3344   1.808   0.015  11.638 -0.2332 -0.3217  1.6363
   26DOPE  C316 3345   1.981   0.023  11.498  0.0410  0.8325 -0.4535
   26DOPE  H16X 3346   1.984  -0.080  11.457  2.4893  1.0766 -1.0794
   26DOPE  H16Y 3347   2.086   0.058  11.509 -0.7088  4.0326 -2.1730
   26DOPE  C317 3348   1.908   0.119  11.414  0.1199  1.0360  0.8311
   26DOPE  H17X 3349   1.807   0.076  11.397  0.7220 -1.1465  2.3758
   26DOPE  H17Y 3350   1.897   0.219  11.463  1.1855  1.2668  0.6071
   26DOPE  C318 3351   1.966   0.134  11.274 -0.2038  0.1995 -0.1904
   26DOPE  H18X 3352   1.956   0.036  11.221 -1.3262 -1.1621  2.3796
   26DOPE  H18Y 3353   1.918   0.216  11.216 -1.0119 -1.1852 -1.5711
   26DOPE  H18Z 3354   2.074   0.152  11.293 -0.1277 -1.5845  1.3627
   27DOPE     N 3355   1.849   0.770  13.751  0.0858 -0.6222  0.2276
   27DOPE   HN1 3356   1.776   0.843  13.764 -2.5409 -2.7146 -1.6794
   27DOPE   HN2 3357   1.825   0.699  13.823 -0.5318  2.1946  3.0334
   27DOPE   HN3 3358   1.946   0.806  13.767  0.1444 -1.2790  1.5141
   27DOPE   C12 3359   1.833   0.711  13.614  0.7895 -0.2424  0.0578
   27DOPE  H12A 3360   1.746   0.641  13.620  1.3314 -0.9991 -0.6458
   27DOPE  H12B 3361   1.918   0.640  13.604  0.4097 -0.9605  1.5564
   27DOPE   C11 3362   1.833   0.818  13.505 -1.1241  0.1022  0.3365
   27DOPE  H11A 3363   1.741   0.878  13.519  0.2582  2.2423  0.5741
   27DOPE  H11B 3364   1.836   0.756  13.412 -0.0407 -0.1566  0.5309
   27DOPE     P 3365   2.092   0.874  13.486 -0.2518  0.8133  0.0952
   27DOPE   O13 3366   2.140   0.765  13.576  0.3613 -0.2979 -0.4472
   27DOPE   O14 3367   2.152   1.007  13.482 -0.8161  0.4330  0.3074
   27DOPE   O11 3368   2.103   0.814  13.348  0.3838 -0.8545  0.4450
   27DOPE   O12 3369   1.945   0.903  13.515 -0.6201  0.8848 -0.2520
   27DOPE    C1 3370   2.223   0.771  13.284 -0.4212  0.5140 -0.1545
   27DOPE    HA 3371   2.201   0.686  13.216 -0.0900  0.8680 -0.7152
   27DOPE    HB 3372   2.301   0.738  13.355 -0.5077 -0.0801 -0.3297
   27DOPE    C2 3373   2.294   0.878  13.194  0.1150  0.5180 -0.4520
   27DOPE    HS 3374   2.316   0.969  13.253 -0.4970  1.1578 -1.1950
   27DOPE   O21 3375   2.216   0.899  13.075 -0.3123  0.1736  0.0355
   27DOPE   C21 3376   2.195   1.020  13.033 -0.1741  0.1807 -0.0903
   27DOPE   O22 3377   2.231   1.127  13.086  0.2715  0.0047 -0.2482
   27DOPE   C22 3378   2.122   1.008  12.897  0.5245  0.0985 -0.5641
   27DOPE   H2R 3379   2.020   0.965  12.905  0.8649 -0.3559  2.9344
   27DOPE   H2S 3380   2.170   0.941  12.821  0.2724  2.5351 -3.0573
   27DOPE    C3 3381   2.432   0.833  13.141 -0.1254 -0.7187  0.4012
   27DOPE    HX 3382   2.411   0.732  13.101 -1.9507  0.5306 -2.0813
   27DOPE    HY 3383   2.504   0.816  13.224  2.8150 -0.1209 -1.8216
   27DOPE   O31 3384   2.486   0.908  13.022 -0.1382 -0.8053 -0.8210
   27DOPE   C31 3385   2.544   1.017  13.067 -0.1215 -0.3690  0.2655
   27DOPE   O32 3386   2.557   1.045  13.183  0.5671  0.4726 -0.3052
   27DOPE   C32 3387   2.601   1.100  12.949  0.1638  0.4785 -0.1960
   27DOPE   H2X 3388   2.609   1.203  12.989  1.2569  0.0407  0.7814
   27DOPE   H2Y 3389   2.710   1.083  12.935  0.3146  0.0757  1.2743
   27DOPE   C23 3390   2.096   1.149  12.839 -0.0798  0.4977  0.6141
   27DOPE   H3R 3391   2.188   1.208  12.859  0.6684  0.2504 -1.7334
   27DOPE   H3S 3392   2.008   1.201  12.883 -0.4696  1.3082 -1.0325
   27DOPE   C24 3393   2.063   1.138  12.692 -0.3357  0.9782  0.3939
   27DOPE   H4R 3394   1.977   1.072  12.665 -0.2656  1.4516 -1.0368
   27DOPE   H4S 3395   2.154   1.100  12.642 -1.6945 -1.2962 -0.5501
   27DOPE   C25 3396   2.032   1.274  12.627 -0.3334 -0.7276  0.2148
   27DOPE   H5R 3397   2.090   1.361  12.663 -0.2357 -0.4126 -0.6958
   27DOPE   H5S 3398   1.922   1.291  12.633 -0.3383 -0.1426 -1.1684
   27DOPE   C26 3399   2.077   1.279  12.486 -0.1291  0.2891 -0.8110
   27DOPE   H6R 3400   2.021   1.199  12.434 -2.2871 -0.1108  1.8698
   27DOPE   H6S 3401   2.185   1.253  12.484 -0.0238  0.3141  1.5944
   27DOPE   C27 3402   2.044   1.416  12.421 -0.1763 -0.5573 -0.2854
   27DOPE   H7R 3403   2.109   1.490  12.474 -0.6232 -0.4296  0.0878
   27DOPE   H7S 3404   1.938   1.445  12.438  0.5139  1.4214  1.0919
   27DOPE   C28 3405   2.088   1.414  12.277  0.2517 -0.0112 -0.4725
   27DOPE   H8R 3406   2.197   1.393  12.274  0.0878 -0.9045 -0.2151
   27DOPE   H8S 3407   2.085   1.516  12.233  1.7302  0.1042 -0.3709
   27DOPE   C29 3408   2.007   1.320  12.196 -0.1706 -0.2729 -0.8076
   27DOPE   H9R 3409   2.010   1.214  12.225 -3.0212  0.5757  3.3820
   27DOPE  C210 3410   1.937   1.346  12.085 -0.2484  0.0725 -0.3941
   27DOPE  H10R 3411   1.884   1.258  12.046 -0.1575  0.8974 -2.4928
   27DOPE  C211 3412   1.924   1.472  12.016  0.2963 -0.2808  0.3762
   27DOPE  H11R 3413   1.997   1.478  11.933  0.7788 -0.1333  0.8089
   27DOPE  H11S 3414   1.938   1.560  12.083  1.3088 -0.2688  0.1621
   27DOPE  C212 3415   1.780   1.492  11.952  0.0385  0.5213  0.1892
   27DOPE  H12R 3416   1.763   1.601  11.938  1.2674  0.5298 -1.4983
   27DOPE  H12S 3417   1.707   1.469  12.032  0.2801  1.8252  0.8048
   27DOPE  C213 3418   1.753   1.408  11.828  0.2681  0.6714 -0.4364
   27DOPE  H13R 3419   1.771   1.301  11.851  1.6426  0.9217 -0.2541
   27DOPE  H13S 3420   1.834   1.433  11.756 -0.4000  0.4456 -1.2875
   27DOPE  C214 3421   1.612   1.426  11.780  0.2572 -0.2155  0.8338
   27DOPE  H14R 3422   1.610   1.533  11.749  0.7837 -0.9781 -2.0433
   27DOPE  H14S 3423   1.539   1.404  11.862 -0.3866  0.8710  0.5752
   27DOPE  C215 3424   1.581   1.340  11.649 -0.4497  0.6310  0.2606
   27DOPE  H15R 3425   1.604   1.235  11.675  0.2238  0.4027 -1.2016
   27DOPE  H15S 3426   1.646   1.374  11.566  0.4851  0.5502  0.9376
   27DOPE  C216 3427   1.433   1.330  11.604  0.2961 -0.4955  0.4176
   27DOPE  H16R 3428   1.371   1.278  11.680  1.8994 -1.2916  1.2140
   27DOPE  H16S 3429   1.432   1.252  11.526 -1.2055  0.9386 -1.0775
   27DOPE  C217 3430   1.371   1.470  11.560  1.1056 -0.2834 -0.1642
   27DOPE  H17R 3431   1.410   1.494  11.459 -1.7047 -0.6762 -1.4227
   27DOPE  H17S 3432   1.403   1.549  11.631 -0.4412 -0.8914  1.2855
   27DOPE  C218 3433   1.214   1.464  11.553 -0.2750  0.2442  0.5349
   27DOPE  H18R 3434   1.174   1.497  11.651  0.8922  3.1057  0.1606
   27DOPE  H18S 3435   1.174   1.366  11.522  1.8686  0.1392 -2.3638
   27DOPE  H18T 3436   1.183   1.546  11.485  0.9898  2.4442  2.4511
   27DOPE   C33 3437   2.528   1.077  12.814  0.3051  0.0658 -0.8039
   27DOPE   H3X 3438   2.423   1.112  12.811 -0.0664 -1.0412 -0.9902
   27DOPE   H3Y 3439   2.535   0.970  12.786 -0.3631 -0.2813  0.2737
   27DOPE   C34 3440   2.598   1.147  12.697 -0.4020  0.1494 -0.5405
   27DOPE   H4X 3441   2.590   1.256  12.718 -0.7875 -0.3531  2.3484
   27DOPE   H4Y 3442   2.707   1.127  12.694 -0.1814  0.6131  2.0028
   27DOPE   C35 3443   2.524   1.120  12.568 -0.6145 -0.4238  0.4618
   27DOPE   H5X 3444   2.421   1.162  12.581 -0.0497  1.5725 -0.9250
   27DOPE   H5Y 3445   2.536   1.011  12.555  0.0584 -0.3817  0.7485
   27DOPE   C36 3446   2.585   1.195  12.453 -0.1672 -0.4099 -0.4441
   27DOPE   H6X 3447   2.684   1.154  12.421  0.3001  0.9241 -0.7736
   27DOPE   H6Y 3448   2.611   1.300  12.480 -1.1699 -0.0748 -0.7608
   27DOPE   C37 3449   2.495   1.185  12.330  0.2322  0.6554 -0.2926
   27DOPE   H7X 3450   2.473   1.076  12.324 -2.2859  1.1532 -1.2582
   27DOPE   H7Y 3451   2.401   1.231  12.368  0.8703 -0.2233  2.6239
   27DOPE   C38 3452   2.541   1.239  12.199 -0.0198  0.0616  0.3079
   27DOPE   H8X 3453   2.648   1.212  12.182 -0.3428 -1.0515 -0.0285
   27DOPE   H8Y 3454   2.533   1.350  12.190  1.1960  0.2959  1.6476
   27DOPE   C39 3455   2.455   1.179  12.089 -0.1750 -0.4007 -0.6093
   27DOPE   H9X 3456   2.473   1.070  12.084  1.1051 -0.2277  0.0154
   27DOPE  C310 3457   2.385   1.238  11.992 -0.4472  0.0842  0.5335
   27DOPE  H10X 3458   2.312   1.177  11.938 -1.0990  1.3197 -0.0398
   27DOPE  C311 3459   2.364   1.384  11.966 -0.0839  0.0869  0.0802
   27DOPE  H11X 3460   2.265   1.391  11.918  0.9505  0.9971 -2.0054
   27DOPE  H11Y 3461   2.356   1.441  12.062 -1.9562  0.6183 -0.3583
   27DOPE  C312 3462   2.477   1.456  11.893  0.5538 -0.5745 -0.4539
   27DOPE  H12X 3463   2.514   1.385  11.816  2.2426  1.0444 -1.2053
   27DOPE  H12Y 3464   2.563   1.477  11.961 -0.7144 -2.1202  1.7649
   27DOPE  C313 3465   2.431   1.586  11.825  0.1919  0.0822  0.0296
   27DOPE  H13X 3466   2.355   1.637  11.887  0.0569  0.0620 -0.1213
   27DOPE  H13Y 3467   2.519   1.650  11.802  0.7668 -0.3299  1.0430
   27DOPE  C314 3468   2.353   1.579  11.687 -0.0315 -0.2718 -0.0891
   27DOPE  H14X 3469   2.255   1.534  11.713  1.8995 -3.3056  2.5610
   27DOPE  H14Y 3470   2.396   1.503  11.618  1.2517 -0.8725  1.3131
   27DOPE  C315 3471   2.344   1.721  11.620 -0.2091  0.4633  0.2916
   27DOPE  H15X 3472   2.445   1.766  11.615  0.8806 -2.0191 -1.9533
   27DOPE  H15Y 3473   2.268   1.786  11.670 -2.0938 -1.3081 -0.1393
   27DOPE  C316 3474   2.289   1.734  11.478  0.0909  0.2064  0.4106
   27DOPE  H16X 3475   2.312   1.839  11.449 -0.4651 -0.0084 -0.8450
   27DOPE  H16Y 3476   2.178   1.732  11.483 -0.0513  2.7601 -0.1311
   27DOPE  C317 3477   2.357   1.634  11.384  0.4838  0.3086  0.3581
   27DOPE  H17X 3478   2.350   1.531  11.425 -2.1366  0.4343  0.3609
   27DOPE  H17Y 3479   2.303   1.633  11.288  0.5459  2.6250  0.2364
   27DOPE  C318 3480   2.500   1.663  11.344  0.8779  0.0542  0.0027
   27DOPE  H18X 3481   2.555   1.656  11.440  0.5034 -1.1370  0.1459
   27DOPE  H18Y 3482   2.538   1.586  11.273  1.0778  0.0675  0.0958
   27DOPE  H18Z 3483   2.498   1.760  11.291 -0.2750 -0.2029 -0.4679
   28DOPE     N 3484   1.702   0.210  13.703 -0.4466 -0.5734  0.0157
   28DOPE   HN1 3485   1.674   0.179  13.798  1.5838 -2.7529 -0.0078
   28DOPE   HN2 3486   1.702   0.133  13.633  0.5068 -0.0117 -0.6352
   28DOPE   HN3 3487   1.797   0.246  13.725 -0.3608 -1.0710  0.4851
   28DOPE   C12 3488   1.607   0.322  13.655 -0.1136 -0.3695 -0.0934
   28DOPE  H12A 3489   1.668   0.370  13.575  3.0257  1.5178  3.1211
   28DOPE  H12B 3490   1.599   0.398  13.736 -0.3647  0.0948 -0.5479
   28DOPE   C11 3491   1.474   0.262  13.598 -0.2289 -0.0924  0.4925
   28DOPE  H11A 3492   1.522   0.184  13.536  0.9252 -0.0301  1.2937
   28DOPE  H11B 3493   1.422   0.332  13.528  0.5556 -1.0485 -1.1090
   28DOPE     P 3494   1.273   0.277  13.759  0.5185 -0.0728 -0.1792
   28DOPE   O13 3495   1.284   0.426  13.760 -0.4877 -0.1311  0.8462
   28DOPE   O14 3496   1.247   0.225  13.891 -0.0717 -0.2082  0.1102
   28DOPE   O11 3497   1.140   0.244  13.678 -0.1356  0.3278  0.3498
   28DOPE   O12 3498   1.390   0.202  13.690  0.4775  0.0929  0.2099
   28DOPE    C1 3499   1.109   0.115  13.615  0.1520 -0.4409 -0.0731
   28DOPE    HA 3500   0.999   0.118  13.594  0.1242 -1.1815 -0.0621
   28DOPE    HB 3501   1.124   0.031  13.686  0.5509 -1.5697 -1.4355
   28DOPE    C2 3502   1.190   0.076  13.485  0.3501  0.4976 -0.8668
   28DOPE    HS 3503   1.298   0.073  13.513 -0.3104  1.3374  2.1800
   28DOPE   O21 3504   1.157   0.167  13.384 -0.0962 -0.0046  0.1761
   28DOPE   C21 3505   1.256   0.180  13.298  0.4859 -0.5013 -0.0249
   28DOPE   O22 3506   1.368   0.138  13.301  0.3289  0.0409  0.2749
   28DOPE   C22 3507   1.204   0.268  13.186  0.4189  0.1999 -0.3210
   28DOPE   H2R 3508   1.293   0.321  13.147  0.1053  0.1265 -1.1686
   28DOPE   H2S 3509   1.138   0.354  13.212  0.9344  0.1231  1.3872
   28DOPE    C3 3510   1.150  -0.063  13.439  0.1574  0.1272  0.5149
   28DOPE    HX 3511   1.047  -0.059  13.398  0.0889 -2.0488  0.3727
   28DOPE    HY 3512   1.150  -0.129  13.528  3.3524  1.3853  1.6103
   28DOPE   O31 3513   1.245  -0.110  13.348 -0.9551 -0.3209 -0.0477
   28DOPE   C31 3514   1.233  -0.240  13.315  0.7156 -0.8140  0.7653
   28DOPE   O32 3515   1.151  -0.315  13.367 -0.3256 -0.1202 -0.0816
   28DOPE   C32 3516   1.303  -0.266  13.187 -0.0432 -0.1451 -0.0272
   28DOPE   H2X 3517   1.255  -0.211  13.103  3.5306  1.4907 -1.1985
   28DOPE   H2Y 3518   1.408  -0.230  13.187 -0.1831  0.3163  1.3638
   28DOPE   C23 3519   1.143   0.177  13.072  0.5334 -0.3158  0.0330
   28DOPE   H3R 3520   1.104   0.253  13.002  0.7465  1.5192  1.8207
   28DOPE   H3S 3521   1.058   0.121  13.117  1.7979 -0.8560  1.8628
   28DOPE   C24 3522   1.244   0.086  12.996 -0.3637 -0.4697 -0.2623
   28DOPE   H4R 3523   1.286   0.003  13.056  0.5086 -0.6438 -1.0856
   28DOPE   H4S 3524   1.324   0.143  12.944 -2.0681  2.3856  0.0196
   28DOPE   C25 3525   1.177   0.025  12.870 -0.1707 -0.0222  0.7085
   28DOPE   H5R 3526   1.094  -0.041  12.902  0.1211 -0.2815  0.9293
   28DOPE   H5S 3527   1.257  -0.040  12.828  0.7454  0.7275  1.2543
   28DOPE   C26 3528   1.122   0.132  12.770  0.0626 -0.6184  0.1656
   28DOPE   H6R 3529   1.200   0.208  12.749  1.2828 -2.0389 -0.7092
   28DOPE   H6S 3530   1.034   0.179  12.818 -2.1300 -3.7314 -0.4938
   28DOPE   C27 3531   1.082   0.070  12.630 -0.7955 -0.0399 -0.7253
   28DOPE   H7R 3532   1.000  -0.004  12.645 -1.7243  0.7055 -1.9541
   28DOPE   H7S 3533   1.174   0.014  12.603 -0.5328 -0.2440  0.5098
   28DOPE   C28 3534   1.052   0.171  12.520  0.1342  1.2011 -0.1177
   28DOPE   H8R 3535   1.121   0.163  12.434 -0.4111 -3.3697 -0.3443
   28DOPE   H8S 3536   1.088   0.265  12.568 -2.6871  1.6125  1.4587
   28DOPE   C29 3537   0.908   0.171  12.474 -0.5455  0.2345 -0.1430
   28DOPE   H9R 3538   0.835   0.194  12.553 -0.9988 -0.2971 -0.4037
   28DOPE  C210 3539   0.868   0.152  12.348 -0.2414 -0.9897 -0.2211
   28DOPE  H10R 3540   0.759   0.149  12.330 -0.7553  2.9084  1.2711
   28DOPE  C211 3541   0.953   0.130  12.232  0.2919  0.1405 -0.6195
   28DOPE  H11R 3542   1.016   0.043  12.259  0.2395 -0.2678 -1.7667
   28DOPE  H11S 3543   1.018   0.217  12.207  0.3343  0.2789 -0.0423
   28DOPE  C212 3544   0.870   0.093  12.107 -0.5370 -0.2357 -0.6490
   28DOPE  H12R 3545   0.823   0.188  12.074  1.3821  0.9447 -0.1589
   28DOPE  H12S 3546   0.786   0.027  12.138 -0.3274  0.5375  1.6995
   28DOPE  C213 3547   0.955   0.033  11.997 -0.1237 -0.8519  1.0281
   28DOPE  H13R 3548   0.987  -0.070  12.022 -0.1191 -0.8007  1.2424
   28DOPE  H13S 3549   1.039   0.103  11.980 -0.9163  0.0645  0.7456
   28DOPE  C214 3550   0.873   0.022  11.870 -0.1706  0.0533 -0.4091
   28DOPE  H14R 3551   0.832   0.122  11.841  0.4300  0.8702  1.3917
   28DOPE  H14S 3552   0.784  -0.038  11.899 -2.5978  2.1861 -2.8960
   28DOPE  C215 3553   0.939  -0.052  11.757 -0.1401  0.1049 -0.1784
   28DOPE  H15R 3554   0.970  -0.155  11.784  1.2103  1.2236  2.9839
   28DOPE  H15S 3555   1.038  -0.002  11.752  0.5361 -1.2919 -1.4518
   28DOPE  C216 3556   0.880  -0.035  11.616 -0.3880  0.0520 -0.1694
   28DOPE  H16R 3557   0.857   0.068  11.581 -0.4149 -0.8472 -3.0372
   28DOPE  H16S 3558   0.778  -0.079  11.617  0.4088 -1.8613  0.0431
   28DOPE  C217 3559   0.948  -0.131  11.514 -0.0323 -0.2407 -0.4677
   28DOPE  H17R 3560   0.927  -0.233  11.550  2.2815 -0.0383  1.6745
   28DOPE  H17S 3561   1.056  -0.123  11.537  0.1630  1.7230 -1.7542
   28DOPE  C218 3562   0.912  -0.113  11.365  0.1510  0.0766 -0.0686
   28DOPE  H18R 3563   0.803  -0.123  11.344  0.2941  0.8087 -1.2376
   28DOPE  H18S 3564   0.968  -0.193  11.310  0.2328  0.2867 -0.2927
   28DOPE  H18T 3565   0.950  -0.019  11.320 -0.8640  0.4706 -0.1357
   28DOPE   C33 3566   1.288  -0.415  13.148 -0.9098  0.0432 -0.1917
   28DOPE   H3X 3567   1.190  -0.461  13.175 -1.2421  1.3980  1.0570
   28DOPE   H3Y 3568   1.373  -0.466  13.199 -1.6527 -0.6204  0.4224
   28DOPE   C34 3569   1.296  -0.432  12.985  0.5658 -0.1087  0.0380
   28DOPE   H4X 3570   1.399  -0.404  12.957  0.4292 -0.4762 -0.8835
   28DOPE   H4Y 3571   1.288  -0.542  12.968  0.0123 -0.3374  1.5988
   28DOPE   C35 3572   1.201  -0.345  12.897 -0.3715  0.2934  0.3522
   28DOPE   H5X 3573   1.236  -0.239  12.892 -1.5841  0.6549 -2.4885
   28DOPE   H5Y 3574   1.113  -0.348  12.964  2.4310  1.7000  4.5558
   28DOPE   C36 3575   1.181  -0.395  12.751  0.0022 -0.6937 -0.2837
   28DOPE   H6X 3576   1.138  -0.497  12.760 -1.2011 -0.1333  0.6432
   28DOPE   H6Y 3577   1.279  -0.414  12.702 -0.9156 -0.7554 -2.1983
   28DOPE   C37 3578   1.106  -0.290  12.661 -0.0192 -0.2709 -0.3281
   28DOPE   H7X 3579   1.012  -0.253  12.706  0.4113 -1.0771  1.3250
   28DOPE   H7Y 3580   1.170  -0.200  12.649 -1.4407  0.7467 -0.4444
   28DOPE   C38 3581   1.080  -0.352  12.527  0.3461  0.5786 -0.4900
   28DOPE   H8X 3582   1.011  -0.437  12.543 -0.6172  1.5922  1.0802
   28DOPE   H8Y 3583   1.177  -0.395  12.496 -0.4069 -0.9732 -0.7866
   28DOPE   C39 3584   1.041  -0.248  12.428 -0.3246 -0.7649  0.2847
   28DOPE   H9X 3585   1.063  -0.145  12.458 -1.4503 -0.5210  0.3110
   28DOPE  C310 3586   1.008  -0.261  12.294  0.1103 -0.4854  0.1775
   28DOPE  H10X 3587   1.004  -0.171  12.231 -2.9015  0.5536  1.6358
   28DOPE  C311 3588   0.967  -0.392  12.221 -0.9234 -0.0230 -0.6643
   28DOPE  H11X 3589   0.944  -0.469  12.297 -0.6419  2.0462  1.6769
   28DOPE  H11Y 3590   0.871  -0.378  12.168 -0.9417 -0.3330 -0.7147
   28DOPE  C312 3591   1.071  -0.452  12.121  0.2210  0.0686  0.1905
   28DOPE  H12X 3592   1.039  -0.555  12.094  0.7237 -0.1215  0.3170
   28DOPE  H12Y 3593   1.171  -0.456  12.168 -0.1582 -0.1498  0.9872
   28DOPE  C313 3594   1.073  -0.373  11.986 -0.2916  0.0488 -0.1621
   28DOPE  H13X 3595   0.970  -0.339  11.964  0.9695  1.7899 -4.3681
   28DOPE  H13Y 3596   1.144  -0.289  12.001  1.2287 -1.3899  1.1911
   28DOPE  C314 3597   1.153  -0.436  11.873 -0.1652  0.3182 -0.3889
   28DOPE  H14X 3598   1.100  -0.531  11.848  0.1113  0.6200 -2.2141
   28DOPE  H14Y 3599   1.254  -0.460  11.914  0.4257  1.8190 -0.9012
   28DOPE  C315 3600   1.169  -0.355  11.741  0.3080  0.2277 -0.8097
   28DOPE  H15X 3601   1.244  -0.275  11.759  1.5496 -0.9769 -0.3693
   28DOPE  H15Y 3602   1.069  -0.319  11.709 -0.1467 -0.9381 -0.7579
   28DOPE  C316 3603   1.233  -0.434  11.632 -0.0753 -0.3543  0.3439
   28DOPE  H16X 3604   1.160  -0.516  11.618  0.3522 -0.9595  1.4923
   28DOPE  H16Y 3605   1.330  -0.475  11.667 -0.1224 -1.1018 -0.3771
   28DOPE  C317 3606   1.260  -0.367  11.496  0.0444 -0.0134  0.8001
   28DOPE  H17X 3607   1.252  -0.258  11.517 -2.1845 -0.0379  0.2786
   28DOPE  H17Y 3608   1.360  -0.394  11.455 -0.3468 -1.2955  0.6530
   28DOPE  C318 3609   1.163  -0.406  11.383 -0.6929  0.0225 -0.1218
   28DOPE  H18X 3610   1.187  -0.513  11.366  2.9061  0.3778  1.7718
   28DOPE  H18Y 3611   1.061  -0.401  11.428 -0.9002 -1.7244 -0.3004
   28DOPE  H18Z 3612   1.162  -0.336  11.297 -0.7546  0.7010  0.4228
   29DOPE     N 3613   1.908   1.620  14.264 -0.8904 -0.2192  0.5112
   29DOPE   HN1 3614   1.969   1.536  14.273  1.6361  1.5374  0.9817
   29DOPE   HN2 3615   1.927   1.673  14.352 -2.1817  0.2563  0.5201
   29DOPE   HN3 3616   1.806   1.601  14.262 -1.6366  3.1283  1.2380
   29DOPE   C12 3617   1.945   1.695  14.141 -0.6988  0.4965 -0.3628
   29DOPE  H12A 3618   2.054   1.716  14.143 -0.7509  1.1087 -2.1852
   29DOPE  H12B 3619   1.878   1.784  14.143 -0.3482  0.7868  2.8019
   29DOPE   C11 3620   1.912   1.625  14.006  0.0668  0.5794 -0.1364
   29DOPE  H11A 3621   1.991   1.550  13.987  0.0597  1.0293 -2.2753
   29DOPE  H11B 3622   1.926   1.691  13.918  2.4610 -2.4074 -2.2186
   29DOPE     P 3623   1.729   1.458  13.905 -0.5226  0.2238 -0.1208
   29DOPE   O13 3624   1.581   1.474  13.892 -0.0037 -0.4388  0.2330
   29DOPE   O14 3625   1.783   1.325  13.936 -0.2929  0.1138  0.3464
   29DOPE   O11 3626   1.790   1.487  13.767  0.3613 -0.4433 -0.2165
   29DOPE   O12 3627   1.781   1.572  14.011 -0.6192  0.0133 -0.2158
   29DOPE    C1 3628   1.790   1.605  13.695  0.1816  0.1939 -0.2411
   29DOPE    HA 3629   1.898   1.622  13.675  0.3118 -0.5950 -0.2460
   29DOPE    HB 3630   1.747   1.691  13.751 -0.6243  2.2784 -3.7477
   29DOPE    C2 3631   1.704   1.601  13.569  0.2640 -0.7274 -0.8624
   29DOPE    HS 3632   1.609   1.558  13.608  0.2205 -1.0899 -1.3678
   29DOPE   O21 3633   1.763   1.515  13.468 -0.0594  0.2109 -0.7826
   29DOPE   C21 3634   1.681   1.452  13.387 -0.3319 -0.2519  0.1923
   29DOPE   O22 3635   1.560   1.458  13.393  0.1745 -0.4953 -0.1679
   29DOPE   C22 3636   1.765   1.373  13.276  0.4862 -0.0520  0.2650
   29DOPE   H2R 3637   1.744   1.266  13.300  0.3962  0.0220  0.5173
   29DOPE   H2S 3638   1.868   1.414  13.277  0.3161  0.4360  2.7086
   29DOPE    C3 3639   1.687   1.749  13.519  0.7729  0.1418  0.5520
   29DOPE    HX 3640   1.784   1.797  13.497  0.0883  1.5335  0.4650
   29DOPE    HY 3641   1.643   1.799  13.608 -1.2463 -0.6727  0.0663
   29DOPE   O31 3642   1.586   1.765  13.414  0.2341  1.0321 -0.2946
   29DOPE   C31 3643   1.566   1.890  13.378  0.4157  1.2194 -0.4729
   29DOPE   O32 3644   1.628   1.988  13.413 -0.1053 -0.3031 -0.2923
   29DOPE   C32 3645   1.468   1.889  13.259 -0.3538  0.6536 -0.0940
   29DOPE   H2X 3646   1.428   1.787  13.242  2.8859 -0.8460  0.5973
   29DOPE   H2Y 3647   1.374   1.937  13.295 -1.1636  0.7940 -2.2352
   29DOPE   C23 3648   1.687   1.412  13.149 -1.0836  0.4645  0.4873
   29DOPE   H3R 3649   1.576   1.416  13.151 -1.3272 -2.0497 -1.7990
   29DOPE   H3S 3650   1.694   1.328  13.075  0.4648  1.3913 -0.4714
   29DOPE   C24 3651   1.735   1.540  13.079 -0.0448  0.1044  0.1059
   29DOPE   H4R 3652   1.839   1.528  13.044 -0.2771  0.7991 -0.8454
   29DOPE   H4S 3653   1.740   1.621  13.155 -3.2586 -3.1320  4.3191
   29DOPE   C25 3654   1.657   1.588  12.951  0.2512  0.7412 -0.6144
   29DOPE   H5R 3655   1.691   1.690  12.925  1.4698  0.6202  0.3990
   29DOPE   H5S 3656   1.546   1.581  12.959  0.1431  2.0240 -0.7733
   29DOPE   C26 3657   1.706   1.519  12.828  0.2587  0.4670  0.0153
   29DOPE   H6R 3658   1.666   1.416  12.814  0.2431  0.1078  2.2668
   29DOPE   H6S 3659   1.817   1.520  12.825  0.2410  1.1900 -2.1702
   29DOPE   C27 3660   1.653   1.594  12.702 -0.0849 -0.0693  0.3691
   29DOPE   H7R 3661   1.696   1.695  12.719  1.9125 -0.9826  1.0490
   29DOPE   H7S 3662   1.542   1.594  12.691  0.0512 -0.2496 -1.2240
   29DOPE   C28 3663   1.700   1.532  12.570  0.1881  0.2510  0.5933
   29DOPE   H8R 3664   1.658   1.431  12.550  0.9674  0.5186 -2.9340
   29DOPE   H8S 3665   1.811   1.523  12.565  0.0176 -3.8291 -4.1880
   29DOPE   C29 3666   1.658   1.628  12.461 -0.4318 -0.9094 -0.0736
   29DOPE   H9R 3667   1.685   1.729  12.492 -2.9967 -0.4950  1.0173
   29DOPE  C210 3668   1.593   1.607  12.342 -0.1261  0.1800 -0.3625
   29DOPE  H10R 3669   1.560   1.699  12.291  1.2000  2.4270  2.4866
   29DOPE  C211 3670   1.532   1.476  12.293 -0.1372 -0.2793  0.5629
   29DOPE  H11R 3671   1.506   1.405  12.374 -1.8198 -0.6692 -0.2819
   29DOPE  H11S 3672   1.613   1.429  12.232 -0.5412 -0.4035  0.1120
   29DOPE  C212 3673   1.399   1.504  12.210 -0.3948 -0.4213 -0.3932
   29DOPE  H12R 3674   1.428   1.571  12.127  0.0821 -2.2149 -1.7562
   29DOPE  H12S 3675   1.318   1.540  12.276  1.3990 -0.5051  1.9958
   29DOPE  C213 3676   1.348   1.372  12.152 -0.4305 -0.2658  0.1661
   29DOPE  H13R 3677   1.342   1.302  12.239 -0.5153 -0.1916  0.2206
   29DOPE  H13S 3678   1.426   1.325  12.088 -0.1378  0.8591 -0.3324
   29DOPE  C214 3679   1.208   1.374  12.087 -0.2281 -0.0397  0.0532
   29DOPE  H14R 3680   1.200   1.479  12.051 -2.0453 -0.5691 -1.2191
   29DOPE  H14S 3681   1.131   1.357  12.166  0.7432 -0.1302  1.0065
   29DOPE  C215 3682   1.187   1.267  11.978  0.6705 -0.1477  0.4772
   29DOPE  H15R 3683   1.207   1.173  12.033  0.8385  0.0084  0.6875
   29DOPE  H15S 3684   1.257   1.279  11.893  0.2448  0.5549  0.2166
   29DOPE  C216 3685   1.045   1.265  11.921  1.1590 -0.0761  0.8694
   29DOPE  H16R 3686   1.038   1.361  11.867 -0.0916  1.0561  2.9012
   29DOPE  H16S 3687   0.976   1.277  12.008 -0.8192  2.0699 -0.8664
   29DOPE  C217 3688   1.015   1.151  11.826  0.1368  0.0424  0.6766
   29DOPE  H17R 3689   1.087   1.149  11.741  0.5857  1.4490  0.9921
   29DOPE  H17S 3690   0.913   1.157  11.784  0.8675 -1.0191 -1.3447
   29DOPE  C218 3691   1.031   1.013  11.895 -0.3775 -0.1019  0.4373
   29DOPE  H18R 3692   1.139   1.008  11.918 -0.1604  0.3983 -0.4268
   29DOPE  H18S 3693   0.998   0.923  11.839 -1.4557  0.4388  0.1666
   29DOPE  H18T 3694   0.969   1.013  11.987 -2.3120  3.4103 -0.6865
   29DOPE   C33 3695   1.532   1.950  13.128 -0.1235  0.1774  0.1173
   29DOPE   H3X 3696   1.626   1.899  13.097  0.3191  1.5729 -0.9284
   29DOPE   H3Y 3697   1.547   2.059  13.135  0.4384  0.0700  0.6612
   29DOPE   C34 3698   1.431   1.930  13.013 -0.0749  0.0578 -0.0210
   29DOPE   H4X 3699   1.407   1.823  12.994 -1.1221  0.2748  0.0168
   29DOPE   H4Y 3700   1.335   1.979  13.040  0.3080 -0.2278  1.9666
   29DOPE   C35 3701   1.489   1.988  12.888 -0.4861  0.3996 -0.6822
   29DOPE   H5X 3702   1.600   1.990  12.896 -0.4746  0.5591 -0.8836
   29DOPE   H5Y 3703   1.451   2.091  12.873 -0.1889  0.3770 -1.6586
   29DOPE   C36 3704   1.470   1.890  12.764 -0.2259 -0.0952  0.3597
   29DOPE   H6X 3705   1.479   1.789  12.810 -1.9506  0.0085  0.9701
   29DOPE   H6Y 3706   1.543   1.894  12.680 -1.7084  0.1379 -0.9707
   29DOPE   C37 3707   1.330   1.909  12.706  0.2901  0.4122  0.0929
   29DOPE   H7X 3708   1.245   1.918  12.777  0.4635  0.1754  0.3316
   29DOPE   H7Y 3709   1.340   2.008  12.657  0.3924  0.5173  0.3243
   29DOPE   C38 3710   1.275   1.816  12.591 -0.4803  0.3506 -0.3630
   29DOPE   H8X 3711   1.251   1.716  12.633  1.9463  0.0969  0.6191
   29DOPE   H8Y 3712   1.351   1.794  12.513  0.5066  2.7919 -0.1757
   29DOPE   C39 3713   1.151   1.880  12.530 -0.1528  0.4061 -0.7306
   29DOPE   H9X 3714   1.075   1.897  12.607 -0.8299  0.6926 -1.4485
   29DOPE  C310 3715   1.129   1.917  12.396 -0.2108  0.6159 -1.0204
   29DOPE  H10X 3716   1.032   1.960  12.366 -0.1042  1.3152 -0.4179
   29DOPE  C311 3717   1.219   1.884  12.275  0.7009  0.0925 -0.0806
   29DOPE  H11X 3718   1.270   1.974  12.234  1.7607 -0.1063  0.7474
   29DOPE  H11Y 3719   1.293   1.807  12.306 -1.8042 -1.6257  2.0422
   29DOPE  C312 3720   1.138   1.804  12.179  0.4732  0.4691 -0.3107
   29DOPE  H12X 3721   1.107   1.707  12.224 -0.6351  0.8938 -0.1105
   29DOPE  H12Y 3722   1.215   1.775  12.105  0.5362  2.6074 -1.1650
   29DOPE  C313 3723   1.028   1.891  12.105 -0.0834  0.5327  0.7562
   29DOPE  H13X 3724   0.940   1.915  12.168 -0.5497  1.1579 -0.1211
   29DOPE  H13Y 3725   1.088   1.980  12.076  0.1869 -0.7046 -3.0201
   29DOPE  C314 3726   0.984   1.835  11.972  0.1418  0.5616 -0.5085
   29DOPE  H14X 3727   0.892   1.774  11.984 -0.1186  0.9486 -0.5395
   29DOPE  H14Y 3728   1.062   1.775  11.920  0.6066 -0.8659  1.6922
   29DOPE  C315 3729   0.939   1.947  11.872 -0.4868 -0.1184  0.3886
   29DOPE  H15X 3730   1.019   2.013  11.833  1.0854 -1.8203  0.6155
   29DOPE  H15Y 3731   0.862   2.008  11.924 -0.3335  0.0939  0.3662
   29DOPE  C316 3732   0.862   1.880  11.756 -0.1888  0.1374  0.1470
   29DOPE  H16X 3733   0.776   1.830  11.806 -0.0259  1.9877  2.4642
   29DOPE  H16Y 3734   0.920   1.795  11.715  0.5654 -0.0713  1.5876
   29DOPE  C317 3735   0.793   1.978  11.659  0.0885 -0.2932 -0.1622
   29DOPE  H17X 3736   0.706   1.923  11.619  0.3428 -1.2272  0.5356
   29DOPE  H17Y 3737   0.760   2.062  11.723 -2.0233 -1.8299  0.8645
   29DOPE  C318 3738   0.889   2.031  11.553 -0.8485 -0.0219 -0.4968
   29DOPE  H18X 3739   0.929   1.950  11.489  0.3259 -0.0219  0.2103
   29DOPE  H18Y 3740   0.839   2.112  11.495  0.2872  0.7683 -0.4125
   29DOPE  H18Z 3741   0.979   2.066  11.609 -0.4416 -0.2461 -1.0045
   30DOPE     N 3742   2.615   1.057  13.513 -0.1023 -0.1176 -0.5650
   30DOPE   HN1 3743   2.514   1.031  13.517 -0.6448  1.9383  0.4606
   30DOPE   HN2 3744   2.633   1.140  13.573 -0.8302  1.8112 -2.8405
   30DOPE   HN3 3745   2.646   1.082  13.417  0.2019 -1.7361 -0.9242
   30DOPE   C12 3746   2.700   0.935  13.565  1.0556 -0.2679  0.1696
   30DOPE  H12A 3747   2.793   0.940  13.506  0.4556  3.2612 -0.7154
   30DOPE  H12B 3748   2.637   0.844  13.553 -1.2278  1.3577 -1.0391
   30DOPE   C11 3749   2.742   0.956  13.716  0.0848 -0.3561  0.3779
   30DOPE  H11A 3750   2.784   0.861  13.754  0.0334 -1.2025 -1.5676
   30DOPE  H11B 3751   2.648   0.991  13.763  0.3786  1.9375 -0.5779
   30DOPE     P 3752   2.980   1.044  13.713  0.4348 -0.3345  0.1925
   30DOPE   O13 3753   3.011   0.920  13.789 -0.0026  0.2410 -0.5916
   30DOPE   O14 3754   3.055   1.168  13.740 -0.3208  0.2246  0.0325
   30DOPE   O11 3755   2.990   1.017  13.558 -0.0482 -0.8043 -0.2107
   30DOPE   O12 3756   2.828   1.068  13.738  0.3784  0.0583  0.0908
   30DOPE    C1 3757   3.116   0.958  13.511  0.2551  0.6292 -0.2978
   30DOPE    HA 3758   3.127   0.855  13.551 -1.6304  0.6311  0.3251
   30DOPE    HB 3759   3.201   1.015  13.556 -0.8794 -0.0842  3.0534
   30DOPE    C2 3760   3.136   0.948  13.359 -0.5680  0.2434  0.2522
   30DOPE    HS 3761   3.233   0.896  13.341  0.5228  0.8807  3.4374
   30DOPE   O21 3762   3.137   1.085  13.304  0.1244 -0.2161  0.4677
   30DOPE   C21 3763   3.251   1.148  13.318  0.0433 -0.0472 -0.1238
   30DOPE   O22 3764   3.347   1.113  13.384 -0.0597 -0.1962 -0.2504
   30DOPE   C22 3765   3.233   1.284  13.251 -0.0428 -0.3312 -0.3383
   30DOPE   H2R 3766   3.151   1.339  13.303 -2.5144 -2.4792 -1.7992
   30DOPE   H2S 3767   3.217   1.275  13.142  2.1831  0.6491 -0.8122
   30DOPE    C3 3768   3.022   0.860  13.290 -0.3363  0.0430 -0.2184
   30DOPE    HX 3769   2.928   0.903  13.330 -1.2549 -0.8348 -1.3633
   30DOPE    HY 3770   3.029   0.754  13.324 -0.9921  0.0485 -0.0633
   30DOPE   O31 3771   3.018   0.876  13.149  0.1637 -0.2947 -0.2590
   30DOPE   C31 3772   2.938   0.800  13.083 -0.0614 -0.8726  0.0387
   30DOPE   O32 3773   2.868   0.708  13.127  0.1122 -0.0638 -0.2493
   30DOPE   C32 3774   2.942   0.830  12.934  0.1342  0.4195 -0.1498
   30DOPE   H2X 3775   2.948   0.940  12.919 -0.9209  0.4073 -0.8180
   30DOPE   H2Y 3776   3.035   0.790  12.889 -0.1092  0.9607 -1.1812
   30DOPE   C23 3777   3.356   1.370  13.269 -0.6347  0.3388  0.3612
   30DOPE   H3R 3778   3.448   1.309  13.266 -1.3857 -0.8383 -1.6968
   30DOPE   H3S 3779   3.362   1.409  13.372  0.0763  2.0706 -0.2981
   30DOPE   C24 3780   3.390   1.480  13.157  0.4708  0.4000  0.0398
   30DOPE   H4R 3781   3.483   1.536  13.183 -0.5377  1.6877  0.9796
   30DOPE   H4S 3782   3.304   1.549  13.146 -0.5031 -0.2411  2.7982
   30DOPE   C25 3783   3.425   1.418  13.019  0.3935  0.2701 -0.2125
   30DOPE   H5R 3784   3.332   1.368  12.988 -0.0663 -0.1419  1.6851
   30DOPE   H5S 3785   3.500   1.336  13.024 -0.5887 -0.6212  0.3100
   30DOPE   C26 3786   3.461   1.518  12.906  0.0415 -0.4323  0.0812
   30DOPE   H6R 3787   3.542   1.589  12.931 -0.3433  0.2586 -0.5878
   30DOPE   H6S 3788   3.372   1.584  12.895  0.5011  0.1672 -0.0546
   30DOPE   C27 3789   3.500   1.440  12.781  0.8509  0.7569  0.4039
   30DOPE   H7R 3790   3.416   1.374  12.751  1.6853 -0.2187  0.1702
   30DOPE   H7S 3791   3.579   1.371  12.818 -0.1871 -1.3173 -1.0558
   30DOPE   C28 3792   3.545   1.521  12.657 -0.4850 -0.2347 -0.2670
   30DOPE   H8R 3793   3.589   1.447  12.586 -0.9334 -1.4355  0.6800
   30DOPE   H8S 3794   3.629   1.589  12.685 -1.1121 -0.3805  2.1950
   30DOPE   C29 3795   3.422   1.595  12.598  0.0458  0.3348  0.7223
   30DOPE   H9R 3796   3.350   1.644  12.665 -0.8707 -1.6242  1.2309
   30DOPE  C210 3797   3.389   1.573  12.471  0.5264 -0.3987  0.3719
   30DOPE  H10R 3798   3.298   1.620  12.432 -0.4861 -2.8034 -0.3634
   30DOPE  C211 3799   3.467   1.494  12.363 -0.9760 -0.5669  0.3229
   30DOPE  H11R 3800   3.420   1.396  12.341 -1.3759 -0.2171 -0.4266
   30DOPE  H11S 3801   3.575   1.471  12.380 -0.4297  0.8397 -0.9974
   30DOPE  C212 3802   3.461   1.577  12.226 -0.1965 -0.3686 -0.5054
   30DOPE  H12R 3803   3.530   1.664  12.225 -0.9054  0.1969 -1.0282
   30DOPE  H12S 3804   3.362   1.627  12.225  0.5102  1.5851  3.7884
   30DOPE  C213 3805   3.485   1.495  12.103  0.4053  0.1167 -0.3055
   30DOPE  H13R 3806   3.433   1.397  12.106 -0.8225  0.5806 -3.1269
   30DOPE  H13S 3807   3.588   1.467  12.073 -0.8496 -4.0112 -1.4396
   30DOPE  C214 3808   3.427   1.553  11.975  0.2863  0.0607  0.6940
   30DOPE  H14R 3809   3.486   1.646  11.959  0.8526 -0.3557  0.2984
   30DOPE  H14S 3810   3.320   1.584  11.974  0.5155  0.9046 -0.5898
   30DOPE  C215 3811   3.447   1.482  11.840 -0.0656 -0.3801 -0.7951
   30DOPE  H15R 3812   3.389   1.387  11.831 -1.6347  0.6835 -2.5638
   30DOPE  H15S 3813   3.556   1.461  11.831  1.3164  2.9192  4.1289
   30DOPE  C216 3814   3.402   1.563  11.723  0.4851 -0.2237  0.2493
   30DOPE  H16R 3815   3.475   1.646  11.709  1.1825 -0.7149  0.8941
   30DOPE  H16S 3816   3.302   1.611  11.733 -0.4973 -1.6221 -2.1017
   30DOPE  C217 3817   3.390   1.481  11.597  0.3938  0.2657  0.0287
   30DOPE  H17R 3818   3.295   1.424  11.610  0.4747  0.5176  2.0807
   30DOPE  H17S 3819   3.470   1.404  11.595  0.4217  0.3061 -0.7180
   30DOPE  C218 3820   3.379   1.548  11.467  0.2395 -0.0545  0.5384
   30DOPE  H18R 3821   3.323   1.484  11.394  0.1102 -0.2344  0.7935
   30DOPE  H18S 3822   3.483   1.575  11.439  0.5009  0.3167  1.8158
   30DOPE  H18T 3823   3.318   1.641  11.471  0.0171  0.0044 -2.1164
   30DOPE   C33 3824   2.825   0.793  12.844 -0.2030  0.2681 -0.1987
   30DOPE   H3X 3825   2.727   0.838  12.874 -0.3486 -1.3046  1.9448
   30DOPE   H3Y 3826   2.806   0.684  12.848  2.1975 -0.2617 -1.7221
   30DOPE   C34 3827   2.867   0.835  12.697 -0.1125 -0.3057 -0.9242
   30DOPE   H4X 3828   2.872   0.945  12.683  1.8681 -0.0083  1.5057
   30DOPE   H4Y 3829   2.965   0.783  12.687 -0.1664 -0.6517  0.2506
   30DOPE   C35 3830   2.758   0.770  12.608 -0.5936  0.4263 -0.7704
   30DOPE   H5X 3831   2.655   0.812  12.613 -0.8811 -0.1523 -1.5916
   30DOPE   H5Y 3832   2.759   0.662  12.635  3.0888  0.7422  0.9589
   30DOPE   C36 3833   2.795   0.776  12.459 -0.0974  0.3939  0.0734
   30DOPE   H6X 3834   2.903   0.756  12.446 -0.1004 -2.5234  3.0312
   30DOPE   H6Y 3835   2.766   0.878  12.428  0.2215  1.2911  2.4991
   30DOPE   C37 3836   2.712   0.672  12.376  0.1139 -0.1103 -0.0688
   30DOPE   H7X 3837   2.720   0.575  12.429 -1.3292 -1.1626 -1.6452
   30DOPE   H7Y 3838   2.608   0.712  12.367 -0.3413 -1.5758 -2.0747
   30DOPE   C38 3839   2.774   0.666  12.229  0.3572 -0.5037 -0.4720
   30DOPE   H8X 3840   2.711   0.592  12.177 -0.6781 -0.0758  0.1510
   30DOPE   H8Y 3841   2.878   0.633  12.253  0.1069 -0.5310  0.6490
   30DOPE   C39 3842   2.776   0.795  12.160 -0.3113 -0.7183  0.5491
   30DOPE   H9X 3843   2.819   0.882  12.211  0.6171 -0.6414 -0.3411
   30DOPE  C310 3844   2.745   0.817  12.032 -0.1402 -0.1179 -0.7349
   30DOPE  H10X 3845   2.757   0.920  11.996 -0.2512  0.6106  1.2276
   30DOPE  C311 3846   2.711   0.729  11.915 -0.2905  0.4170 -0.7177
   30DOPE  H11X 3847   2.770   0.635  11.922  1.0648  1.3398  0.5956
   30DOPE  H11Y 3848   2.604   0.699  11.922 -0.1524 -0.1055 -0.8089
   30DOPE  C312 3849   2.734   0.802  11.783  0.6073 -0.2569 -0.2504
   30DOPE  H12X 3850   2.837   0.844  11.781  0.3283  0.5553  0.8936
   30DOPE  H12Y 3851   2.663   0.885  11.763  1.6275  0.6999 -0.0655
   30DOPE  C313 3852   2.736   0.689  11.671 -0.2666 -1.0088 -0.0025
   30DOPE  H13X 3853   2.791   0.599  11.704 -1.0494 -1.0477  1.2652
   30DOPE  H13Y 3854   2.632   0.650  11.668  0.0180 -1.7809  0.0044
   30DOPE  C314 3855   2.766   0.724  11.525  0.2653 -0.2279 -0.1275
   30DOPE  H14X 3856   2.869   0.765  11.531 -0.0755  0.8613 -1.4093
   30DOPE  H14Y 3857   2.703   0.812  11.500 -1.0894 -1.8045 -2.6690
   30DOPE  C315 3858   2.760   0.613  11.423 -0.4748  0.2768 -0.3301
   30DOPE  H15X 3859   2.656   0.573  11.419  0.5719 -2.6012 -1.6411
   30DOPE  H15Y 3860   2.823   0.529  11.461  0.3181  1.7619  1.8353
   30DOPE  C316 3861   2.797   0.657  11.282  0.2341  0.1601  0.5256
   30DOPE  H16X 3862   2.905   0.684  11.286  0.5406 -1.0840  1.2408
   30DOPE  H16Y 3863   2.744   0.751  11.256  2.5943  1.1078 -1.2727
   30DOPE  C317 3864   2.778   0.556  11.172  0.5447 -0.1861  0.1785
   30DOPE  H17X 3865   2.847   0.474  11.201  1.8314  1.2970  1.4644
   30DOPE  H17Y 3866   2.675   0.514  11.164  0.9743 -0.9536 -1.8131
   30DOPE  C318 3867   2.818   0.596  11.028 -0.1181  0.1353  0.2854
   30DOPE  H18X 3868   2.875   0.526  10.963 -0.2785  0.4063 -0.1426
   30DOPE  H18Y 3869   2.731   0.631  10.969  0.2025 -1.9519 -1.5438
   30DOPE  H18Z 3870   2.895   0.675  11.037  0.4320 -0.4246  0.6269
   31DOPE     N 3871   2.293   4.548   8.963 -0.1216 -0.0386 -0.5060
   31DOPE   HN1 3872   2.232   4.628   8.990  0.2814  0.2178 -0.3593
   31DOPE   HN2 3873   2.255   4.451   8.967  0.6957 -0.6242 -3.8831
   31DOPE   HN3 3874   2.376   4.553   9.026 -1.6095  1.3920  1.4804
   31DOPE   C12 3875   2.336   4.564   8.823 -0.6063  0.2259 -0.4366
   31DOPE  H12A 3876   2.341   4.673   8.804  0.1705  0.2203 -0.2774
   31DOPE  H12B 3877   2.271   4.523   8.742  1.2914 -0.6925 -1.5906
   31DOPE   C11 3878   2.469   4.487   8.801  0.1802  0.1435  0.2894
   31DOPE  H11A 3879   2.510   4.500   8.699 -1.7898 -1.4135 -0.7550
   31DOPE  H11B 3880   2.446   4.379   8.809  3.2592 -0.5101  2.1901
   31DOPE     P 3881   2.638   4.679   8.893  0.0144 -0.2514 -0.0703
   31DOPE   O13 3882   2.545   4.761   8.972 -0.3779  0.3135 -0.0725
   31DOPE   O14 3883   2.667   4.713   8.747  0.1592 -0.2201  0.2105
   31DOPE   O11 3884   2.778   4.662   8.962 -0.1083  0.3517  0.6866
   31DOPE   O12 3885   2.582   4.528   8.883  0.6567 -0.2154  0.3149
   31DOPE    C1 3886   2.801   4.640   9.099  0.5185 -0.3866 -0.4399
   31DOPE    HA 3887   2.859   4.548   9.121  1.6142 -0.0760 -1.8921
   31DOPE    HB 3888   2.702   4.614   9.141  0.0370 -0.3354 -1.4987
   31DOPE    C2 3889   2.853   4.769   9.172  0.2864 -0.2749  0.2935
   31DOPE    HS 3890   2.812   4.855   9.115 -0.0178 -1.2238 -0.9464
   31DOPE   O21 3891   2.992   4.763   9.159 -0.5552 -0.0543 -0.7129
   31DOPE   C21 3892   3.053   4.874   9.171 -0.0602 -0.1752  0.6502
   31DOPE   O22 3893   3.008   4.984   9.189 -0.1791 -0.0410  0.0657
   31DOPE   C22 3894   3.209   4.859   9.162 -0.2566 -0.1976 -0.0421
   31DOPE   H2R 3895   3.254   4.961   9.156 -1.4417  0.3570  0.3645
   31DOPE   H2S 3896   3.237   4.797   9.074 -0.6811 -2.9584  1.6527
   31DOPE    C3 3897   2.804   4.776   9.322  0.0976 -0.3901  0.2631
   31DOPE    HX 3898   2.696   4.804   9.320  0.6101  1.7397 -0.4800
   31DOPE    HY 3899   2.859   4.862   9.366  0.3117 -0.3376 -0.1029
   31DOPE   O31 3900   2.830   4.653   9.391  0.5203 -0.1402  0.0604
   31DOPE   C31 3901   2.811   4.682   9.522 -0.2465 -0.1074  0.5039
   31DOPE   O32 3902   2.781   4.790   9.562 -0.0718 -0.3865  0.1885
   31DOPE   C32 3903   2.817   4.547   9.596 -0.3240 -0.9324 -0.1685
   31DOPE   H2X 3904   2.762   4.472   9.536  0.9612 -3.0469  1.1744
   31DOPE   H2Y 3905   2.921   4.518   9.619  0.8252  2.0535 -1.0783
   31DOPE   C23 3906   3.278   4.799   9.288 -0.1917 -0.3678 -0.7369
   31DOPE   H3R 3907   3.211   4.816   9.375  0.8563  0.9574 -0.1492
   31DOPE   H3S 3908   3.375   4.850   9.305  0.0359 -0.2511 -2.2488
   31DOPE   C24 3909   3.297   4.643   9.279 -0.0416 -0.3508 -0.9213
   31DOPE   H4R 3910   3.340   4.614   9.181  0.3509 -0.3735 -0.7445
   31DOPE   H4S 3911   3.199   4.593   9.292 -1.9403  3.1096 -0.8189
   31DOPE   C25 3912   3.392   4.588   9.389  0.0401  0.1050  0.1035
   31DOPE   H5R 3913   3.472   4.658   9.421 -0.9564  1.4099 -0.1795
   31DOPE   H5S 3914   3.438   4.493   9.354  0.5375 -0.1438  1.3695
   31DOPE   C26 3915   3.316   4.568   9.523  0.1608 -0.4787 -0.0509
   31DOPE   H6R 3916   3.229   4.506   9.495 -0.7834  0.2615  1.1192
   31DOPE   H6S 3917   3.276   4.662   9.568  2.5213  0.0646  1.0717
   31DOPE   C27 3918   3.403   4.491   9.620 -0.7152  0.4881  1.0069
   31DOPE   H7R 3919   3.430   4.390   9.582 -0.5282 -0.5584  3.6917
   31DOPE   H7S 3920   3.338   4.475   9.709 -1.7692  0.1485  0.1923
   31DOPE   C28 3921   3.520   4.570   9.673 -0.2247  0.1320 -0.4453
   31DOPE   H8R 3922   3.478   4.654   9.732 -1.9493  0.0648 -1.5129
   31DOPE   H8S 3923   3.576   4.608   9.585 -2.6548  1.8418 -1.3476
   31DOPE   C29 3924   3.602   4.485   9.767  0.3937  0.6499  0.5116
   31DOPE   H9R 3925   3.697   4.445   9.729  0.3863 -0.3658  1.5098
   31DOPE  C210 3926   3.571   4.453   9.892 -0.7080  0.0787 -0.4341
   31DOPE  H10R 3927   3.642   4.389   9.946 -2.0231  0.1480  1.4910
   31DOPE  C211 3928   3.447   4.478   9.972 -0.9421 -0.9131 -0.4927
   31DOPE  H11R 3929   3.388   4.385   9.969 -1.1297 -0.7777 -1.0789
   31DOPE  H11S 3930   3.382   4.565   9.946 -2.1664 -1.5363  0.3737
   31DOPE  C212 3931   3.491   4.503  10.122 -0.1203 -0.7343  0.3149
   31DOPE  H12R 3932   3.405   4.558  10.168 -0.0904 -2.3287  2.4220
   31DOPE  H12S 3933   3.575   4.572  10.144  0.2951 -1.8962  2.8094
   31DOPE  C213 3934   3.512   4.374  10.194 -0.5203  0.7363 -0.0190
   31DOPE  H13R 3935   3.612   4.329  10.177 -1.4793 -1.6036  0.0954
   31DOPE  H13S 3936   3.427   4.304  10.175  0.9640 -1.7193  1.7163
   31DOPE  C214 3937   3.535   4.392  10.344  0.2140 -0.8320  0.2321
   31DOPE  H14R 3938   3.620   4.461  10.364 -0.2789  0.4346 -1.6992
   31DOPE  H14S 3939   3.571   4.298  10.390  0.9556 -0.8253 -0.3136
   31DOPE  C215 3940   3.409   4.443  10.420 -0.0472 -0.0273  0.2171
   31DOPE  H15R 3941   3.320   4.378  10.408  1.3460 -2.1792  0.8847
   31DOPE  H15S 3942   3.391   4.547  10.386  0.3377 -0.7808 -2.5231
   31DOPE  C216 3943   3.440   4.441  10.576 -0.3319  0.1668  0.2303
   31DOPE  H16R 3944   3.523   4.513  10.593 -1.7568  1.7609  0.6921
   31DOPE  H16S 3945   3.479   4.338  10.587  0.3061 -0.0557 -3.1151
   31DOPE  C217 3946   3.325   4.479  10.674  0.6359  0.0753  0.5534
   31DOPE  H17R 3947   3.234   4.415  10.670 -0.5201  1.7366 -1.8304
   31DOPE  H17S 3948   3.292   4.583  10.652 -0.5949 -0.7289 -1.7257
   31DOPE  C218 3949   3.365   4.482  10.827 -0.2732 -0.3849  0.0342
   31DOPE  H18R 3950   3.390   4.378  10.859  0.0573 -0.2203  0.3236
   31DOPE  H18S 3951   3.289   4.527  10.895 -0.3363  0.3215 -0.4916
   31DOPE  H18T 3952   3.458   4.541  10.840  0.9180 -2.3055  0.6946
   31DOPE   C33 3953   2.740   4.554   9.727 -0.2884 -0.0811 -0.2280
   31DOPE   H3X 3954   2.719   4.451   9.763  0.2940 -0.1505 -0.0870
   31DOPE   H3Y 3955   2.640   4.603   9.724  0.5362  2.0631  2.8694
   31DOPE   C34 3956   2.818   4.630   9.843 -0.1592 -0.2054  0.1606
   31DOPE   H4X 3957   2.912   4.581   9.875 -0.5219 -0.3643  1.0080
   31DOPE   H4Y 3958   2.853   4.728   9.804  0.8030  0.9427  3.5782
   31DOPE   C35 3959   2.723   4.669   9.963  0.0382 -0.4823 -0.1139
   31DOPE   H5X 3960   2.695   4.579  10.021  0.0383 -0.1178  0.4641
   31DOPE   H5Y 3961   2.627   4.705   9.921 -0.0174  0.5617  0.8465
   31DOPE   C36 3962   2.774   4.783  10.052  0.7067 -0.2903  0.1816
   31DOPE   H6X 3963   2.697   4.825  10.119  0.5131 -0.8676  0.3273
   31DOPE   H6Y 3964   2.816   4.862   9.986  0.2406 -1.8742 -2.1354
   31DOPE   C37 3965   2.893   4.741  10.141  0.2028  0.1369 -0.6531
   31DOPE   H7X 3966   2.977   4.715  10.072 -0.0077 -2.1703 -0.1284
   31DOPE   H7Y 3967   2.923   4.825  10.206 -0.5483 -0.2195  0.1733
   31DOPE   C38 3968   2.868   4.631  10.243  0.0644  0.4396  0.6048
   31DOPE   H8X 3969   2.813   4.546  10.197 -1.8881  1.7051  0.4834
   31DOPE   H8Y 3970   2.789   4.665  10.314 -1.3307  0.0355 -0.7104
   31DOPE   C39 3971   2.995   4.600  10.325 -0.2192  0.1164 -0.3612
   31DOPE   H9X 3972   3.080   4.568  10.263 -0.3553 -3.1053  0.9540
   31DOPE  C310 3973   3.015   4.604  10.457  0.3569  0.7109  0.1525
   31DOPE  H10X 3974   3.121   4.594  10.487  0.1840  0.7454  0.7849
   31DOPE  C311 3975   2.920   4.625  10.576 -0.1581  0.0088  0.0307
   31DOPE  H11X 3976   2.822   4.620  10.523 -0.1029 -2.4825  0.0491
   31DOPE  H11Y 3977   2.919   4.523  10.620  1.4592  0.0275  0.1604
   31DOPE  C312 3978   2.953   4.725  10.685  0.1504  0.3588  0.8651
   31DOPE  H12X 3979   2.932   4.831  10.657  0.6748 -0.0710 -1.3240
   31DOPE  H12Y 3980   3.062   4.719  10.703  0.4824  0.3259 -0.9748
   31DOPE  C313 3981   2.882   4.683  10.821 -0.3373 -0.2340 -0.0416
   31DOPE  H13X 3982   2.779   4.660  10.785 -0.8320  0.2769  1.0002
   31DOPE  H13Y 3983   2.936   4.593  10.856  0.1514  0.6425  1.5576
   31DOPE  C314 3984   2.883   4.796  10.924 -0.0189  0.2333 -0.3275
   31DOPE  H14X 3985   2.829   4.764  11.016 -0.2089  1.0858 -0.1322
   31DOPE  H14Y 3986   2.829   4.874  10.866 -0.1966 -0.2310 -0.7894
   31DOPE  C315 3987   3.021   4.842  10.959  0.0017 -0.3288 -0.0156
   31DOPE  H15X 3988   3.058   4.917  10.886 -0.4173 -0.3485 -0.2496
   31DOPE  H15Y 3989   3.090   4.755  10.964 -1.1960 -1.2544  1.4937
   31DOPE  C316 3990   3.026   4.913  11.095  0.1028 -0.1185 -0.2003
   31DOPE  H16X 3991   2.964   4.859  11.169 -0.9087  1.3223  0.0412
   31DOPE  H16Y 3992   2.989   5.018  11.094  2.5725  0.8429  0.2741
   31DOPE  C317 3993   3.175   4.917  11.143  1.0435 -0.3562  0.3526
   31DOPE  H17X 3994   3.202   4.815  11.176 -0.8908 -0.8948  0.3910
   31DOPE  H17Y 3995   3.245   4.935  11.058 -0.7757  2.1119 -0.7818
   31DOPE  C318 3996   3.210   5.024  11.249 -0.0664 -0.3180 -0.9927
   31DOPE  H18X 3997   3.206   5.127  11.209  2.4880  0.8841  1.5705
   31DOPE  H18Y 3998   3.151   5.015  11.343  1.5172  0.9281  0.1559
   31DOPE  H18Z 3999   3.316   5.013  11.279  0.4216  0.6706 -2.2626
   32DOPE     N 4000   4.044   3.620   8.610  0.0940  0.2608 -0.0405
   32DOPE   HN1 4001   4.091   3.687   8.546  0.6952  1.8784  1.9875
   32DOPE   HN2 4002   3.975   3.555   8.568  0.7351 -0.4498 -0.0104
   32DOPE   HN3 4003   3.988   3.669   8.682  0.4138  0.5218  0.0351
   32DOPE   C12 4004   4.147   3.554   8.697  0.4550 -0.2972 -0.3290
   32DOPE  H12A 4005   4.094   3.501   8.778  0.5277  2.3075  1.5526
   32DOPE  H12B 4006   4.205   3.636   8.744 -0.2542 -0.5695  1.0496
   32DOPE   C11 4007   4.231   3.457   8.613  0.0356 -0.8432 -0.3736
   32DOPE  H11A 4008   4.172   3.369   8.579 -0.1526 -1.2137  0.8609
   32DOPE  H11B 4009   4.297   3.406   8.686 -0.3143 -1.3757 -0.4255
   32DOPE     P 4010   4.443   3.596   8.523 -0.0265 -0.2172  0.1513
   32DOPE   O13 4011   4.422   3.725   8.591 -0.3100  0.0661 -0.0691
   32DOPE   O14 4012   4.514   3.615   8.397 -0.7816 -0.4630  0.2193
   32DOPE   O11 4013   4.535   3.516   8.622 -0.1641 -0.0982  0.0452
   32DOPE   O12 4014   4.304   3.511   8.498 -0.0566  0.5214  0.2092
   32DOPE    C1 4015   4.671   3.568   8.641 -0.7466 -0.1550  0.6013
   32DOPE    HA 4016   4.661   3.671   8.681  1.3784 -0.3536  1.8007
   32DOPE    HB 4017   4.726   3.567   8.545  0.1724 -1.3188  1.1209
   32DOPE    C2 4018   4.764   3.487   8.733  1.2820 -0.2136  0.2447
   32DOPE    HS 4019   4.748   3.385   8.694 -1.7109  0.3414 -0.2535
   32DOPE   O21 4020   4.712   3.502   8.872 -0.1548 -0.3676  0.2611
   32DOPE   C21 4021   4.622   3.412   8.906 -0.2459 -0.0845  0.7937
   32DOPE   O22 4022   4.595   3.310   8.845  0.4705 -0.7406 -0.2722
   32DOPE   C22 4023   4.558   3.458   9.036  0.1935  0.8477  0.9043
   32DOPE   H2R 4024   4.481   3.388   9.074  0.9889 -0.6090 -0.0977
   32DOPE   H2S 4025   4.523   3.563   9.020  1.1540  0.8639 -1.5558
   32DOPE    C3 4026   4.915   3.517   8.728  0.2586 -0.3736  0.2259
   32DOPE    HX 4027   4.924   3.624   8.758 -0.4078  0.6764 -2.8905
   32DOPE    HY 4028   4.946   3.499   8.623 -2.2135  1.2900 -0.9026
   32DOPE   O31 4029   4.986   3.432   8.826  0.0404 -0.3931  0.2969
   32DOPE   C31 4030   5.116   3.469   8.850  0.4022  0.3915  0.3806
   32DOPE   O32 4031   5.166   3.570   8.796 -0.4454  0.0761 -0.2437
   32DOPE   C32 4032   5.196   3.379   8.944  0.3219 -0.1152 -0.3032
   32DOPE   H2X 4033   5.167   3.274   8.923  0.3110  0.3515 -3.0169
   32DOPE   H2Y 4034   5.303   3.408   8.931 -0.1455  2.2636  0.5669
   32DOPE   C23 4035   4.666   3.489   9.146 -0.0117 -0.1695  0.1930
   32DOPE   H3R 4036   4.619   3.551   9.225  0.0653  1.3345 -0.9097
   32DOPE   H3S 4037   4.732   3.565   9.099  1.5556 -1.6129 -0.0366
   32DOPE   C24 4038   4.743   3.371   9.205  0.4328  0.2728  0.0406
   32DOPE   H4R 4039   4.790   3.319   9.119 -1.7046 -1.2800 -0.2536
   32DOPE   H4S 4040   4.685   3.289   9.252 -1.1440  1.8492  0.9483
   32DOPE   C25 4041   4.851   3.416   9.306  0.1910 -0.3819 -0.0435
   32DOPE   H5R 4042   4.804   3.460   9.396 -0.1034 -2.1732  0.7109
   32DOPE   H5S 4043   4.915   3.492   9.255 -0.4526  0.9060  0.9816
   32DOPE   C26 4044   4.931   3.295   9.366 -0.3954 -0.6289 -0.0784
   32DOPE   H6R 4045   4.984   3.242   9.283  2.3211 -0.7828  1.6202
   32DOPE   H6S 4046   4.851   3.234   9.413 -0.8563  0.2850  0.3414
   32DOPE   C27 4047   5.030   3.356   9.467 -0.1548  0.3930  0.0086
   32DOPE   H7R 4048   4.973   3.420   9.538 -1.1069  0.4837 -0.8151
   32DOPE   H7S 4049   5.109   3.409   9.410 -1.6723  0.1900 -2.4101
   32DOPE   C28 4050   5.092   3.235   9.535  0.0805 -0.3297 -0.1657
   32DOPE   H8R 4051   5.142   3.169   9.461  1.6104 -1.1543  1.5347
   32DOPE   H8S 4052   5.005   3.175   9.570  1.7996 -4.0931 -1.7734
   32DOPE   C29 4053   5.190   3.273   9.643  1.0619 -0.8425 -0.6527
   32DOPE   H9R 4054   5.261   3.351   9.613 -2.6961  4.0550  1.7143
   32DOPE  C210 4055   5.166   3.249   9.780 -0.6217  0.1634  0.9268
   32DOPE  H10R 4056   5.244   3.273   9.854 -1.6154  1.0010  1.7278
   32DOPE  C211 4057   5.043   3.188   9.841 -0.3353  0.0325  0.5159
   32DOPE  H11R 4058   4.983   3.120   9.777  0.3012 -1.5435  1.5067
   32DOPE  H11S 4059   4.972   3.261   9.886  0.5757 -0.2460  2.5446
   32DOPE  C212 4060   5.092   3.106   9.966  0.3008 -0.7098  0.4196
   32DOPE  H12R 4061   5.163   3.026   9.935  2.2911  0.9120  0.5386
   32DOPE  H12S 4062   5.000   3.052   9.994 -0.1530 -0.2616 -0.1706
   32DOPE  C213 4063   5.151   3.180  10.090 -0.4601  0.2247 -0.0731
   32DOPE  H13R 4064   5.122   3.286  10.077 -0.4465  0.0939 -1.2664
   32DOPE  H13S 4065   5.259   3.193  10.069 -0.3919  1.4297  0.8683
   32DOPE  C214 4066   5.119   3.125  10.228  0.7147  1.0866  0.1440
   32DOPE  H14R 4067   5.197   3.057  10.266 -0.7685  0.1304  1.6371
   32DOPE  H14S 4068   5.031   3.058  10.217  1.1432 -0.0904  3.0494
   32DOPE  C215 4069   5.078   3.233  10.327 -0.1476 -0.4682 -0.1466
   32DOPE  H15R 4070   4.979   3.277  10.306 -0.7133  0.0818  3.1360
   32DOPE  H15S 4071   5.153   3.315  10.320 -0.1970 -0.4317 -0.2496
   32DOPE  C216 4072   5.058   3.172  10.468  0.1210  0.1780 -0.2695
   32DOPE  H16R 4073   4.993   3.081  10.465 -1.2556  1.1147  0.1511
   32DOPE  H16S 4074   5.009   3.245  10.535  1.0304 -0.9920  1.7618
   32DOPE  C217 4075   5.187   3.136  10.544  0.1160 -0.1434  0.5187
   32DOPE  H17R 4076   5.264   3.216  10.547  1.3072 -1.2784  1.8477
   32DOPE  H17S 4077   5.239   3.052  10.493 -3.3979 -1.4856 -1.2432
   32DOPE  C218 4078   5.160   3.078  10.685  0.1980  0.1749  0.3336
   32DOPE  H18R 4079   5.059   3.032  10.686 -0.4736  1.5810  0.4970
   32DOPE  H18S 4080   5.154   3.154  10.766 -0.4235 -0.8232  1.2570
   32DOPE  H18T 4081   5.234   2.998  10.706 -1.1899 -0.9360  1.1186
   32DOPE   C33 4082   5.146   3.399   9.091 -0.0621 -0.7982  0.1837
   32DOPE   H3X 4083   5.215   3.338   9.154  0.8223 -2.2371 -2.0831
   32DOPE   H3Y 4084   5.044   3.360   9.111  0.1947 -1.5933 -0.0103
   32DOPE   C34 4085   5.163   3.543   9.141  0.1025 -0.9310 -0.4513
   32DOPE   H4X 4086   5.111   3.618   9.077  0.6279 -0.2937 -0.1497
   32DOPE   H4Y 4087   5.120   3.557   9.242  1.6083  0.2273  0.0780
   32DOPE   C35 4088   5.313   3.577   9.142 -0.5385 -0.3861 -0.3177
   32DOPE   H5X 4089   5.350   3.618   9.046  0.3284 -0.1140  0.1274
   32DOPE   H5Y 4090   5.388   3.496   9.147 -1.2066 -1.0627 -0.9960
   32DOPE   C36 4091   5.340   3.687   9.246  0.2378 -0.4976  0.0545
   32DOPE   H6X 4092   5.249   3.750   9.245  2.1885  2.5525  1.1086
   32DOPE   H6Y 4093   5.417   3.756   9.206 -0.2153  0.4834  0.8244
   32DOPE   C37 4094   5.381   3.630   9.380  0.6429 -0.3203  0.2240
   32DOPE   H7X 4095   5.304   3.566   9.428  0.3342  0.2042  0.4375
   32DOPE   H7Y 4096   5.475   3.572   9.373  0.5541 -0.6581  1.5315
   32DOPE   C38 4097   5.393   3.734   9.491 -0.3731 -0.2027  0.8133
   32DOPE   H8X 4098   5.394   3.695   9.595  2.1277  0.9113  1.2880
   32DOPE   H8Y 4099   5.303   3.798   9.481 -0.9992 -0.4601  3.9480
   32DOPE   C39 4100   5.522   3.808   9.461  0.2324 -0.4028 -0.2442
   32DOPE   H9X 4101   5.520   3.859   9.363 -1.7335  0.8572  0.4025
   32DOPE  C310 4102   5.638   3.807   9.528  0.0371  0.2126 -0.9341
   32DOPE  H10X 4103   5.713   3.882   9.498  0.0156  0.4851 -0.3143
   32DOPE  C311 4104   5.675   3.737   9.664 -0.0488 -0.3118  0.5440
   32DOPE  H11X 4105   5.613   3.650   9.696 -0.8061  0.2107  0.5204
   32DOPE  H11Y 4106   5.785   3.719   9.665  0.2023  1.0533 -0.1763
   32DOPE  C312 4107   5.664   3.839   9.783  0.4764 -0.4140 -0.1184
   32DOPE  H12X 4108   5.589   3.918   9.761 -4.7920 -4.5236  1.0308
   32DOPE  H12Y 4109   5.771   3.856   9.808  0.9897 -0.1987 -2.2001
   32DOPE  C313 4110   5.592   3.774   9.905  0.1675 -0.1511  0.4727
   32DOPE  H13X 4111   5.484   3.786   9.881  0.2233  2.7895  1.2665
   32DOPE  H13Y 4112   5.628   3.669   9.907  0.6944 -0.1157 -2.7130
   32DOPE  C314 4113   5.629   3.857  10.032 -0.1179  0.4716 -0.0572
   32DOPE  H14X 4114   5.589   3.960  10.017 -0.8261  0.2369  0.1865
   32DOPE  H14Y 4115   5.740   3.852  10.035  0.1737  3.3016 -1.7127
   32DOPE  C315 4116   5.563   3.802  10.158  0.1721 -0.2496  0.4851
   32DOPE  H15X 4117   5.577   3.693  10.167 -0.7207 -0.4093  0.0871
   32DOPE  H15Y 4118   5.455   3.819  10.138  0.4701 -0.9060 -1.9449
   32DOPE  C316 4119   5.612   3.884  10.276 -0.4233 -0.7613  0.0654
   32DOPE  H16X 4120   5.591   3.988  10.243  1.0041 -0.2552  0.6605
   32DOPE  H16Y 4121   5.721   3.865  10.289 -0.1322 -1.5036 -2.7881
   32DOPE  C317 4122   5.551   3.848  10.414  0.0330  0.3250  0.0155
   32DOPE  H17X 4123   5.440   3.856  10.416 -0.0419 -0.8294  1.5287
   32DOPE  H17Y 4124   5.556   3.738  10.416 -1.3627  0.2153 -0.6847
   32DOPE  C318 4125   5.612   3.929  10.531 -0.2443 -0.0363  0.0074
   32DOPE  H18X 4126   5.722   3.914  10.541 -0.4575 -0.8761  1.4900
   32DOPE  H18Y 4127   5.600   4.039  10.521  1.6948  0.2335  0.2811
   32DOPE  H18Z 4128   5.576   3.892  10.630 -1.7958 -0.4972 -0.7017
   33DOPE     N 4129   3.489   3.770   9.076 -0.2801  0.1321 -0.2855
   33DOPE   HN1 4130   3.552   3.847   9.109  0.7845 -0.3257 -1.1872
   33DOPE   HN2 4131   3.387   3.780   9.090 -0.1182 -0.5463  1.5977
   33DOPE   HN3 4132   3.509   3.684   9.130 -0.8726 -1.2934 -2.2003
   33DOPE   C12 4133   3.520   3.751   8.932 -0.3123 -0.5144 -0.0694
   33DOPE  H12A 4134   3.445   3.807   8.872  0.9891 -1.3059 -2.5808
   33DOPE  H12B 4135   3.519   3.641   8.915 -0.7720 -0.8829  2.0876
   33DOPE   C11 4136   3.657   3.801   8.889  0.1155  0.1603  0.1561
   33DOPE  H11A 4137   3.663   3.912   8.886 -2.3745  0.3899  1.6293
   33DOPE  H11B 4138   3.683   3.760   8.789  1.5790 -0.3157  0.6987
   33DOPE     P 4139   3.887   3.676   8.944 -0.3052 -0.1121  0.2921
   33DOPE   O13 4140   3.952   3.748   8.834  0.4721 -0.2974  0.9447
   33DOPE   O14 4141   3.838   3.547   8.909 -0.0368  0.4780  0.0114
   33DOPE   O11 4142   3.973   3.664   9.076 -0.8586  0.2063  0.4866
   33DOPE   O12 4143   3.760   3.765   8.986  0.2382  0.0771  0.0261
   33DOPE    C1 4144   3.929   3.672   9.208  0.0022 -0.1776  0.3661
   33DOPE    HA 4145   3.858   3.754   9.231  0.0674  0.5315 -1.7397
   33DOPE    HB 4146   4.021   3.698   9.264 -1.2195 -0.4884  2.6017
   33DOPE    C2 4147   3.877   3.535   9.259 -0.6205 -0.5401 -0.1819
   33DOPE    HS 4148   3.777   3.532   9.212 -1.0216  0.8290  0.5591
   33DOPE   O21 4149   3.865   3.543   9.399 -0.3729 -0.4243 -0.2173
   33DOPE   C21 4150   3.756   3.481   9.449  0.4506  0.3900 -0.2720
   33DOPE   O22 4151   3.664   3.440   9.379  0.7936 -0.1055  0.1116
   33DOPE   C22 4152   3.755   3.484   9.602  0.3436 -0.0506  0.1059
   33DOPE   H2R 4153   3.856   3.458   9.641 -0.1887 -0.7998  1.0108
   33DOPE   H2S 4154   3.678   3.411   9.636 -1.2355  1.0241 -1.0470
   33DOPE    C3 4155   3.962   3.412   9.217  0.1423 -0.9524  0.2184
   33DOPE    HX 4156   3.962   3.420   9.106  1.7658 -1.1303  0.1796
   33DOPE    HY 4157   3.912   3.315   9.237  0.5282 -0.7725  2.2400
   33DOPE   O31 4158   4.099   3.427   9.254  0.6493  0.4348  0.0599
   33DOPE   C31 4159   4.135   3.357   9.359 -0.3402 -0.1670 -0.1185
   33DOPE   O32 4160   4.061   3.310   9.442  0.0425  0.7997 -0.1428
   33DOPE   C32 4161   4.289   3.384   9.365  0.4608  0.1430 -1.2244
   33DOPE   H2X 4162   4.323   3.327   9.276  1.4822 -0.7293 -0.3049
   33DOPE   H2Y 4163   4.316   3.491   9.354  3.0927  0.2471  3.6679
   33DOPE   C23 4164   3.713   3.626   9.662 -0.7151  0.3211 -0.2570
   33DOPE   H3R 4165   3.613   3.657   9.622 -2.0071  1.1021  3.2198
   33DOPE   H3S 4166   3.783   3.708   9.634  1.4081 -0.8615  1.3470
   33DOPE   C24 4167   3.698   3.627   9.820 -0.8011  0.8895  0.6391
   33DOPE   H4R 4168   3.644   3.534   9.847 -4.8921  2.0354 -2.5237
   33DOPE   H4S 4169   3.625   3.705   9.851  0.5636  2.0427  1.0633
   33DOPE   C25 4170   3.829   3.650   9.895  0.0976 -0.3691  0.3672
   33DOPE   H5R 4171   3.865   3.755   9.883 -2.4816  1.2597  4.5085
   33DOPE   H5S 4172   3.900   3.576   9.853 -0.0087 -0.6967  0.7644
   33DOPE   C26 4173   3.821   3.621  10.050  0.5600  0.3208 -0.3879
   33DOPE   H6R 4174   3.786   3.705  10.113  0.0346  0.5903 -1.0304
   33DOPE   H6S 4175   3.925   3.600  10.084  0.7540  1.6371 -0.1105
   33DOPE   C27 4176   3.734   3.498  10.083 -0.2499 -0.2184 -0.9724
   33DOPE   H7R 4177   3.761   3.410  10.019  1.7435 -0.7936  0.5725
   33DOPE   H7S 4178   3.630   3.531  10.062 -0.4216 -0.3688 -0.3600
   33DOPE   C28 4179   3.747   3.463  10.231  0.5818  0.2996 -0.5795
   33DOPE   H8R 4180   3.736   3.554  10.293 -1.7540  0.9565 -1.8322
   33DOPE   H8S 4181   3.849   3.425  10.256  0.9249  0.9648 -0.9245
   33DOPE   C29 4182   3.638   3.371  10.277 -0.1790 -0.3607 -0.0477
   33DOPE   H9R 4183   3.629   3.288  10.205 -1.3972 -1.0188  0.8387
   33DOPE  C210 4184   3.562   3.373  10.393 -0.4443 -0.1988  0.3268
   33DOPE  H10R 4185   3.497   3.289  10.422 -1.2007 -0.2447 -1.3738
   33DOPE  C211 4186   3.591   3.484  10.494 -0.6420  0.5482 -0.2635
   33DOPE  H11R 4187   3.551   3.585  10.472  0.5245  1.3128  0.9782
   33DOPE  H11S 4188   3.700   3.493  10.512 -0.5799 -0.5050 -0.0471
   33DOPE  C212 4189   3.528   3.460  10.634  0.0187 -0.2764 -0.4297
   33DOPE  H12R 4190   3.568   3.361  10.664 -0.8202 -1.9009 -4.1452
   33DOPE  H12S 4191   3.418   3.448  10.621 -0.3824  1.2438  1.1639
   33DOPE  C213 4192   3.563   3.572  10.741  0.3303 -0.3503 -0.3577
   33DOPE  H13R 4193   3.506   3.666  10.721  0.8042  0.1341  0.5031
   33DOPE  H13S 4194   3.670   3.598  10.731  0.3068 -0.2636 -0.3900
   33DOPE  C214 4195   3.512   3.521  10.880  0.7266 -0.2275 -0.1736
   33DOPE  H14R 4196   3.522   3.601  10.957 -0.7559  0.9865 -1.1813
   33DOPE  H14S 4197   3.569   3.430  10.907  0.8811 -0.4640 -1.2744
   33DOPE  C215 4198   3.353   3.488  10.900 -1.4363 -0.6142 -0.2030
   33DOPE  H15R 4199   3.337   3.398  10.837  2.5435 -2.2321  0.7720
   33DOPE  H15S 4200   3.289   3.575  10.875 -0.6209 -0.2957 -1.2042
   33DOPE  C216 4201   3.338   3.445  11.045 -0.4052  0.0976 -0.2461
   33DOPE  H16R 4202   3.388   3.517  11.113 -0.7563  0.6156 -0.5325
   33DOPE  H16S 4203   3.389   3.346  11.054 -0.9167 -0.0748  0.9182
   33DOPE  C217 4204   3.195   3.440  11.091 -0.1987 -1.0795  0.5577
   33DOPE  H17R 4205   3.138   3.392  11.009  0.6535  3.3819 -3.0131
   33DOPE  H17S 4206   3.150   3.541  11.100  2.6745  0.2737  1.0009
   33DOPE  C218 4207   3.177   3.346  11.208 -0.0890 -0.0489 -0.2361
   33DOPE  H18R 4208   3.221   3.250  11.175  0.4174  0.3916 -0.8554
   33DOPE  H18S 4209   3.071   3.325  11.235 -0.0869 -0.9774 -0.8875
   33DOPE  H18T 4210   3.238   3.381  11.293  2.1220 -0.8550 -1.3943
   33DOPE   C33 4211   4.351   3.326   9.496  0.4029 -0.1598  0.3261
   33DOPE   H3X 4212   4.310   3.223   9.501 -2.2330  0.8565  2.0628
   33DOPE   H3Y 4213   4.325   3.374   9.592  1.1367 -0.1371  0.5167
   33DOPE   C34 4214   4.502   3.305   9.473 -0.4009  0.2616 -0.1295
   33DOPE   H4X 4215   4.519   3.270   9.369 -1.0967 -1.5841  0.3278
   33DOPE   H4Y 4216   4.553   3.403   9.485  1.6565 -0.8261  0.5787
   33DOPE   C35 4217   4.570   3.201   9.562  0.3687 -0.0563  0.4359
   33DOPE   H5X 4218   4.677   3.208   9.531 -0.0784  2.5283 -0.8211
   33DOPE   H5Y 4219   4.540   3.100   9.526  0.1835  0.1615 -0.0257
   33DOPE   C36 4220   4.553   3.219   9.718 -0.2411  0.5694  0.0792
   33DOPE   H6X 4221   4.538   3.120   9.766 -1.6191 -0.6200 -2.6147
   33DOPE   H6Y 4222   4.450   3.259   9.731  0.2768  2.4182 -1.0344
   33DOPE   C37 4223   4.660   3.300   9.793 -0.5483  0.0897  0.2431
   33DOPE   H7X 4224   4.754   3.243   9.782 -1.8424 -2.1825  0.1949
   33DOPE   H7Y 4225   4.673   3.395   9.736 -0.1661 -0.2324 -0.2130
   33DOPE   C38 4226   4.616   3.323   9.935  0.9045  0.1181 -0.7726
   33DOPE   H8X 4227   4.540   3.249   9.972  0.2864  0.3307 -1.5807
   33DOPE   H8Y 4228   4.563   3.420   9.927  1.4964  0.6288  1.0459
   33DOPE   C39 4229   4.722   3.315  10.039 -0.6516 -0.0094 -0.6059
   33DOPE   H9X 4230   4.803   3.243  10.019 -0.3469  0.5399 -1.4340
   33DOPE  C310 4231   4.732   3.403  10.146  0.9330 -0.3604  0.0711
   33DOPE  H10X 4232   4.812   3.381  10.218  0.3310  0.7388  1.1102
   33DOPE  C311 4233   4.647   3.521  10.167 -0.1245 -0.2022 -0.6821
   33DOPE  H11X 4234   4.683   3.615  10.120 -0.7911  1.0843  1.2730
   33DOPE  H11Y 4235   4.545   3.492  10.134 -1.1157  0.2591  1.7804
   33DOPE  C312 4236   4.635   3.557  10.320 -0.0722  0.4072 -0.0766
   33DOPE  H12X 4237   4.598   3.662  10.329 -2.1987  0.0197 -2.9640
   33DOPE  H12Y 4238   4.734   3.566  10.369 -0.1621  1.5490 -0.0615
   33DOPE  C313 4239   4.547   3.464  10.405 -0.9244 -0.1289  0.1900
   33DOPE  H13X 4240   4.452   3.457  10.348  0.7118 -0.3538 -2.7341
   33DOPE  H13Y 4241   4.593   3.364  10.420 -1.0973 -0.3098 -0.4590
   33DOPE  C314 4242   4.520   3.532  10.538  0.8732  0.4655 -0.4386
   33DOPE  H14X 4243   4.457   3.621  10.518 -0.4598  0.0514  1.6896
   33DOPE  H14Y 4244   4.612   3.553  10.597 -0.3319 -0.3145  1.8147
   33DOPE  C315 4245   4.442   3.426  10.618  0.2332 -0.5842 -0.5073
   33DOPE  H15X 4246   4.505   3.340  10.650  0.4444  0.1467  1.1426
   33DOPE  H15Y 4247   4.357   3.392  10.555 -0.8113 -1.9590  1.5419
   33DOPE  C316 4248   4.374   3.484  10.747  0.0066  0.0072  0.6770
   33DOPE  H16X 4249   4.314   3.401  10.789 -0.2729 -0.0591  0.1558
   33DOPE  H16Y 4250   4.303   3.568  10.731  0.6919  0.7673  1.5400
   33DOPE  C317 4251   4.475   3.516  10.868  0.3686 -1.2938 -0.3493
   33DOPE  H17X 4252   4.536   3.427  10.892  0.0552 -1.3849  0.1225
   33DOPE  H17Y 4253   4.552   3.595  10.853  0.5728 -1.2590  0.7855
   33DOPE  C318 4254   4.404   3.562  10.998  0.0201  0.3219 -0.5297
   33DOPE  H18X 4255   4.352   3.660  10.984  2.0112  1.7037  1.1178
   33DOPE  H18Y 4256   4.327   3.493  11.040 -0.0332 -0.3336 -1.6618
   33DOPE  H18Z 4257   4.478   3.566  11.080  1.3239 -0.8409 -1.6128
   34DOPE     N 4258   3.767   5.253   9.235  0.2356 -0.5317 -0.1503
   34DOPE   HN1 4259   3.811   5.168   9.275  0.4590 -1.2466 -1.8172
   34DOPE   HN2 4260   3.847   5.312   9.205  0.6046  0.6683  2.8721
   34DOPE   HN3 4261   3.721   5.307   9.310  1.0646  0.3567 -0.2698
   34DOPE   C12 4262   3.671   5.197   9.129 -0.0089 -0.0782 -0.0637
   34DOPE  H12A 4263   3.724   5.118   9.072  0.8399  0.4223  0.0242
   34DOPE  H12B 4264   3.648   5.286   9.066  3.1631  0.4196 -0.6988
   34DOPE   C11 4265   3.548   5.134   9.202 -0.0004  0.8036  0.0266
   34DOPE  H11A 4266   3.575   5.052   9.273 -1.9346  2.2825  2.6569
   34DOPE  H11B 4267   3.484   5.086   9.125 -0.4370  1.5979 -0.1209
   34DOPE     P 4268   3.368   5.336   9.208  0.0658  0.1887 -0.1616
   34DOPE   O13 4269   3.328   5.291   9.068 -0.0335  0.2302  0.0744
   34DOPE   O14 4270   3.421   5.475   9.206 -0.1299 -0.5906  0.7422
   34DOPE   O11 4271   3.234   5.327   9.294 -0.5627 -0.1105 -0.0566
   34DOPE   O12 4272   3.473   5.229   9.278 -0.2634 -0.5959 -0.3229
   34DOPE    C1 4273   3.188   5.208   9.357 -0.4782 -0.1613 -0.2224
   34DOPE    HA 4274   3.249   5.122   9.321 -1.4652 -0.6547 -0.7829
   34DOPE    HB 4275   3.082   5.193   9.327  0.1811 -0.1323 -2.7259
   34DOPE    C2 4276   3.220   5.199   9.499 -0.7336 -0.1878 -0.0604
   34DOPE    HS 4277   3.328   5.182   9.520 -0.9942 -2.2719 -0.2248
   34DOPE   O21 4278   3.153   5.075   9.532  0.5150  1.1721 -0.3654
   34DOPE   C21 4279   3.220   4.983   9.605  0.3741 -0.6538 -0.0224
   34DOPE   O22 4280   3.340   4.984   9.622  0.0267  0.0478 -0.2137
   34DOPE   C22 4281   3.115   4.907   9.684  0.3088  0.2788  0.0587
   34DOPE   H2R 4282   3.076   4.836   9.608  1.5463 -0.5700  0.1816
   34DOPE   H2S 4283   3.033   4.965   9.731 -0.9454 -2.5320  1.5509
   34DOPE    C3 4284   3.162   5.306   9.591 -0.4184 -0.0910 -0.2576
   34DOPE    HX 4285   3.053   5.299   9.575 -0.4723  0.6264 -0.2699
   34DOPE    HY 4286   3.189   5.411   9.564 -0.8010 -0.0886 -0.6242
   34DOPE   O31 4287   3.186   5.283   9.729 -0.5441 -0.1647  0.0868
   34DOPE   C31 4288   3.288   5.335   9.795 -0.2062 -0.2529  0.2186
   34DOPE   O32 4289   3.361   5.420   9.751  0.6488 -0.5183 -0.1627
   34DOPE   C32 4290   3.302   5.264   9.935  0.1418  0.0089  0.2138
   34DOPE   H2X 4291   3.207   5.210   9.957 -0.5409  0.0694 -2.3013
   34DOPE   H2Y 4292   3.365   5.177   9.909 -0.8718 -0.9781  0.9418
   34DOPE   C23 4293   3.171   4.821   9.802  0.2788  0.1209 -0.1021
   34DOPE   H3R 4294   3.253   4.752   9.774  0.6244  0.8394 -0.9274
   34DOPE   H3S 4295   3.092   4.750   9.837  0.9020  0.0106  1.1250
   34DOPE   C24 4296   3.195   4.904   9.926 -0.5120 -0.3084  0.5074
   34DOPE   H4R 4297   3.101   4.932   9.979 -1.3377 -2.2266  0.1281
   34DOPE   H4S 4298   3.259   4.989   9.896  0.7439 -1.5973 -0.5867
   34DOPE   C25 4299   3.271   4.823  10.028 -0.1117  0.1907 -0.2965
   34DOPE   H5R 4300   3.368   4.794   9.983  1.0872  0.8195  1.7999
   34DOPE   H5S 4301   3.207   4.736  10.055 -1.4080  0.7121 -1.5259
   34DOPE   C26 4302   3.304   4.886  10.167 -0.4335 -0.0144  0.3568
   34DOPE   H6R 4303   3.203   4.914  10.205 -2.5395 -4.3788 -1.3553
   34DOPE   H6S 4304   3.369   4.974  10.146  0.7586 -1.0277 -0.3116
   34DOPE   C27 4305   3.369   4.797  10.274 -0.1900  0.0844 -0.3507
   34DOPE   H7R 4306   3.471   4.775  10.235 -0.2952  0.5914 -0.9297
   34DOPE   H7S 4307   3.309   4.704  10.273  0.9399 -0.6605 -2.1271
   34DOPE   C28 4308   3.390   4.876  10.405  0.2889  0.1107  0.1361
   34DOPE   H8R 4309   3.421   4.977  10.371 -0.6540  0.3734  0.0340
   34DOPE   H8S 4310   3.489   4.837  10.436  2.2809  1.3811 -3.8679
   34DOPE   C29 4311   3.273   4.884  10.500 -0.8689  0.6770 -0.8190
   34DOPE   H9R 4312   3.175   4.857  10.458 -0.6284  0.4540 -1.2386
   34DOPE  C210 4313   3.295   4.905  10.632  0.5042 -1.0653  0.6777
   34DOPE  H10R 4314   3.211   4.919  10.701  0.8693 -1.2274  1.1638
   34DOPE  C211 4315   3.425   4.940  10.696 -0.0001 -0.2293 -0.8198
   34DOPE  H11R 4316   3.414   5.038  10.748 -1.4583 -0.7298 -0.1113
   34DOPE  H11S 4317   3.505   4.959  10.622  0.0076  1.4527 -0.4104
   34DOPE  C212 4318   3.494   4.832  10.774  0.3898  0.0223  0.0891
   34DOPE  H12R 4319   3.537   4.753  10.708 -0.0491  0.5287 -0.8231
   34DOPE  H12S 4320   3.418   4.786  10.840 -1.5864  1.6370 -0.9439
   34DOPE  C213 4321   3.606   4.896  10.844 -0.4834 -0.3955  0.5525
   34DOPE  H13R 4322   3.580   4.989  10.898 -0.1898 -0.5740  1.0033
   34DOPE  H13S 4323   3.691   4.911  10.773  1.0002 -0.4721  2.2183
   34DOPE  C214 4324   3.675   4.805  10.948  0.6959 -0.0628 -0.1549
   34DOPE  H14R 4325   3.785   4.806  10.936  0.5745  1.1072 -1.2964
   34DOPE  H14S 4326   3.636   4.701  10.945  2.0394 -0.5846 -0.3416
   34DOPE  C215 4327   3.645   4.851  11.091  0.3425 -0.2841 -0.0552
   34DOPE  H15R 4328   3.536   4.854  11.108  0.3323 -1.9713  0.3203
   34DOPE  H15S 4329   3.687   4.954  11.092  0.8468 -0.4726  1.1525
   34DOPE  C216 4330   3.709   4.752  11.199  0.3605 -0.0918  0.7651
   34DOPE  H16R 4331   3.811   4.727  11.165  0.1144  1.4557 -1.2556
   34DOPE  H16S 4332   3.660   4.653  11.208  1.9757 -0.8852  1.2438
   34DOPE  C217 4333   3.708   4.808  11.353 -0.3749  1.3906  0.0489
   34DOPE  H17R 4334   3.783   4.890  11.354  0.5286  0.6524 -1.9087
   34DOPE  H17S 4335   3.741   4.722  11.414 -0.2955  0.5665 -1.1185
   34DOPE  C218 4336   3.560   4.841  11.389 -0.5690  0.0971  0.3559
   34DOPE  H18R 4337   3.521   4.923  11.326 -0.2695 -0.0826 -0.0695
   34DOPE  H18S 4338   3.550   4.871  11.495 -1.3748  2.6694 -0.3808
   34DOPE  H18T 4339   3.495   4.753  11.366 -0.9301  0.1465  1.1600
   34DOPE   C33 4340   3.342   5.364  10.049  0.1234 -0.1945 -0.2152
   34DOPE   H3X 4341   3.258   5.435  10.065  0.0985 -0.2666 -0.0190
   34DOPE   H3Y 4342   3.423   5.417   9.994  2.0501 -1.0237  1.6744
   34DOPE   C34 4343   3.395   5.316  10.182 -0.4678  0.2651  0.0690
   34DOPE   H4X 4344   3.460   5.230  10.157 -0.2307  0.4928 -0.0978
   34DOPE   H4Y 4345   3.465   5.396  10.214  0.9255 -0.3494 -1.3055
   34DOPE   C35 4346   3.299   5.276  10.297  0.0428 -0.0970  0.6019
   34DOPE   H5X 4347   3.351   5.193  10.351 -0.6357 -0.6035  0.4928
   34DOPE   H5Y 4348   3.201   5.232  10.268  0.0118  0.1627  0.3129
   34DOPE   C36 4349   3.276   5.393  10.388 -0.0586  0.4814  0.3801
   34DOPE   H6X 4350   3.232   5.488  10.348  0.4901  1.0161  1.0157
   34DOPE   H6Y 4351   3.371   5.425  10.435  1.0074 -0.0480 -1.3404
   34DOPE   C37 4352   3.182   5.355  10.508  0.3360  0.5089 -0.2931
   34DOPE   H7X 4353   3.145   5.445  10.562 -3.4313 -0.1014 -1.5393
   34DOPE   H7Y 4354   3.086   5.317  10.467 -0.3006  0.1560  1.4164
   34DOPE   C38 4355   3.256   5.258  10.611  0.2009  0.0812 -0.0901
   34DOPE   H8X 4356   3.357   5.300  10.634 -0.4866  1.3342  0.7947
   34DOPE   H8Y 4357   3.266   5.160  10.560 -0.8094 -0.1497  0.1274
   34DOPE   C39 4358   3.183   5.231  10.738  0.9480  0.1623 -0.3688
   34DOPE   H9X 4359   3.124   5.139  10.729  0.1105  0.4091  1.8978
   34DOPE  C310 4360   3.171   5.293  10.862 -0.0090 -0.0836  0.1009
   34DOPE  H10X 4361   3.129   5.240  10.949 -1.2886 -0.7283 -0.8729
   34DOPE  C311 4362   3.233   5.430  10.892 -0.4029 -0.1120 -0.2234
   34DOPE  H11X 4363   3.335   5.418  10.934 -1.1603 -0.6188  1.5611
   34DOPE  H11Y 4364   3.235   5.495  10.802  0.8159 -0.9123 -0.8039
   34DOPE  C312 4365   3.152   5.494  11.001 -0.4705 -0.8137 -0.1046
   34DOPE  H12X 4366   3.042   5.492  10.983 -0.4172 -0.4528 -0.4763
   34DOPE  H12Y 4367   3.172   5.603  11.008 -0.6265 -0.8211  0.5505
   34DOPE  C313 4368   3.187   5.444  11.143 -0.5519  0.2989  0.5488
   34DOPE  H13X 4369   3.121   5.354  11.152 -1.2695  0.8333  0.7207
   34DOPE  H13Y 4370   3.297   5.428  11.150 -0.5547  0.5099  1.1057
   34DOPE  C314 4371   3.145   5.550  11.249  0.0796  0.1212 -0.5409
   34DOPE  H14X 4372   3.044   5.590  11.222  0.8877  2.5867 -0.1475
   34DOPE  H14Y 4373   3.218   5.633  11.258  1.9282 -1.5198  0.2165
   34DOPE  C315 4374   3.130   5.505  11.399  0.6390 -1.1661 -0.6942
   34DOPE  H15X 4375   3.096   5.594  11.457  1.9930 -0.0999 -1.4652
   34DOPE  H15Y 4376   3.227   5.471  11.439  0.2987 -0.8768  0.3968
   34DOPE  C316 4377   3.019   5.398  11.427  0.0214 -0.2477 -0.5675
   34DOPE  H16X 4378   3.048   5.301  11.381  0.4885 -0.7540  0.7580
   34DOPE  H16Y 4379   2.927   5.433  11.375 -0.1513 -1.7684 -1.3512
   34DOPE  C317 4380   2.989   5.392  11.576 -0.3721 -0.0473 -0.8521
   34DOPE  H17X 4381   3.076   5.339  11.620 -0.6712  0.5901  0.5868
   34DOPE  H17Y 4382   2.970   5.488  11.628  0.3756 -0.8776  1.0608
   34DOPE  C318 4383   2.880   5.291  11.604  0.2454  0.2290  0.1932
   34DOPE  H18X 4384   2.918   5.190  11.579  0.4003  0.7388 -1.8020
   34DOPE  H18Y 4385   2.841   5.283  11.708  0.3762 -1.7966  0.1086
   34DOPE  H18Z 4386   2.789   5.298  11.540 -1.2584  1.1870  2.3052
   35DOPE     N 4387   5.623   3.131   8.504  0.4635  0.3223 -0.5787
   35DOPE   HN1 4388   5.536   3.077   8.522  0.6436  0.0272 -0.5817
   35DOPE   HN2 4389   5.701   3.069   8.474 -0.9468 -1.4688 -0.7548
   35DOPE   HN3 4390   5.643   3.166   8.600 -0.5439 -0.6042  0.0014
   35DOPE   C12 4391   5.590   3.237   8.403  0.2969  0.7619  0.2845
   35DOPE  H12A 4392   5.503   3.290   8.447 -1.1824 -1.1990 -0.1630
   35DOPE  H12B 4393   5.567   3.193   8.304 -0.0853  2.3345 -0.3573
   35DOPE   C11 4394   5.725   3.322   8.384 -0.1127  0.0421  0.3821
   35DOPE  H11A 4395   5.721   3.377   8.288 -0.8084 -0.0264  0.3673
   35DOPE  H11B 4396   5.810   3.250   8.384 -1.2246 -1.3331 -1.2872
   35DOPE     P 4397   5.837   3.535   8.490 -0.0074 -0.2523  0.1479
   35DOPE   O13 4398   5.765   3.637   8.406 -0.4133 -0.1131 -0.4571
   35DOPE   O14 4399   5.967   3.498   8.433 -0.1392 -0.5873  0.4039
   35DOPE   O11 4400   5.864   3.577   8.635  0.3859 -0.2222 -0.3360
   35DOPE   O12 4401   5.734   3.412   8.500 -0.3062  0.3382  0.1009
   35DOPE    C1 4402   5.761   3.655   8.704  0.2082 -0.2274 -0.2937
   35DOPE    HA 4403   5.676   3.684   8.638 -0.2982 -1.0946 -0.0264
   35DOPE    HB 4404   5.795   3.756   8.736 -1.8495 -0.3418  2.6782
   35DOPE    C2 4405   5.708   3.587   8.837 -0.1270 -0.3262  0.1299
   35DOPE    HS 4406   5.625   3.652   8.873  0.4894  0.9174 -0.6252
   35DOPE   O21 4407   5.822   3.573   8.932  0.4875  0.0415  0.1516
   35DOPE   C21 4408   5.848   3.689   8.994  0.3297  0.6483 -0.4648
   35DOPE   O22 4409   5.778   3.781   9.005  0.3788  0.2966  0.7673
   35DOPE   C22 4410   5.989   3.683   9.055  0.4618  0.0157  0.3790
   35DOPE   H2R 4411   5.994   3.777   9.114 -1.6234  0.0952  0.5201
   35DOPE   H2S 4412   6.045   3.688   8.960 -1.2460  0.9405 -0.6221
   35DOPE    C3 4413   5.656   3.448   8.800 -0.0687  0.1091 -0.3272
   35DOPE    HX 4414   5.752   3.400   8.773  1.8552  2.1757  2.2527
   35DOPE    HY 4415   5.597   3.456   8.706 -0.9127 -2.0500 -0.0364
   35DOPE   O31 4416   5.584   3.382   8.905  0.1576 -0.3086 -0.3471
   35DOPE   C31 4417   5.578   3.250   8.882  0.9697  0.0382  0.0025
   35DOPE   O32 4418   5.639   3.188   8.799 -0.2671 -0.3477 -0.2159
   35DOPE   C32 4419   5.477   3.187   8.981 -0.3886 -0.2582  0.2447
   35DOPE   H2X 4420   5.409   3.264   9.024 -0.4588 -0.3862  0.3634
   35DOPE   H2Y 4421   5.407   3.125   8.921 -0.8374 -0.3420  0.8473
   35DOPE   C23 4422   6.032   3.550   9.130  0.7343 -0.9434 -0.1269
   35DOPE   H3R 4423   6.141   3.544   9.115  1.1369  1.8832  0.9733
   35DOPE   H3S 4424   5.996   3.463   9.071  0.1159 -0.3827 -0.5833
   35DOPE   C24 4425   5.991   3.554   9.278  0.9058 -0.0398  0.2816
   35DOPE   H4R 4426   6.011   3.653   9.325 -1.0040  1.2503 -1.4422
   35DOPE   H4S 4427   6.045   3.471   9.330 -0.4297  0.6265  2.9197
   35DOPE   C25 4428   5.839   3.515   9.314 -0.1549  0.2673  0.3451
   35DOPE   H5R 4429   5.808   3.442   9.236 -1.6598 -0.8514  1.9105
   35DOPE   H5S 4430   5.782   3.609   9.303  0.4685  0.5844 -0.2368
   35DOPE   C26 4431   5.829   3.448   9.453  0.0458  0.2623  0.3765
   35DOPE   H6R 4432   5.866   3.524   9.525  1.3248  0.4447 -0.4374
   35DOPE   H6S 4433   5.889   3.355   9.457 -1.1615 -0.5179  0.6539
   35DOPE   C27 4434   5.693   3.396   9.488  0.4033  0.2016 -0.8513
   35DOPE   H7R 4435   5.654   3.334   9.405  0.0066 -0.1024 -0.4407
   35DOPE   H7S 4436   5.613   3.469   9.512 -1.9101 -2.2752 -0.5340
   35DOPE   C28 4437   5.690   3.316   9.625  0.3561  0.3479 -0.0637
   35DOPE   H8R 4438   5.752   3.231   9.590  0.9454  1.3756 -1.6685
   35DOPE   H8S 4439   5.591   3.274   9.649  0.8621  0.9309  3.4726
   35DOPE   C29 4440   5.747   3.380   9.744 -0.2457  0.2713  0.0447
   35DOPE   H9R 4441   5.847   3.427   9.735 -0.0436  0.2911  1.8732
   35DOPE  C210 4442   5.679   3.395   9.863 -0.0892 -0.7650 -0.1329
   35DOPE  H10R 4443   5.741   3.436   9.944 -2.6117  2.1375  0.5373
   35DOPE  C211 4444   5.542   3.348   9.899 -0.9108 -0.0895 -0.2081
   35DOPE  H11R 4445   5.544   3.240   9.924 -0.2936  0.4397  2.2990
   35DOPE  H11S 4446   5.475   3.361   9.811 -1.7513 -0.3181  0.3754
   35DOPE  C212 4447   5.469   3.416  10.021 -0.1998  0.2103  0.3656
   35DOPE  H12R 4448   5.361   3.391  10.016 -0.1547 -0.2537  1.4568
   35DOPE  H12S 4449   5.460   3.527  10.017  2.7589  0.4992 -0.6317
   35DOPE  C213 4450   5.534   3.366  10.152  0.6358 -0.2302  0.0674
   35DOPE  H13R 4451   5.637   3.406  10.154  0.0536  1.3126  1.0648
   35DOPE  H13S 4452   5.536   3.255  10.150  0.3157 -0.2338 -0.0872
   35DOPE  C214 4453   5.448   3.400  10.273  0.0561  0.2782  0.3298
   35DOPE  H14R 4454   5.350   3.347  10.274 -0.2545  0.7947  2.3313
   35DOPE  H14S 4455   5.431   3.510  10.279  1.4472  0.4754  1.0399
   35DOPE  C215 4456   5.517   3.358  10.401 -0.1831  0.1691  0.6283
   35DOPE  H15R 4457   5.622   3.394  10.406 -0.1240  0.7884 -2.8088
   35DOPE  H15S 4458   5.527   3.248  10.414 -1.2227  0.0603  0.5926
   35DOPE  C216 4459   5.462   3.428  10.537 -1.2631 -0.2893  0.6606
   35DOPE  H16R 4460   5.351   3.420  10.537 -1.2480 -0.5578  1.2463
   35DOPE  H16S 4461   5.485   3.536  10.526 -0.9104 -0.3613  0.6907
   35DOPE  C217 4462   5.519   3.378  10.668  0.8608  0.3563  0.1636
   35DOPE  H17R 4463   5.629   3.392  10.673  1.1285 -1.7388  1.9094
   35DOPE  H17S 4464   5.493   3.271  10.677  3.1785 -0.4238 -1.5731
   35DOPE  C218 4465   5.448   3.447  10.790 -0.2572 -0.1029 -0.6546
   35DOPE  H18R 4466   5.457   3.392  10.887  0.8607 -0.5084 -0.9723
   35DOPE  H18S 4467   5.341   3.471  10.776 -0.2673  2.5052  2.5475
   35DOPE  H18T 4468   5.482   3.551  10.805  2.2753 -0.5943 -2.3722
   35DOPE   C33 4469   5.550   3.099   9.083 -0.1216  0.0072  0.4883
   35DOPE   H3X 4470   5.630   3.163   9.127  0.0922  0.0510  0.0426
   35DOPE   H3Y 4471   5.593   3.010   9.031 -0.6959  1.4811 -2.7197
   35DOPE   C34 4472   5.462   3.064   9.206 -0.8131  0.6817  0.7184
   35DOPE   H4X 4473   5.520   3.014   9.286 -3.5758 -2.2422  1.0984
   35DOPE   H4Y 4474   5.409   3.155   9.241 -0.1856  2.2011 -1.9868
   35DOPE   C35 4475   5.352   2.971   9.150 -0.4865  0.0832 -0.6466
   35DOPE   H5X 4476   5.402   2.881   9.108  0.4649 -0.0794  0.7919
   35DOPE   H5Y 4477   5.301   3.024   9.066  0.1763  2.9954  0.6570
   35DOPE   C36 4478   5.258   2.913   9.256  0.1864  0.2435 -0.2776
   35DOPE   H6X 4479   5.175   2.863   9.202  2.0160 -1.2421 -1.8666
   35DOPE   H6Y 4480   5.226   3.006   9.307  1.8844  0.2010  0.9564
   35DOPE   C37 4481   5.323   2.813   9.359 -0.4301 -0.0974  0.0262
   35DOPE   H7X 4482   5.345   2.718   9.307 -0.9760  0.6135 -1.6094
   35DOPE   H7Y 4483   5.418   2.856   9.397  0.8406 -2.4372 -0.3581
   35DOPE   C38 4484   5.221   2.778   9.470  0.7573 -0.4109  0.4307
   35DOPE   H8X 4485   5.256   2.679   9.505  0.8423 -0.2374  0.8353
   35DOPE   H8Y 4486   5.122   2.754   9.426  0.9540  1.4502 -1.1564
   35DOPE   C39 4487   5.188   2.859   9.591  0.3479  0.1325  0.2569
   35DOPE   H9X 4488   5.213   2.965   9.572 -2.4434  0.5750 -1.4801
   35DOPE  C310 4489   5.178   2.814   9.717 -0.0022  0.4289  0.3393
   35DOPE  H10X 4490   5.177   2.891   9.796 -0.4635  1.8069 -0.9577
   35DOPE  C311 4491   5.188   2.670   9.765 -0.6930 -0.5582  0.1961
   35DOPE  H11X 4492   5.159   2.610   9.676  1.6956  0.3275 -1.3040
   35DOPE  H11Y 4493   5.292   2.633   9.783 -0.5501 -0.4311 -0.3378
   35DOPE  C312 4494   5.106   2.639   9.891 -0.1522  0.4910  0.3243
   35DOPE  H12X 4495   5.118   2.529   9.898 -0.4808  0.2736 -1.7806
   35DOPE  H12Y 4496   4.998   2.666   9.882 -0.2914 -0.0946  0.2425
   35DOPE  C313 4497   5.161   2.694  10.022 -0.5556 -0.3908 -0.5125
   35DOPE  H13X 4498   5.264   2.655  10.037 -1.0971 -1.6323  0.1235
   35DOPE  H13Y 4499   5.163   2.805  10.013  0.7932 -0.2904  0.7434
   35DOPE  C314 4500   5.068   2.657  10.141 -0.4995 -0.2913 -0.0815
   35DOPE  H14X 4501   5.059   2.549  10.163 -2.8936  0.2131  1.7527
   35DOPE  H14Y 4502   4.970   2.709  10.135  0.0624  0.8418  0.2241
   35DOPE  C315 4503   5.130   2.711  10.282 -0.0503  0.5035 -0.0702
   35DOPE  H15X 4504   5.157   2.816  10.257  3.2484 -0.0278  0.7241
   35DOPE  H15Y 4505   5.225   2.658  10.303 -1.5190 -2.0481  0.4767
   35DOPE  C316 4506   5.026   2.691  10.394  0.2039 -0.1881 -0.3677
   35DOPE  H16X 4507   5.002   2.586  10.419 -2.1288  0.5161  0.6326
   35DOPE  H16Y 4508   4.928   2.736  10.369 -0.9447 -1.9503  0.7305
   35DOPE  C317 4509   5.060   2.754  10.530 -0.3759 -0.9407 -0.2477
   35DOPE  H17X 4510   5.151   2.706  10.570  0.3841  0.8553  0.3010
   35DOPE  H17Y 4511   5.090   2.860  10.512 -0.4755 -0.7078  0.8859
   35DOPE  C318 4512   4.945   2.745  10.638 -0.0649  0.4109  0.2777
   35DOPE  H18X 4513   4.919   2.640  10.661 -0.4685  0.0850 -1.5001
   35DOPE  H18Y 4514   4.982   2.800  10.727 -1.4834  2.6714 -0.4275
   35DOPE  H18Z 4515   4.856   2.793  10.590 -0.2952 -1.3249 -1.1136
   36DOPE     N 4516   5.003   5.936   8.822 -0.2398  0.0178  0.2822
   36DOPE   HN1 4517   5.049   6.025   8.852  0.5462 -0.2799 -0.0093
   36DOPE   HN2 4518   4.963   5.884   8.903  0.1871 -3.6476 -1.6346
   36DOPE   HN3 4519   5.077   5.875   8.782 -0.1605  0.8142 -0.8492
   36DOPE   C12 4520   4.904   5.943   8.708  0.2857 -0.5103 -0.0593
   36DOPE  H12A 4521   4.950   6.009   8.631 -0.6514  0.9785  0.6091
   36DOPE  H12B 4522   4.811   5.993   8.742  0.6816 -0.2472  0.6778
   36DOPE   C11 4523   4.876   5.797   8.671  0.4854 -0.0730  0.5703
   36DOPE  H11A 4524   4.959   5.765   8.605  1.4091 -1.1573  2.1839
   36DOPE  H11B 4525   4.786   5.791   8.607  1.1834 -3.0689 -0.2812
   36DOPE     P 4526   4.728   5.626   8.800  0.3585 -0.3388  0.2134
   36DOPE   O13 4527   4.740   5.497   8.728  0.0810  0.1435  0.0069
   36DOPE   O14 4528   4.615   5.721   8.773  0.3664 -0.5030  0.4402
   36DOPE   O11 4529   4.731   5.593   8.957  0.1144 -0.5174 -0.0050
   36DOPE   O12 4530   4.872   5.704   8.784 -0.0604 -0.1450  0.4693
   36DOPE    C1 4531   4.858   5.556   9.014 -0.0870  0.0142  0.2985
   36DOPE    HA 4532   4.929   5.641   9.015 -2.5239  2.2024 -1.2822
   36DOPE    HB 4533   4.907   5.484   8.945 -1.0372  0.0229 -0.3972
   36DOPE    C2 4534   4.839   5.480   9.138 -0.3088  0.2905 -0.2688
   36DOPE    HS 4535   4.936   5.483   9.192  0.7714  1.4456 -2.1755
   36DOPE   O21 4536   4.805   5.343   9.114 -0.1886  0.5353  0.0164
   36DOPE   C21 4537   4.903   5.261   9.084  0.1147 -0.2783 -0.4304
   36DOPE   O22 4538   5.013   5.297   9.045  0.3997 -0.1187 -0.4892
   36DOPE   C22 4539   4.871   5.115   9.108 -1.0469 -0.0048  0.5980
   36DOPE   H2R 4540   4.807   5.095   9.019 -0.4484  1.3395 -0.1709
   36DOPE   H2S 4541   4.807   5.106   9.198  1.4398 -1.6022  2.3380
   36DOPE    C3 4542   4.728   5.538   9.233 -0.2292 -1.0316  0.1314
   36DOPE    HX 4543   4.627   5.531   9.187  0.3366  0.6816 -1.4920
   36DOPE    HY 4544   4.764   5.642   9.231  1.8085 -1.6491 -3.3696
   36DOPE   O31 4545   4.746   5.474   9.362 -0.0768  0.1884  0.3784
   36DOPE   C31 4546   4.681   5.551   9.452 -0.1593  0.4891 -0.2680
   36DOPE   O32 4547   4.606   5.646   9.425 -0.3621  0.6047  0.3688
   36DOPE   C32 4548   4.719   5.501   9.588  0.0763 -0.3198 -0.8543
   36DOPE   H2X 4549   4.735   5.391   9.580  0.8479 -0.3782  1.0518
   36DOPE   H2Y 4550   4.817   5.542   9.621 -0.8813  0.6249  0.9843
   36DOPE   C23 4551   4.987   5.015   9.109 -0.0829 -0.4994 -0.1861
   36DOPE   H3R 4552   5.057   5.018   9.022 -0.5229 -1.1889 -0.5747
   36DOPE   H3S 4553   4.941   4.914   9.111  0.6652 -0.8408  0.2812
   36DOPE   C24 4554   5.065   5.033   9.248  0.3115 -0.7206  0.9326
   36DOPE   H4R 4555   4.984   5.032   9.324 -2.3744 -3.3734 -1.6702
   36DOPE   H4S 4556   5.120   5.130   9.244  1.1758 -1.2363  0.0107
   36DOPE   C25 4557   5.156   4.914   9.286  0.5721 -0.3525 -0.0143
   36DOPE   H5R 4558   5.225   4.900   9.200 -0.5378 -0.4129 -0.9187
   36DOPE   H5S 4559   5.087   4.828   9.300 -2.0759  1.7879  0.7042
   36DOPE   C26 4560   5.227   4.942   9.420 -0.5750  0.2784 -0.5595
   36DOPE   H6R 4561   5.239   4.851   9.482  2.1153 -1.5005 -3.4050
   36DOPE   H6S 4562   5.160   5.006   9.481  2.0948  1.7712  0.9975
   36DOPE   C27 4563   5.364   5.015   9.407  0.1846  0.5346  0.1412
   36DOPE   H7R 4564   5.344   5.117   9.367  1.1332  1.4310  1.8743
   36DOPE   H7S 4565   5.434   4.954   9.347  2.2219  0.0419  2.8597
   36DOPE   C28 4566   5.433   5.041   9.546  0.4430 -0.2441  0.3564
   36DOPE   H8R 4567   5.432   4.949   9.609 -3.5476 -0.5574  0.0713
   36DOPE   H8S 4568   5.355   5.104   9.594 -1.4642 -0.7291 -1.9703
   36DOPE   C29 4569   5.569   5.106   9.549 -0.8959  0.0491 -0.0482
   36DOPE   H9R 4570   5.641   5.091   9.467  1.8609  0.9024  2.0598
   36DOPE  C210 4571   5.612   5.189   9.644  0.2727 -0.6641 -0.3481
   36DOPE  H10R 4572   5.711   5.238   9.634 -0.0502  0.2362  0.6233
   36DOPE  C211 4573   5.531   5.211   9.771 -0.0718 -0.0072 -0.1472
   36DOPE  H11R 4574   5.453   5.137   9.799  0.1072 -0.2425 -0.2696
   36DOPE  H11S 4575   5.471   5.302   9.748 -1.0882 -0.6497 -0.0748
   36DOPE  C212 4576   5.615   5.242   9.899  0.1200 -0.0287 -0.2504
   36DOPE  H12R 4577   5.678   5.332   9.886  1.7097 -0.7012  2.2091
   36DOPE  H12S 4578   5.674   5.151   9.923 -0.5102 -0.3557  0.0983
   36DOPE  C213 4579   5.519   5.265  10.019 -0.0384  0.0707 -0.4206
   36DOPE  H13R 4580   5.442   5.184  10.027 -0.7769  0.8056  0.0684
   36DOPE  H13S 4581   5.466   5.358   9.989  2.4620  1.3629 -1.1051
   36DOPE  C214 4582   5.595   5.278  10.155  0.1012 -0.5453 -0.4397
   36DOPE  H14R 4583   5.667   5.362  10.152 -0.1273 -0.3479 -0.4770
   36DOPE  H14S 4584   5.653   5.186  10.175 -0.6989 -0.5372  2.2135
   36DOPE  C215 4585   5.505   5.306  10.290 -0.9820 -0.6918 -0.1193
   36DOPE  H15R 4586   5.440   5.216  10.297  0.1934 -1.4062  2.9314
   36DOPE  H15S 4587   5.444   5.398  10.279 -0.1023 -0.0116  0.5286
   36DOPE  C216 4588   5.595   5.326  10.415 -0.4371  0.1484  0.2147
   36DOPE  H16R 4589   5.668   5.405  10.386  1.8406 -1.7145  0.5146
   36DOPE  H16S 4590   5.657   5.236  10.435  0.1396  0.4599 -0.1337
   36DOPE  C217 4591   5.514   5.364  10.540  0.3093 -0.3559  0.4197
   36DOPE  H17R 4592   5.476   5.468  10.525 -1.1212 -0.9123 -0.0124
   36DOPE  H17S 4593   5.583   5.373  10.626 -0.7884  0.1321  1.2690
   36DOPE  C218 4594   5.402   5.270  10.588  0.0406 -0.2303  0.3746
   36DOPE  H18R 4595   5.446   5.177  10.630 -0.1189 -0.4755 -0.0007
   36DOPE  H18S 4596   5.336   5.239  10.504  1.5627  0.9009 -1.3103
   36DOPE  H18T 4597   5.343   5.311  10.673  1.1025  1.2155  0.4541
   36DOPE   C33 4598   4.600   5.514   9.689 -0.1742 -0.3909 -0.6034
   36DOPE   H3X 4599   4.504   5.465   9.661 -1.3891 -0.3264  2.9675
   36DOPE   H3Y 4600   4.573   5.621   9.697 -0.1403 -0.0236 -3.9123
   36DOPE   C34 4601   4.629   5.463   9.835 -0.1318 -0.1535  0.1748
   36DOPE   H4X 4602   4.614   5.353   9.826  0.7950 -0.1965 -1.0077
   36DOPE   H4Y 4603   4.736   5.486   9.855  0.2429  1.2994 -2.9364
   36DOPE   C35 4604   4.542   5.520   9.951 -0.6692  0.1334 -0.6230
   36DOPE   H5X 4605   4.444   5.470   9.938 -0.4450 -0.1339 -1.2876
   36DOPE   H5Y 4606   4.518   5.628   9.937 -2.2477 -0.4324 -2.6078
   36DOPE   C36 4607   4.584   5.498  10.095 -0.3179  1.2028 -1.1361
   36DOPE   H6X 4608   4.496   5.534  10.152  0.3877 -0.5029  1.1711
   36DOPE   H6Y 4609   4.675   5.553  10.128 -0.9661  0.7876  1.5733
   36DOPE   C37 4610   4.594   5.342  10.130  0.6377  0.1979 -0.0431
   36DOPE   H7X 4611   4.522   5.288  10.065 -0.8118  1.5326  0.3676
   36DOPE   H7Y 4612   4.697   5.310  10.105  1.1801  1.1481  0.8570
   36DOPE   C38 4613   4.558   5.299  10.276  0.1911  0.2493 -0.3431
   36DOPE   H8X 4614   4.571   5.190  10.291 -1.4984  0.2085  1.2038
   36DOPE   H8Y 4615   4.451   5.317  10.298 -0.4885 -1.8620 -1.5953
   36DOPE   C39 4616   4.637   5.377  10.380 -0.0786  0.3513  0.5364
   36DOPE   H9X 4617   4.723   5.427  10.332 -0.1790  0.0563  0.0378
   36DOPE  C310 4618   4.607   5.409  10.511 -0.3291  0.5065 -0.1726
   36DOPE  H10X 4619   4.684   5.472  10.557  0.1153  0.3767 -0.7288
   36DOPE  C311 4620   4.490   5.353  10.590  0.4243 -0.2496 -0.0287
   36DOPE  H11X 4621   4.422   5.431  10.630  0.3224 -0.4064  0.1012
   36DOPE  H11Y 4622   4.430   5.290  10.521  0.6694 -0.4433 -0.0638
   36DOPE  C312 4623   4.527   5.260  10.702 -0.1480 -0.2517 -0.0026
   36DOPE  H12X 4624   4.594   5.179  10.667 -0.2545 -0.0018 -0.8144
   36DOPE  H12Y 4625   4.438   5.206  10.741 -1.3564  2.3989  1.1716
   36DOPE  C313 4626   4.596   5.331  10.825  0.2202 -0.5045 -0.0579
   36DOPE  H13X 4627   4.693   5.373  10.791 -0.2402 -1.0382 -2.1854
   36DOPE  H13Y 4628   4.539   5.423  10.849 -0.6726 -1.0059 -0.2284
   36DOPE  C314 4629   4.620   5.245  10.949  0.1534 -0.1768  0.2161
   36DOPE  H14X 4630   4.681   5.162  10.907 -1.1719 -0.0199 -2.1583
   36DOPE  H14Y 4631   4.521   5.200  10.970  0.6902 -3.6111 -3.4857
   36DOPE  C315 4632   4.705   5.319  11.055  0.5298  0.0919  0.1521
   36DOPE  H15X 4633   4.632   5.380  11.112 -1.9457 -2.1150 -0.4386
   36DOPE  H15Y 4634   4.780   5.386  11.009  0.7541 -2.2900 -3.2779
   36DOPE  C316 4635   4.772   5.219  11.155  0.0303 -0.8240  0.0571
   36DOPE  H16X 4636   4.851   5.168  11.095  0.6334  1.5269 -1.2879
   36DOPE  H16Y 4637   4.685   5.162  11.192 -0.1251  0.3429  1.5983
   36DOPE  C317 4638   4.847   5.289  11.264 -0.1482  0.2714  0.6555
   36DOPE  H17X 4639   4.893   5.382  11.222  0.5350  0.1991  1.2131
   36DOPE  H17Y 4640   4.787   5.318  11.353 -0.4956 -1.6569  1.0980
   36DOPE  C318 4641   4.954   5.196  11.318  0.5757 -0.4103  0.8396
   36DOPE  H18X 4642   4.908   5.111  11.374 -1.6184 -1.4431 -2.2643
   36DOPE  H18Y 4643   4.994   5.143  11.228 -0.3307 -1.4208  1.0052
   36DOPE  H18Z 4644   5.030   5.249  11.378  1.9888 -2.6500  1.1731
   37DOPE     N 4645   3.932   3.995   8.698 -0.0763 -0.1731 -0.1534
   37DOPE   HN1 4646   3.974   3.981   8.604 -2.5501  0.8129 -1.5010
   37DOPE   HN2 4647   3.917   3.900   8.737  1.4445 -0.3122  0.1493
   37DOPE   HN3 4648   3.837   4.035   8.686 -0.7132 -1.2988  0.9152
   37DOPE   C12 4649   4.022   4.062   8.799  0.2467  0.5847  0.4811
   37DOPE  H12A 4650   4.035   4.163   8.754  2.7229 -0.4135 -1.2697
   37DOPE  H12B 4651   4.124   4.018   8.810 -0.3257 -1.2019 -1.0360
   37DOPE   C11 4652   3.958   4.071   8.936 -0.2674  0.1366  0.7416
   37DOPE  H11A 4653   4.025   4.132   9.000  0.7745  0.9757 -1.0769
   37DOPE  H11B 4654   3.962   3.965   8.970  1.3152 -0.0969 -0.0361
   37DOPE     P 4655   3.804   4.281   8.955 -0.0279  0.0571 -0.5000
   37DOPE   O13 4656   3.657   4.302   8.950  0.0587 -0.0582  0.0774
   37DOPE   O14 4657   3.880   4.365   8.860  0.2346  0.0941  0.1346
   37DOPE   O11 4658   3.850   4.314   9.102 -0.0210 -0.0844  0.1598
   37DOPE   O12 4659   3.828   4.130   8.930  0.0180  0.4306 -0.5131
   37DOPE    C1 4660   3.769   4.291   9.218  0.1535  0.0399  0.4465
   37DOPE    HA 4661   3.697   4.208   9.200  1.6452 -1.6038  1.7669
   37DOPE    HB 4662   3.703   4.379   9.229  0.7281  0.3424  1.6457
   37DOPE    C2 4663   3.858   4.259   9.338 -0.1278 -0.3701  0.3053
   37DOPE    HS 4664   3.943   4.330   9.340 -0.6613  0.3131  3.4051
   37DOPE   O21 4665   3.905   4.121   9.332 -0.4808  0.4799 -0.9968
   37DOPE   C21 4666   4.009   4.084   9.400 -0.3753 -0.1921  0.5694
   37DOPE   O22 4667   4.077   4.155   9.474  0.0847  0.5231 -0.0263
   37DOPE   C22 4668   4.042   3.943   9.366  0.0516 -0.0653  0.2759
   37DOPE   H2R 4669   4.097   3.946   9.269 -0.6442  0.3499 -0.1156
   37DOPE   H2S 4670   3.950   3.881   9.360 -1.2055  1.6581  0.8619
   37DOPE    C3 4671   3.782   4.282   9.476  0.1042  0.0692 -0.2502
   37DOPE    HX 4672   3.752   4.389   9.477 -0.4925  0.0116 -3.0932
   37DOPE    HY 4673   3.842   4.249   9.564 -3.0512 -2.2868  1.2240
   37DOPE   O31 4674   3.656   4.201   9.486  0.1051 -0.1078  0.4418
   37DOPE   C31 4675   3.661   4.081   9.542  0.2076  0.3565  0.1936
   37DOPE   O32 4676   3.764   4.027   9.579  0.1683  0.0920 -0.0125
   37DOPE   C32 4677   3.523   4.018   9.562 -0.2054  0.1734 -0.4697
   37DOPE   H2X 4678   3.446   4.098   9.556  0.6777  1.0613 -0.0615
   37DOPE   H2Y 4679   3.510   3.947   9.478  2.6161  0.3037 -1.0918
   37DOPE   C23 4680   4.140   3.890   9.478 -0.9055 -0.0770  0.8387
   37DOPE   H3R 4681   4.094   3.899   9.579 -0.0388  0.0275  1.2314
   37DOPE   H3S 4682   4.226   3.960   9.477 -0.7705 -0.2467  0.5323
   37DOPE   C24 4683   4.210   3.755   9.449 -0.1550 -0.8550 -0.1543
   37DOPE   H4R 4684   4.250   3.754   9.346  1.4342  1.2757  0.3663
   37DOPE   H4S 4685   4.132   3.675   9.447  0.4493 -1.4284 -1.7336
   37DOPE   C25 4686   4.301   3.720   9.564  0.0514  0.6717  0.2128
   37DOPE   H5R 4687   4.349   3.814   9.598 -0.0741 -0.0840  2.6474
   37DOPE   H5S 4688   4.380   3.648   9.532  1.0807  1.1158  1.6638
   37DOPE   C26 4689   4.229   3.662   9.690  0.1630  0.3353 -0.5641
   37DOPE   H6R 4690   4.160   3.582   9.655  0.4223  0.6445 -1.8300
   37DOPE   H6S 4691   4.156   3.736   9.729 -1.1943 -1.7082  0.9634
   37DOPE   C27 4692   4.327   3.608   9.793  0.1892 -0.0190 -0.4136
   37DOPE   H7R 4693   4.384   3.688   9.846  0.8508  0.6808 -2.1189
   37DOPE   H7S 4694   4.401   3.544   9.741 -1.2276 -0.3921 -2.0417
   37DOPE   C28 4695   4.257   3.529   9.906 -0.1730 -0.4417  0.4526
   37DOPE   H8R 4696   4.169   3.586   9.942 -0.1144  0.4425 -0.7418
   37DOPE   H8S 4697   4.332   3.517   9.988  0.9070 -0.6313 -0.5407
   37DOPE   C29 4698   4.217   3.391   9.850 -0.7011 -0.5187  0.0800
   37DOPE   H9R 4699   4.168   3.390   9.752  0.9852  1.6873 -0.8779
   37DOPE  C210 4700   4.225   3.276   9.916 -0.9892 -0.2601 -0.1006
   37DOPE  H10R 4701   4.163   3.193   9.879 -0.1259 -1.5501  1.2035
   37DOPE  C211 4702   4.281   3.251  10.051 -0.0998 -0.0978 -0.0416
   37DOPE  H11R 4703   4.362   3.320  10.083  2.8291 -2.6070 -1.4783
   37DOPE  H11S 4704   4.342   3.160  10.034 -1.5559 -1.0457 -0.3207
   37DOPE  C212 4705   4.180   3.231  10.166  0.2221 -0.1666  0.5390
   37DOPE  H12R 4706   4.111   3.150  10.135  0.5723 -1.4709  2.9237
   37DOPE  H12S 4707   4.126   3.328  10.181 -0.0062  0.4222 -3.2186
   37DOPE  C213 4708   4.234   3.194  10.299 -0.1471 -0.0602 -0.2583
   37DOPE  H13R 4709   4.309   3.267  10.334  0.3070 -0.7474  0.2187
   37DOPE  H13S 4710   4.268   3.090  10.279 -3.0408 -1.0831 -0.4745
   37DOPE  C214 4711   4.116   3.171  10.399  0.0952 -0.3345 -0.0862
   37DOPE  H14R 4712   4.138   3.094  10.477 -0.2716 -1.2245 -0.8364
   37DOPE  H14S 4713   4.029   3.137  10.340 -0.1433  1.5299 -0.8605
   37DOPE  C215 4714   4.069   3.301  10.475  0.5785  0.1621 -0.0045
   37DOPE  H15R 4715   4.039   3.383  10.407 -0.6584  0.7294  1.1730
   37DOPE  H15S 4716   4.158   3.337  10.531  1.1759  0.4087 -1.0988
   37DOPE  C216 4717   3.960   3.274  10.578  0.6625  0.9959 -0.2297
   37DOPE  H16R 4718   3.990   3.189  10.642 -0.7949  0.2617 -0.4959
   37DOPE  H16S 4719   3.867   3.244  10.526 -0.2566  1.4542  1.1059
   37DOPE  C217 4720   3.935   3.394  10.675  0.0133 -0.1361  0.6283
   37DOPE  H17R 4721   3.868   3.470  10.630  2.5149  1.2719 -1.0182
   37DOPE  H17S 4722   4.024   3.454  10.704 -0.0572  1.5781 -2.3021
   37DOPE  C218 4723   3.877   3.339  10.800  0.1716  0.0027 -0.3723
   37DOPE  H18R 4724   3.950   3.275  10.856 -0.4769  0.4026  0.9635
   37DOPE  H18S 4725   3.793   3.269  10.782  0.9557 -1.4152  1.1943
   37DOPE  H18T 4726   3.839   3.427  10.854 -0.9288 -0.1417 -0.8911
   37DOPE   C33 4727   3.500   3.942   9.701  0.2253 -0.6216 -0.2932
   37DOPE   H3X 4728   3.588   3.880   9.729  0.7041 -0.0955 -0.6042
   37DOPE   H3Y 4729   3.403   3.890   9.684 -0.5201 -0.1780  2.1918
   37DOPE   C34 4730   3.477   4.039   9.822  0.2495  0.0365  1.0140
   37DOPE   H4X 4731   3.564   4.108   9.814  0.8903 -0.8201  0.3383
   37DOPE   H4Y 4732   3.378   4.089   9.820  0.2108 -0.0502  0.1900
   37DOPE   C35 4733   3.490   3.973   9.957  0.0913  0.0730  0.4815
   37DOPE   H5X 4734   3.588   3.920   9.955 -0.4921 -1.2648  3.1810
   37DOPE   H5Y 4735   3.411   3.896   9.966  0.3235 -0.5801 -2.3362
   37DOPE   C36 4736   3.486   4.059  10.076  0.6591 -0.0300 -0.1044
   37DOPE   H6X 4737   3.381   4.096  10.075  1.5842  2.8079 -1.3248
   37DOPE   H6Y 4738   3.553   4.143  10.050  1.2822 -0.2879  0.6213
   37DOPE   C37 4739   3.527   3.998  10.215 -0.0651  0.4563  0.0431
   37DOPE   H7X 4740   3.635   3.977  10.196 -0.4031 -1.1835 -0.1730
   37DOPE   H7Y 4741   3.530   4.083  10.287  1.4264  0.9604 -0.5604
   37DOPE   C38 4742   3.458   3.874  10.280 -0.0241  0.2884  0.7287
   37DOPE   H8X 4743   3.525   3.834  10.359 -0.3264 -0.7142  0.4918
   37DOPE   H8Y 4744   3.453   3.783  10.217 -0.6702  0.5694  0.3602
   37DOPE   C39 4745   3.317   3.901  10.329  0.0232 -0.2612 -0.4786
   37DOPE   H9X 4746   3.240   3.906  10.250 -2.7935 -0.7031  2.0604
   37DOPE  C310 4747   3.275   3.926  10.463  0.2732 -0.6948  0.4857
   37DOPE  H10X 4748   3.171   3.952  10.483 -0.9540 -2.5695 -2.6797
   37DOPE  C311 4749   3.370   3.937  10.577 -0.1485  0.2811  0.1689
   37DOPE  H11X 4750   3.400   3.842  10.626  3.5709  1.2025 -0.0152
   37DOPE  H11Y 4751   3.461   3.998  10.560  0.9295 -1.1826  0.4862
   37DOPE  C312 4752   3.290   4.015  10.688 -0.0712 -0.0666 -0.0186
   37DOPE  H12X 4753   3.204   3.957  10.729 -1.9164  2.4141 -0.1108
   37DOPE  H12Y 4754   3.248   4.113  10.654 -1.3846 -0.7841 -0.5265
   37DOPE  C313 4755   3.392   4.055  10.798  0.0187 -0.6700  0.1229
   37DOPE  H13X 4756   3.454   4.129  10.743 -2.3201  0.2547 -1.3890
   37DOPE  H13Y 4757   3.340   4.105  10.883 -1.1681 -1.2211 -0.2647
   37DOPE  C314 4758   3.481   3.949  10.863  0.1272 -0.6253  0.2445
   37DOPE  H14X 4759   3.559   3.924  10.787  0.0247 -0.6070  0.1312
   37DOPE  H14Y 4760   3.423   3.855  10.879 -4.7591  2.1068  0.4506
   37DOPE  C315 4761   3.546   3.983  10.995  0.1846 -0.9705  0.3468
   37DOPE  H15X 4762   3.611   4.072  10.984  2.5595 -2.7953 -1.3180
   37DOPE  H15Y 4763   3.611   3.898  11.023  1.9649  0.4096  0.5883
   37DOPE  C316 4764   3.451   4.025  11.112  0.2785  0.4153  0.9166
   37DOPE  H16X 4765   3.407   4.126  11.093 -0.9962 -0.1050  1.0008
   37DOPE  H16Y 4766   3.512   4.039  11.204 -0.4008  0.8518  1.3156
   37DOPE  C317 4767   3.334   3.937  11.146  0.2726 -0.0613  0.3571
   37DOPE  H17X 4768   3.275   3.981  11.230 -1.6560 -1.3414 -0.2627
   37DOPE  H17Y 4769   3.264   3.926  11.061 -1.1278 -0.1680  1.4843
   37DOPE  C318 4770   3.384   3.799  11.198  0.1062  0.6307  0.4591
   37DOPE  H18X 4771   3.458   3.813  11.280  1.3213  1.4892 -0.7222
   37DOPE  H18Y 4772   3.306   3.731  11.237  0.4585  1.4740  2.7459
   37DOPE  H18Z 4773   3.438   3.747  11.116 -0.6585 -0.6456  0.7538
   38DOPE     N 4774   5.482   0.766   8.860 -0.1203 -0.0545 -0.4152
   38DOPE   HN1 4775   5.471   0.663   8.850  4.1025 -0.8790  1.1197
   38DOPE   HN2 4776   5.402   0.790   8.922 -1.1455 -2.3725 -0.7390
   38DOPE   HN3 4777   5.460   0.810   8.768 -2.2904  3.2534  1.5120
   38DOPE   C12 4778   5.614   0.798   8.919 -0.7812  0.0839  0.1061
   38DOPE  H12A 4779   5.625   0.772   9.026  1.7705 -0.3555 -0.1919
   38DOPE  H12B 4780   5.629   0.906   8.898 -1.0470 -0.0556 -0.8586
   38DOPE   C11 4781   5.719   0.722   8.842  0.2238  0.2952  0.6400
   38DOPE  H11A 4782   5.819   0.757   8.877  0.0401  0.3449  1.1299
   38DOPE  H11B 4783   5.700   0.757   8.738 -1.3354  0.3887  0.9332
   38DOPE     P 4784   5.767   0.489   8.939 -0.0821  0.1375  0.2802
   38DOPE   O13 4785   5.891   0.437   8.882 -0.4186 -0.5664  0.4150
   38DOPE   O14 4786   5.662   0.388   8.981 -0.1181  0.4811  0.1254
   38DOPE   O11 4787   5.805   0.590   9.053 -0.6104  0.0361  0.0765
   38DOPE   O12 4788   5.696   0.578   8.834  0.5047 -0.2820 -0.2473
   38DOPE    C1 4789   5.901   0.552   9.153  0.9768  0.0602  0.5613
   38DOPE    HA 4790   5.994   0.596   9.110  1.6358 -1.7278  0.0452
   38DOPE    HB 4791   5.914   0.442   9.156  1.4808  0.0645 -0.9301
   38DOPE    C2 4792   5.862   0.610   9.288  0.4455 -0.6514 -0.3610
   38DOPE    HS 4793   5.935   0.561   9.356 -0.1350 -2.0171 -0.6778
   38DOPE   O21 4794   5.729   0.568   9.332  0.1164 -0.2247 -0.3064
   38DOPE   C21 4795   5.720   0.451   9.381  0.4079  0.5100 -0.4919
   38DOPE   O22 4796   5.812   0.381   9.412  0.2327  0.2481 -0.4097
   38DOPE   C22 4797   5.572   0.416   9.393 -0.0622  0.8917  0.3892
   38DOPE   H2R 4798   5.558   0.306   9.404 -0.9407  0.9529 -0.0702
   38DOPE   H2S 4799   5.536   0.436   9.290  1.1510  0.4915 -0.1447
   38DOPE    C3 4800   5.879   0.763   9.294 -0.1599 -0.1817  0.2198
   38DOPE    HX 4801   5.832   0.797   9.199 -1.0600 -0.4975  0.5408
   38DOPE    HY 4802   5.986   0.793   9.291  0.0686 -1.0086 -0.3523
   38DOPE   O31 4803   5.789   0.822   9.391 -0.3324  0.1265  0.2336
   38DOPE   C31 4804   5.839   0.796   9.510 -0.1767 -0.5290  0.0694
   38DOPE   O32 4805   5.947   0.749   9.536  0.1632 -0.5753  0.4184
   38DOPE   C32 4806   5.740   0.825   9.626  0.4432  0.2456  0.1523
   38DOPE   H2X 4807   5.727   0.935   9.632  2.0732  0.4027  1.5417
   38DOPE   H2Y 4808   5.645   0.772   9.604 -0.1089  1.2605  0.0215
   38DOPE   C23 4809   5.509   0.504   9.500 -0.0759  0.3619 -0.2848
   38DOPE   H3R 4810   5.399   0.489   9.499 -0.0943  0.1078  1.9150
   38DOPE   H3S 4811   5.542   0.610   9.497  4.0550 -0.4540  4.2757
   38DOPE   C24 4812   5.554   0.461   9.641 -0.4608  0.4552  1.1847
   38DOPE   H4R 4813   5.665   0.462   9.641 -0.4584  0.9200  0.7194
   38DOPE   H4S 4814   5.530   0.353   9.654  0.9437  0.0396  0.5313
   38DOPE   C25 4815   5.502   0.548   9.756 -0.6835  0.2452  0.6038
   38DOPE   H5R 4816   5.392   0.560   9.762 -0.5155  1.2112  2.2001
   38DOPE   H5S 4817   5.532   0.654   9.739 -1.8299  1.0129  2.9574
   38DOPE   C26 4818   5.536   0.503   9.895  0.6518 -0.1885  0.2351
   38DOPE   H6R 4819   5.644   0.511   9.918  0.5258 -2.1247  1.7315
   38DOPE   H6S 4820   5.510   0.395   9.905  0.3795 -0.0605  0.9913
   38DOPE   C27 4821   5.469   0.587  10.007 -0.2209 -0.0862 -0.2576
   38DOPE   H7R 4822   5.362   0.558  10.008 -0.4417  0.6854 -0.9879
   38DOPE   H7S 4823   5.485   0.694   9.983 -1.7745 -0.0395 -1.1883
   38DOPE   C28 4824   5.524   0.565  10.148  0.0055 -0.3790  0.3096
   38DOPE   H8R 4825   5.632   0.588  10.154 -0.0367 -0.3619  1.0885
   38DOPE   H8S 4826   5.518   0.457  10.175  2.1552  0.1028  3.1324
   38DOPE   C29 4827   5.454   0.640  10.257 -0.0160  0.5540  0.3736
   38DOPE   H9R 4828   5.354   0.676  10.230 -0.8008 -1.0342  1.0270
   38DOPE  C210 4829   5.493   0.637  10.388  0.2624  0.5243 -0.8019
   38DOPE  H10R 4830   5.430   0.688  10.462 -1.6011  1.4661 -2.9128
   38DOPE  C211 4831   5.626   0.591  10.432  0.2601  0.4216  0.7020
   38DOPE  H11R 4832   5.701   0.642  10.367  2.3207 -0.9483  1.9106
   38DOPE  H11S 4833   5.634   0.484  10.407 -0.9506  0.1962  1.2040
   38DOPE  C212 4834   5.663   0.601  10.584 -0.1415 -0.0691  0.1048
   38DOPE  H12R 4835   5.636   0.697  10.633  0.3006 -0.5877  1.4098
   38DOPE  H12S 4836   5.774   0.594  10.590 -0.0867  1.3207  1.5543
   38DOPE  C213 4837   5.602   0.491  10.670  0.2861  0.6761  0.1035
   38DOPE  H13R 4838   5.634   0.392  10.633  0.1227  0.0889  1.4670
   38DOPE  H13S 4839   5.495   0.487  10.640  0.6512 -1.1053 -1.1164
   38DOPE  C214 4840   5.608   0.506  10.826 -0.3216  0.8127 -0.2149
   38DOPE  H14R 4841   5.713   0.519  10.857  0.1231 -3.8222  1.0688
   38DOPE  H14S 4842   5.558   0.416  10.868  0.1014  1.4296  1.6704
   38DOPE  C215 4843   5.546   0.634  10.875  0.1394 -0.1192  0.2097
   38DOPE  H15R 4844   5.442   0.645  10.838  0.2433  0.2345  0.0146
   38DOPE  H15S 4845   5.603   0.714  10.823 -0.6828 -0.7660 -1.7897
   38DOPE  C216 4846   5.543   0.663  11.020  0.6315 -0.2283  0.4180
   38DOPE  H16R 4847   5.508   0.767  11.036  0.3919 -0.2978  0.3501
   38DOPE  H16S 4848   5.650   0.669  11.051  1.4270  1.5271 -2.2756
   38DOPE  C217 4849   5.448   0.567  11.093  0.2280  0.7821  0.3966
   38DOPE  H17R 4850   5.472   0.467  11.053 -0.9553  0.7707 -0.3314
   38DOPE  H17S 4851   5.349   0.590  11.047  0.9921 -0.8013 -2.2624
   38DOPE  C218 4852   5.465   0.580  11.245  0.5601  0.2434  0.1385
   38DOPE  H18R 4853   5.411   0.501  11.301  0.3229  1.1342  1.2016
   38DOPE  H18S 4854   5.435   0.683  11.276  0.9985  0.9375 -1.6343
   38DOPE  H18T 4855   5.572   0.570  11.271  0.1799 -0.5186  1.5035
   38DOPE   C33 4856   5.807   0.795   9.766  0.2241 -0.6585 -0.3803
   38DOPE   H3X 4857   5.908   0.842   9.766  0.3265 -0.8607  0.7476
   38DOPE   H3Y 4858   5.823   0.686   9.780  1.6691 -0.8214 -2.7133
   38DOPE   C34 4859   5.722   0.869   9.875 -0.6332 -0.8104  0.9479
   38DOPE   H4X 4860   5.704   0.976   9.849  1.5183 -0.8182 -0.8792
   38DOPE   H4Y 4861   5.622   0.822   9.885 -0.8424  0.1555  4.4107
   38DOPE   C35 4862   5.786   0.861  10.013  0.4503 -0.1007  1.2431
   38DOPE   H5X 4863   5.883   0.915  10.011  0.3886  0.0175  1.4119
   38DOPE   H5Y 4864   5.804   0.757  10.047  0.0802 -1.1909 -1.6084
   38DOPE   C36 4865   5.697   0.940  10.113  0.5567 -0.1692 -0.3084
   38DOPE   H6X 4866   5.600   0.886  10.110  0.3506  0.1109  0.8251
   38DOPE   H6Y 4867   5.674   1.043  10.079  1.2432 -0.1156 -0.6337
   38DOPE   C37 4868   5.758   0.929  10.254  0.5528  0.6273 -0.0432
   38DOPE   H7X 4869   5.796   0.825  10.254 -1.8916 -0.3360  0.0373
   38DOPE   H7Y 4870   5.850   0.990  10.258  0.8893  0.0866  0.5845
   38DOPE   C38 4871   5.668   0.947  10.377 -0.2870 -0.4030 -0.4877
   38DOPE   H8X 4872   5.713   0.899  10.466  1.0229  1.4956 -0.0411
   38DOPE   H8Y 4873   5.568   0.901  10.365 -0.4799 -0.0876 -0.1103
   38DOPE   C39 4874   5.636   1.092  10.404 -0.0101  0.1349  1.2141
   38DOPE   H9X 4875   5.588   1.142  10.319  1.6761  0.2704  0.3006
   38DOPE  C310 4876   5.624   1.137  10.529 -0.2287  0.0589  0.6014
   38DOPE  H10X 4877   5.598   1.243  10.539  0.2925  0.0554  2.3964
   38DOPE  C311 4878   5.683   1.089  10.657  0.6903 -0.0647  0.2473
   38DOPE  H11X 4879   5.766   1.018  10.636  1.1502  0.0838  1.4382
   38DOPE  H11Y 4880   5.724   1.171  10.720  1.1920  1.1094 -1.5549
   38DOPE  C312 4881   5.577   1.018  10.731  0.0270 -0.1949 -0.4512
   38DOPE  H12X 4882   5.619   0.972  10.823 -1.1812 -0.8218 -0.2010
   38DOPE  H12Y 4883   5.533   0.937  10.669 -2.6378 -0.0031  1.0491
   38DOPE  C313 4884   5.468   1.111  10.793 -0.5678  0.4866 -0.6457
   38DOPE  H13X 4885   5.527   1.197  10.830  0.9367 -0.5001 -0.6509
   38DOPE  H13Y 4886   5.383   1.151  10.733 -1.0378  0.0880 -0.2621
   38DOPE  C314 4887   5.405   1.050  10.920  0.3510 -0.3304 -0.0456
   38DOPE  H14X 4888   5.472   1.036  11.007 -1.2541 -1.6217  1.0266
   38DOPE  H14Y 4889   5.357   0.954  10.891 -1.4930  0.6249 -0.3182
   38DOPE  C315 4890   5.292   1.139  10.982  0.1925  0.2784 -0.2702
   38DOPE  H15X 4891   5.218   1.193  10.918  0.2640  1.1972  0.3941
   38DOPE  H15Y 4892   5.348   1.224  11.026  0.3962  0.2787 -0.5278
   38DOPE  C316 4893   5.209   1.060  11.079  0.4682  0.2061  0.0850
   38DOPE  H16X 4894   5.279   1.033  11.160  0.9944  0.4134 -0.2969
   38DOPE  H16Y 4895   5.166   0.967  11.037  1.3965  0.0428 -0.5325
   38DOPE  C317 4896   5.093   1.153  11.129 -0.0872 -0.3620  0.0964
   38DOPE  H17X 4897   5.142   1.249  11.157  1.4593 -1.0428 -0.1393
   38DOPE  H17Y 4898   5.025   1.167  11.043  0.0516 -0.6238 -0.0579
   38DOPE  C318 4899   5.024   1.095  11.249 -1.0757  0.4046  0.0206
   38DOPE  H18X 4900   4.966   1.006  11.218 -1.8401  1.2380 -1.0197
   38DOPE  H18Y 4901   5.098   1.072  11.329 -0.0287 -0.3115 -1.1137
   38DOPE  H18Z 4902   4.944   1.164  11.286 -2.3887  0.1082 -2.0937
   39DOPE     N 4903   3.100   5.269   8.902 -0.0992  0.2398 -0.2884
   39DOPE   HN1 4904   3.204   5.273   8.914  0.0273  0.8168 -1.4350
   39DOPE   HN2 4905   3.084   5.183   8.847 -0.1734  1.4511 -2.2749
   39DOPE   HN3 4906   3.072   5.350   8.842  0.7697  0.8373  0.0781
   39DOPE   C12 4907   3.038   5.263   9.038  0.3697 -0.0046  0.1602
   39DOPE  H12A 4908   3.062   5.361   9.084  0.4069 -0.7797  1.8925
   39DOPE  H12B 4909   3.095   5.186   9.095  0.5600  0.1220  0.1426
   39DOPE   C11 4910   2.888   5.221   9.037  0.3298 -0.3801  0.4666
   39DOPE  H11A 4911   2.850   5.199   9.139  0.7239  2.0926  1.2139
   39DOPE  H11B 4912   2.885   5.120   8.991 -0.7334 -0.3690  0.4913
   39DOPE     P 4913   2.653   5.294   8.937 -0.4102  0.0193  0.0147
   39DOPE   O13 4914   2.626   5.153   8.893  0.5119 -0.2114  0.1074
   39DOPE   O14 4915   2.606   5.392   8.842  0.4421 -0.6712 -0.0227
   39DOPE   O11 4916   2.603   5.312   9.084  0.2255  0.0658  0.3452
   39DOPE   O12 4917   2.811   5.310   8.956  0.5235 -0.3321 -0.8713
   39DOPE    C1 4918   2.620   5.434   9.150 -0.1131 -0.5651  0.3468
   39DOPE    HA 4919   2.573   5.523   9.103  5.2006  2.6935  0.3544
   39DOPE    HB 4920   2.724   5.473   9.143 -0.1614 -0.5729 -0.4090
   39DOPE    C2 4921   2.586   5.436   9.301  0.5999 -0.4120 -0.4416
   39DOPE    HS 4922   2.652   5.518   9.336 -0.7097  1.1756 -1.5342
   39DOPE   O21 4923   2.612   5.313   9.371  0.3220 -0.0527  0.3211
   39DOPE   C21 4924   2.738   5.297   9.402 -0.1321 -0.2677  0.2614
   39DOPE   O22 4925   2.831   5.373   9.396 -0.0205  0.1325 -0.5597
   39DOPE   C22 4926   2.743   5.149   9.437  0.8465 -0.2260  0.4264
   39DOPE   H2R 4927   2.850   5.123   9.450  1.4541  2.4461  1.3026
   39DOPE   H2S 4928   2.690   5.089   9.360 -0.4099 -0.4020  1.3957
   39DOPE    C3 4929   2.440   5.489   9.326  0.3020  0.3521 -1.0149
   39DOPE    HX 4930   2.376   5.408   9.286  0.1916 -0.4877  0.7652
   39DOPE    HY 4931   2.429   5.582   9.265 -1.8855 -0.3824 -1.8312
   39DOPE   O31 4932   2.414   5.502   9.467 -0.3257  0.6394 -0.0656
   39DOPE   C31 4933   2.449   5.608   9.520  0.6541  0.3360 -0.3064
   39DOPE   O32 4934   2.532   5.692   9.482  0.1410  0.1259  0.1617
   39DOPE   C32 4935   2.355   5.625   9.640 -0.5322 -0.1836  0.5504
   39DOPE   H2X 4936   2.352   5.732   9.670  0.7525 -0.3613  1.4043
   39DOPE   H2Y 4937   2.252   5.619   9.598  0.1475  0.0130 -1.2559
   39DOPE   C23 4938   2.670   5.124   9.570  0.6065  0.4760 -0.1415
   39DOPE   H3R 4939   2.658   5.014   9.580 -3.1390  0.7494 -0.3014
   39DOPE   H3S 4940   2.564   5.157   9.578  0.9567  1.7241 -0.4839
   39DOPE   C24 4941   2.766   5.160   9.686  0.3351  0.1042  0.3144
   39DOPE   H4R 4942   2.778   5.270   9.686  0.9571  0.0713 -1.6774
   39DOPE   H4S 4943   2.863   5.107   9.680 -0.3952 -1.5056  1.8161
   39DOPE   C25 4944   2.705   5.104   9.823  0.1525 -0.6162  0.5050
   39DOPE   H5R 4945   2.717   4.994   9.823  2.3177 -0.4269  1.6888
   39DOPE   H5S 4946   2.600   5.141   9.826  0.3504 -0.0755  0.9489
   39DOPE   C26 4947   2.777   5.163   9.951  0.2253  0.6768 -0.5474
   39DOPE   H6R 4948   2.728   5.107  10.034  1.5850  1.2346  0.6646
   39DOPE   H6S 4949   2.755   5.272   9.953 -1.7173  0.3251  0.9444
   39DOPE   C27 4950   2.933   5.147   9.961 -0.1265  0.0559  0.5054
   39DOPE   H7R 4951   2.986   5.230   9.910 -0.5231 -0.8589 -1.4828
   39DOPE   H7S 4952   2.961   5.058   9.901 -0.0563  1.5938 -1.8615
   39DOPE   C28 4953   2.979   5.127  10.103 -0.2602 -0.6533 -0.2050
   39DOPE   H8R 4954   3.089   5.129  10.117 -0.1764 -1.7218 -0.5690
   39DOPE   H8S 4955   2.955   5.031  10.153  0.8058 -0.4947  0.6355
   39DOPE   C29 4956   2.936   5.251  10.186 -0.1156  0.5787 -0.6047
   39DOPE   H9R 4957   2.994   5.343  10.169 -3.0108  2.2252 -2.4467
   39DOPE  C210 4958   2.840   5.251  10.284 -0.2035  0.6567  0.1224
   39DOPE  H10R 4959   2.816   5.353  10.317  0.7329  0.8332  0.2910
   39DOPE  C211 4960   2.752   5.137  10.332 -0.4542 -0.4723 -0.0268
   39DOPE  H11R 4961   2.757   5.060  10.252 -2.2884  0.8410 -1.5059
   39DOPE  H11S 4962   2.651   5.183  10.337  0.8656  2.6926 -0.2082
   39DOPE  C212 4963   2.797   5.088  10.473  0.1834 -0.5958  0.4443
   39DOPE  H12R 4964   2.904   5.059  10.485  0.6767 -0.9710 -3.5162
   39DOPE  H12S 4965   2.743   4.994  10.497  0.6982 -1.2034 -0.6880
   39DOPE  C213 4966   2.758   5.194  10.583 -0.0486  0.1036 -0.2331
   39DOPE  H13R 4967   2.658   5.233  10.553 -0.1544 -2.1385 -3.1969
   39DOPE  H13S 4968   2.828   5.278  10.562 -0.3596 -0.0392 -1.9354
   39DOPE  C214 4969   2.761   5.137  10.729  0.0209  0.0411  0.1223
   39DOPE  H14R 4970   2.852   5.075  10.740  1.2257  1.8120  0.6855
   39DOPE  H14S 4971   2.673   5.070  10.741 -1.0585  1.5571  1.2283
   39DOPE  C215 4972   2.750   5.236  10.844  0.1120 -0.6045  0.1994
   39DOPE  H15R 4973   2.672   5.313  10.833 -0.7753 -0.9717  3.0758
   39DOPE  H15S 4974   2.848   5.288  10.847  0.1388 -0.6956  0.9546
   39DOPE  C216 4975   2.736   5.158  10.978  0.2519  0.3768  0.6861
   39DOPE  H16R 4976   2.797   5.065  10.979  0.5875  0.5966  0.5505
   39DOPE  H16S 4977   2.628   5.134  10.993  0.4641 -0.0012  1.6808
   39DOPE  C217 4978   2.785   5.237  11.103 -0.1241  0.0778 -0.8202
   39DOPE  H17R 4979   2.741   5.337  11.119  3.0434  1.2494  1.8271
   39DOPE  H17S 4980   2.893   5.258  11.085 -0.2113  0.2680 -1.1234
   39DOPE  C218 4981   2.779   5.151  11.227  0.7847 -0.0996  0.2760
   39DOPE  H18R 4982   2.674   5.154  11.266  0.0798 -2.1693 -1.2597
   39DOPE  H18S 4983   2.853   5.179  11.305  2.6440 -2.2072 -0.6295
   39DOPE  H18T 4984   2.792   5.044  11.198  0.6420  0.0881 -0.5057
   39DOPE   C33 4985   2.383   5.532   9.760 -0.1944  0.0156 -0.1001
   39DOPE   H3X 4986   2.366   5.423   9.748  1.0048 -0.4533  1.9807
   39DOPE   H3Y 4987   2.304   5.550   9.835  1.0615 -0.8230  1.4910
   39DOPE   C34 4988   2.520   5.569   9.815  0.5866 -0.4275 -0.5063
   39DOPE   H4X 4989   2.588   5.556   9.729  0.6598  1.1990 -0.7322
   39DOPE   H4Y 4990   2.520   5.678   9.837  1.9134  0.0004 -2.3989
   39DOPE   C35 4991   2.556   5.489   9.943 -0.0861  0.2540  0.8618
   39DOPE   H5X 4992   2.664   5.501   9.967  0.0728  0.2897  0.1343
   39DOPE   H5Y 4993   2.540   5.380   9.926 -2.3085  0.5824  0.5965
   39DOPE   C36 4994   2.481   5.527  10.070 -0.3273 -0.3058  1.0334
   39DOPE   H6X 4995   2.374   5.518  10.041 -0.0286 -0.2590 -0.1518
   39DOPE   H6Y 4996   2.502   5.630  10.106  0.7405  0.4928 -1.6278
   39DOPE   C37 4997   2.507   5.437  10.182 -0.1834  0.3778  1.0512
   39DOPE   H7X 4998   2.498   5.335  10.139  0.1107  0.2492  1.2970
   39DOPE   H7Y 4999   2.612   5.457  10.213 -0.3558  2.8161  0.3147
   39DOPE   C38 5000   2.420   5.450  10.310  0.0719  0.0820  0.2013
   39DOPE   H8X 5001   2.421   5.350  10.360 -1.8487 -0.3639 -0.5713
   39DOPE   H8Y 5002   2.312   5.459  10.284  0.2554 -1.4199 -1.2753
   39DOPE   C39 5003   2.456   5.572  10.393 -0.1906 -0.3395 -0.4030
   39DOPE   H9X 5004   2.441   5.670  10.347  1.2055  0.1380  0.0914
   39DOPE  C310 5005   2.482   5.579  10.526  0.2814  0.3346 -1.2733
   39DOPE  H10X 5006   2.503   5.678  10.568 -1.5007  0.0606  0.4167
   39DOPE  C311 5007   2.485   5.464  10.626  0.4564  0.2102 -0.7476
   39DOPE  H11X 5008   2.438   5.374  10.580 -1.6313 -0.0727  1.7293
   39DOPE  H11Y 5009   2.587   5.448  10.666 -0.4815  0.3764  1.8986
   39DOPE  C312 5010   2.394   5.500  10.747  0.3828  0.4253 -0.7418
   39DOPE  H12X 5011   2.376   5.408  10.807 -3.0697  1.8226  0.6096
   39DOPE  H12Y 5012   2.290   5.527  10.719 -0.5767 -0.5374  1.5874
   39DOPE  C313 5013   2.460   5.612  10.837 -0.5196  0.4079  0.2734
   39DOPE  H13X 5014   2.571   5.614  10.836 -0.4938 -0.2410  1.1668
   39DOPE  H13Y 5015   2.419   5.707  10.798 -2.3888 -0.3977  0.1233
   39DOPE  C314 5016   2.422   5.610  10.987 -0.4298  0.2827 -0.2938
   39DOPE  H14X 5017   2.476   5.526  11.037 -1.9659 -0.2032  0.5881
   39DOPE  H14Y 5018   2.313   5.590  10.992 -0.4943  0.6746 -0.1241
   39DOPE  C315 5019   2.458   5.735  11.062 -0.9129  0.4075 -0.1065
   39DOPE  H15X 5020   2.430   5.828  11.007 -0.1045  1.8053  1.7319
   39DOPE  H15Y 5021   2.569   5.737  11.071 -1.0489  0.0800  2.5400
   39DOPE  C316 5022   2.394   5.736  11.206 -0.6924  0.1538  0.3657
   39DOPE  H16X 5023   2.406   5.637  11.253  4.0093 -0.0227 -0.7337
   39DOPE  H16Y 5024   2.285   5.754  11.192 -0.7164 -0.7648 -0.7537
   39DOPE  C317 5025   2.453   5.851  11.296 -0.1335  0.3508 -0.0806
   39DOPE  H17X 5026   2.564   5.846  11.294 -0.0733  0.6031  1.4951
   39DOPE  H17Y 5027   2.418   5.951  11.261 -0.2980  0.5479  0.6332
   39DOPE  C318 5028   2.395   5.838  11.435 -0.3264  0.2145  1.3621
   39DOPE  H18X 5029   2.470   5.889  11.498  0.7021  1.2883 -0.6512
   39DOPE  H18Y 5030   2.298   5.892  11.437 -0.6960 -0.1007 -2.0101
   39DOPE  H18Z 5031   2.375   5.734  11.469 -0.4532  0.2379  1.3614
   40DOPE     N 5032   4.441   6.189   8.980 -0.4526  0.1154 -0.4668
   40DOPE   HN1 5033   4.398   6.100   9.014 -0.1464 -0.3828 -1.3568
   40DOPE   HN2 5034   4.480   6.171   8.885 -1.3347 -2.2048 -0.4445
   40DOPE   HN3 5035   4.532   6.203   9.028 -0.6902  0.9606 -0.2446
   40DOPE   C12 5036   4.359   6.314   8.998 -0.0374  0.1602 -0.7509
   40DOPE  H12A 5037   4.253   6.290   9.021 -1.2994  3.8626 -1.9517
   40DOPE  H12B 5038   4.361   6.370   8.902  2.8380  1.7813  0.1158
   40DOPE   C11 5039   4.408   6.423   9.102 -0.9253  0.3837  0.1265
   40DOPE  H11A 5040   4.409   6.375   9.202 -1.6667 -1.1906 -0.5781
   40DOPE  H11B 5041   4.336   6.508   9.100  0.2356  1.5140  2.5322
   40DOPE     P 5042   4.560   6.597   8.979  0.4350  0.1149 -0.2479
   40DOPE   O13 5043   4.509   6.564   8.847  0.0039  0.3480 -0.4297
   40DOPE   O14 5044   4.693   6.663   8.983  0.1579  0.3289 -0.1326
   40DOPE   O11 5045   4.452   6.698   9.043  0.1173  0.1550 -0.8576
   40DOPE   O12 5046   4.548   6.469   9.079  0.1718  0.2360  0.3555
   40DOPE    C1 5047   4.496   6.797   9.131  0.2209  0.0478  0.4038
   40DOPE    HA 5048   4.419   6.869   9.164 -0.4649  0.0544 -1.1314
   40DOPE    HB 5049   4.577   6.859   9.087  1.1714 -1.8681 -0.6882
   40DOPE    C2 5050   4.548   6.744   9.268 -0.0129  0.0614 -0.0671
   40DOPE    HS 5051   4.625   6.666   9.251  0.8592  0.2258  2.6952
   40DOPE   O21 5052   4.437   6.702   9.350 -0.4454 -0.1308 -0.4534
   40DOPE   C21 5053   4.454   6.581   9.401 -0.8395  0.8225  0.0879
   40DOPE   O22 5054   4.556   6.509   9.398  0.0552 -0.3180  0.0780
   40DOPE   C22 5055   4.330   6.543   9.469 -0.2016 -0.4231  0.7057
   40DOPE   H2R 5056   4.343   6.433   9.483  0.4089 -0.3073  1.0745
   40DOPE   H2S 5057   4.240   6.555   9.405  1.0416 -0.5426 -1.1288
   40DOPE    C3 5058   4.621   6.858   9.344 -0.3174 -0.1275 -0.1121
   40DOPE    HX 5059   4.557   6.948   9.348 -1.5054 -0.9532 -0.1119
   40DOPE    HY 5060   4.712   6.890   9.289 -0.5579 -0.0457 -0.4612
   40DOPE   O31 5061   4.658   6.826   9.485 -0.1659 -0.1704 -0.2662
   40DOPE   C31 5062   4.780   6.781   9.498 -0.6022 -0.2998 -0.3107
   40DOPE   O32 5063   4.861   6.763   9.403 -0.2794  0.9481 -0.2991
   40DOPE   C32 5064   4.810   6.744   9.642 -0.1354  0.5531 -0.0841
   40DOPE   H2X 5065   4.752   6.795   9.722  1.2799  0.6930  0.8968
   40DOPE   H2Y 5066   4.770   6.641   9.651 -0.5312  0.6154 -1.0173
   40DOPE   C23 5067   4.310   6.616   9.612  0.6174  0.5304  0.2778
   40DOPE   H3R 5068   4.206   6.603   9.647  0.5744 -1.0758 -0.3614
   40DOPE   H3S 5069   4.327   6.723   9.588 -1.8743  0.4003 -2.7237
   40DOPE   C24 5070   4.386   6.555   9.731  0.4840  1.0056  0.2210
   40DOPE   H4R 5071   4.494   6.563   9.706  1.2520 -0.9023  2.5070
   40DOPE   H4S 5072   4.358   6.448   9.731  0.9764  0.8691  0.5107
   40DOPE   C25 5073   4.329   6.633   9.852  0.1351  0.0844  0.0224
   40DOPE   H5R 5074   4.219   6.625   9.838  0.2917 -0.3013 -1.0755
   40DOPE   H5S 5075   4.348   6.742   9.843  1.1939 -0.1896 -1.2952
   40DOPE   C26 5076   4.371   6.579   9.995  0.3456  0.4061  0.1969
   40DOPE   H6R 5077   4.482   6.579   9.992  0.3770  2.7561 -1.8095
   40DOPE   H6S 5078   4.345   6.471  10.007 -0.4742  0.5963  0.1601
   40DOPE   C27 5079   4.323   6.668  10.115 -0.2840  0.2365 -0.2929
   40DOPE   H7R 5080   4.212   6.666  10.126 -0.1125  0.5678  1.9997
   40DOPE   H7S 5081   4.358   6.771  10.093 -1.4668  0.5883 -0.5807
   40DOPE   C28 5082   4.372   6.621  10.253 -0.6058 -0.2138  1.1868
   40DOPE   H8R 5083   4.347   6.707  10.319 -0.0588  0.0714  1.0245
   40DOPE   H8S 5084   4.483   6.615  10.257 -0.2793  1.2245 -2.1121
   40DOPE   C29 5085   4.312   6.492  10.299 -1.1103  0.2997  0.5186
   40DOPE   H9R 5086   4.318   6.409  10.227  1.5037  0.8094  0.0602
   40DOPE  C210 5087   4.285   6.465  10.425  0.0746  0.0587 -0.3761
   40DOPE  H10R 5088   4.244   6.365  10.447 -2.0847  0.9363 -0.1044
   40DOPE  C211 5089   4.287   6.560  10.540 -0.6982 -0.8574 -0.1168
   40DOPE  H11R 5090   4.206   6.636  10.532 -0.3889 -0.5852 -0.7228
   40DOPE  H11S 5091   4.375   6.628  10.537 -0.5752 -1.0372 -2.8039
   40DOPE  C212 5092   4.291   6.493  10.675 -0.1850 -0.8027  0.7596
   40DOPE  H12R 5093   4.365   6.410  10.684  0.2314 -0.2570  3.0453
   40DOPE  H12S 5094   4.187   6.455  10.693 -0.3311 -0.0074  1.6407
   40DOPE  C213 5095   4.326   6.584  10.796  0.8263 -0.1399  0.2571
   40DOPE  H13R 5096   4.272   6.682  10.791  0.8629 -0.1683 -1.2629
   40DOPE  H13S 5097   4.434   6.609  10.799  0.8975 -0.4688  2.9237
   40DOPE  C214 5098   4.309   6.507  10.928 -0.4622 -0.4578 -0.1032
   40DOPE  H14R 5099   4.362   6.410  10.926  0.1826 -0.1128 -0.1350
   40DOPE  H14S 5100   4.204   6.473  10.934 -0.2803 -1.2407 -1.2015
   40DOPE  C215 5101   4.346   6.591  11.050 -0.7011  0.4615 -0.3742
   40DOPE  H15R 5102   4.275   6.672  11.077 -0.5944 -0.1206  1.8956
   40DOPE  H15S 5103   4.445   6.638  11.033  0.0266  0.6425  3.4837
   40DOPE  C216 5104   4.349   6.492  11.170 -0.0432  0.3289  0.5246
   40DOPE  H16R 5105   4.406   6.397  11.160  0.1231  0.5119 -0.3424
   40DOPE  H16S 5106   4.247   6.467  11.208  1.3630 -2.1324  3.0279
   40DOPE  C217 5107   4.414   6.555  11.292 -0.0819  0.5107  0.0030
   40DOPE  H17R 5108   4.375   6.659  11.296  0.7776  1.0015 -2.4898
   40DOPE  H17S 5109   4.525   6.562  11.289 -0.1067  0.6738 -1.2805
   40DOPE  C218 5110   4.378   6.479  11.424  0.3317 -0.4525 -0.2202
   40DOPE  H18R 5111   4.269   6.468  11.441  0.2694  1.2390  0.6978
   40DOPE  H18S 5112   4.428   6.522  11.514  0.9192  1.6224 -1.4755
   40DOPE  H18T 5113   4.415   6.375  11.410  0.6969 -0.4013  0.3226
   40DOPE   C33 5114   4.962   6.743   9.691  0.5454 -0.3433 -0.0693
   40DOPE   H3X 5115   4.990   6.849   9.672  0.9594 -0.8853 -2.8838
   40DOPE   H3Y 5116   5.026   6.675   9.631 -0.9211  0.4994 -2.7664
   40DOPE   C34 5117   4.980   6.694   9.839  0.3384  0.3819 -0.3024
   40DOPE   H4X 5118   4.907   6.611   9.850 -2.4821  2.9432  2.6183
   40DOPE   H4Y 5119   5.083   6.657   9.856 -0.3811 -0.4446  2.8353
   40DOPE   C35 5120   4.947   6.800   9.941  0.2734  0.1128 -0.5530
   40DOPE   H5X 5121   4.862   6.866   9.915 -1.2859 -1.3535  0.5474
   40DOPE   H5Y 5122   5.042   6.856   9.951  0.5005 -0.6468  3.0496
   40DOPE   C36 5123   4.927   6.738  10.078  0.2388 -0.0883 -0.1772
   40DOPE   H6X 5124   5.012   6.671  10.103 -0.0008 -0.4036 -0.1970
   40DOPE   H6Y 5125   4.840   6.669  10.074  1.6325 -1.8505 -1.7270
   40DOPE   C37 5126   4.923   6.836  10.188 -0.8274  0.1286 -0.4476
   40DOPE   H7X 5127   5.022   6.887  10.195 -1.2771  0.7293  2.7089
   40DOPE   H7Y 5128   4.856   6.922  10.165  1.4341  1.7461 -1.3628
   40DOPE   C38 5129   4.893   6.767  10.321 -0.0078  0.0057  1.0661
   40DOPE   H8X 5130   4.943   6.823  10.403 -1.3596  3.0563 -0.0692
   40DOPE   H8Y 5131   4.945   6.669  10.314  0.8058  0.3625  1.8588
   40DOPE   C39 5132   4.748   6.745  10.364 -0.4186 -0.5573 -0.1520
   40DOPE   H9X 5133   4.672   6.806  10.313  1.6769  2.1039 -0.3251
   40DOPE  C310 5134   4.719   6.671  10.477  0.8084 -0.5394  0.3324
   40DOPE  H10X 5135   4.616   6.664  10.514  1.2050 -1.4279  1.3168
   40DOPE  C311 5136   4.825   6.600  10.560  0.5003 -0.5321  0.0607
   40DOPE  H11X 5137   4.783   6.506  10.601 -2.1624  0.6709  0.3016
   40DOPE  H11Y 5138   4.915   6.570  10.502  1.6921 -1.2179  2.1512
   40DOPE  C312 5139   4.868   6.693  10.678  0.6397  0.1461  0.3437
   40DOPE  H12X 5140   4.929   6.780  10.647  0.1416  0.5994  0.6278
   40DOPE  H12Y 5141   4.939   6.639  10.744  1.3383  1.1373  0.4150
   40DOPE  C313 5142   4.760   6.729  10.773 -0.8535 -0.1264 -0.2529
   40DOPE  H13X 5143   4.686   6.792  10.720 -0.3122  3.8024  3.1152
   40DOPE  H13Y 5144   4.707   6.638  10.810 -3.2926  1.1829 -0.3223
   40DOPE  C314 5145   4.816   6.789  10.901  0.0538 -0.4165 -0.4451
   40DOPE  H14X 5146   4.886   6.874  10.885 -0.6471  0.4737  0.9821
   40DOPE  H14Y 5147   4.881   6.718  10.957  1.3725 -0.3143 -1.7718
   40DOPE  C315 5148   4.700   6.842  10.989  0.2415 -0.2711 -0.8700
   40DOPE  H15X 5149   4.628   6.763  11.017 -0.3319 -0.8875 -3.7483
   40DOPE  H15Y 5150   4.646   6.917  10.927 -0.5095  1.5950  1.8610
   40DOPE  C316 5151   4.750   6.920  11.111 -0.0015 -0.7315  0.6353
   40DOPE  H16X 5152   4.818   6.997  11.068  0.4997 -2.4000 -1.7697
   40DOPE  H16Y 5153   4.819   6.852  11.166 -0.1894 -2.9576 -1.6617
   40DOPE  C317 5154   4.648   7.005  11.186 -0.5356 -0.0699  0.2345
   40DOPE  H17X 5155   4.614   7.079  11.111  0.6148  1.2634  0.9833
   40DOPE  H17Y 5156   4.562   6.940  11.213  0.7236 -1.5197  0.9540
   40DOPE  C318 5157   4.711   7.075  11.308 -0.8023 -0.3893  0.2284
   40DOPE  H18X 5158   4.746   7.011  11.392  1.7890  1.0844  0.3536
   40DOPE  H18Y 5159   4.804   7.129  11.281  0.4271 -3.0714 -1.3028
   40DOPE  H18Z 5160   4.647   7.145  11.366  3.6929  3.1400  1.5162
   41DOPE     N 5161   3.529   6.071   9.032 -0.7052  0.1847  0.7558
   41DOPE   HN1 5162   3.431   6.069   8.998  0.4224 -1.1383 -2.8847
   41DOPE   HN2 5163   3.588   6.055   8.948 -2.1136  1.3119 -0.5181
   41DOPE   HN3 5164   3.540   5.996   9.102 -0.1217  0.8684  1.4101
   41DOPE   C12 5165   3.563   6.203   9.097 -1.0072  0.5982 -0.2161
   41DOPE  H12A 5166   3.511   6.277   9.033  0.1697  0.3739 -1.4978
   41DOPE  H12B 5167   3.673   6.210   9.080 -1.0485 -1.7707 -1.9161
   41DOPE   C11 5168   3.514   6.214   9.242 -0.1250  0.2106 -0.3991
   41DOPE  H11A 5169   3.404   6.215   9.230 -0.3796 -0.6488  1.5195
   41DOPE  H11B 5170   3.543   6.317   9.272 -2.1085  0.8009 -0.4293
   41DOPE     P 5171   3.577   6.136   9.486  0.0950 -0.3145  0.1717
   41DOPE   O13 5172   3.628   6.274   9.506 -0.4298  0.3459 -0.7452
   41DOPE   O14 5173   3.653   6.025   9.549 -0.1462 -0.8111 -0.2705
   41DOPE   O11 5174   3.431   6.126   9.541 -0.5244  0.8009 -0.5646
   41DOPE   O12 5175   3.552   6.108   9.334  0.1694 -0.2107  0.7880
   41DOPE    C1 5176   3.314   6.091   9.460 -0.1268 -0.3902  0.4914
   41DOPE    HA 5177   3.342   6.013   9.387  1.2910  1.0863 -0.6178
   41DOPE    HB 5178   3.275   6.183   9.412 -1.5591 -0.6219  1.1618
   41DOPE    C2 5179   3.200   6.026   9.546 -0.1148 -0.2897  0.0377
   41DOPE    HS 5180   3.101   6.060   9.510 -0.9618  0.5113  2.8779
   41DOPE   O21 5181   3.210   6.072   9.687 -0.5004  0.2288 -0.4685
   41DOPE   C21 5182   3.184   6.193   9.707  0.3221  0.0639  0.3536
   41DOPE   O22 5183   3.135   6.277   9.632 -0.1938  0.3928  1.5069
   41DOPE   C22 5184   3.230   6.230   9.849 -0.7552  0.0003 -0.0900
   41DOPE   H2R 5185   3.261   6.336   9.860 -0.7659 -0.0775  0.7415
   41DOPE   H2S 5186   3.321   6.171   9.872 -0.8571 -0.4907 -0.9167
   41DOPE    C3 5187   3.201   5.866   9.541 -0.2033 -0.4902 -0.5894
   41DOPE    HX 5188   3.271   5.822   9.615 -1.5124  0.5496  1.3457
   41DOPE    HY 5189   3.228   5.847   9.435 -0.5535  0.8071 -0.9314
   41DOPE   O31 5190   3.064   5.827   9.561  0.5256  0.1567  0.0360
   41DOPE   C31 5191   3.036   5.702   9.533  0.4084 -0.3249 -0.6410
   41DOPE   O32 5192   3.112   5.621   9.478 -0.4546 -0.8952 -0.0990
   41DOPE   C32 5193   2.898   5.672   9.595 -0.6996 -0.0561  0.6363
   41DOPE   H2X 5194   2.845   5.764   9.629 -1.8125  0.3595 -1.9567
   41DOPE   H2Y 5195   2.844   5.626   9.509  1.1649 -0.7777 -0.1869
   41DOPE   C23 5196   3.109   6.218   9.945 -0.4507  0.0029  0.5637
   41DOPE   H3R 5197   3.070   6.114   9.953  1.6967 -0.8966 -0.0618
   41DOPE   H3S 5198   3.028   6.289   9.919  0.1573  0.4120 -0.2467
   41DOPE   C24 5199   3.137   6.259  10.087 -0.2059 -0.8400  0.0432
   41DOPE   H4R 5200   3.169   6.364  10.101  0.4600 -0.9384 -0.6392
   41DOPE   H4S 5201   3.224   6.200  10.122  2.4776  1.3482 -2.4435
   41DOPE   C25 5202   3.018   6.240  10.180 -0.1793  0.5446  0.4402
   41DOPE   H5R 5203   2.995   6.132  10.171  3.6514 -0.2519 -1.6195
   41DOPE   H5S 5204   2.937   6.297  10.129  0.2745 -0.3790 -1.3975
   41DOPE   C26 5205   3.070   6.272  10.323 -0.3719 -0.0334  0.5144
   41DOPE   H6R 5206   3.132   6.364  10.328 -0.4478 -0.0050  0.9356
   41DOPE   H6S 5207   3.138   6.189  10.350 -1.8641 -1.7857 -0.8378
   41DOPE   C27 5208   2.950   6.275  10.422 -0.6015  0.2803  0.0902
   41DOPE   H7R 5209   2.879   6.197  10.386  0.2842  0.5495 -2.4125
   41DOPE   H7S 5210   2.903   6.375  10.428 -1.2561 -0.1060  2.4150
   41DOPE   C28 5211   2.990   6.258  10.573 -0.1566 -0.4224  0.0226
   41DOPE   H8R 5212   3.056   6.347  10.578 -3.3790  2.0752  1.8706
   41DOPE   H8S 5213   3.048   6.164  10.587  1.6209  0.7830  1.3412
   41DOPE   C29 5214   2.882   6.256  10.681 -0.3405  0.0432  0.4593
   41DOPE   H9R 5215   2.777   6.251  10.650 -0.8747  1.1437  2.0030
   41DOPE  C210 5216   2.915   6.265  10.815 -0.3566 -0.6513 -0.3771
   41DOPE  H10R 5217   2.834   6.264  10.889 -1.0946  0.2012 -1.1438
   41DOPE  C211 5218   3.056   6.283  10.871 -0.5069 -0.3114 -0.4405
   41DOPE  H11R 5219   3.132   6.286  10.790 -0.8717  0.6618 -0.7647
   41DOPE  H11S 5220   3.090   6.198  10.934 -2.7036 -0.0452  1.2143
   41DOPE  C212 5221   3.070   6.415  10.952 -0.3479  0.0750 -0.1888
   41DOPE  H12R 5222   2.975   6.416  11.009 -1.0934 -1.5655 -1.3271
   41DOPE  H12S 5223   3.078   6.498  10.878  0.0350 -1.2071 -1.6457
   41DOPE  C213 5224   3.183   6.422  11.052  1.1652 -0.1206  0.3008
   41DOPE  H13R 5225   3.278   6.418  10.995  0.1657  1.1734 -1.5851
   41DOPE  H13S 5226   3.166   6.332  11.114  4.3860 -0.8229  0.3320
   41DOPE  C214 5227   3.174   6.559  11.134  0.2798  0.1463  0.2777
   41DOPE  H14R 5228   3.272   6.559  11.188  0.3622 -1.3976  0.1661
   41DOPE  H14S 5229   3.087   6.538  11.201 -0.1787 -1.3472 -0.7477
   41DOPE  C215 5230   3.139   6.681  11.048 -0.3935 -0.0025 -0.1212
   41DOPE  H15R 5231   3.039   6.664  11.002 -0.4629 -2.9058  0.8996
   41DOPE  H15S 5232   3.217   6.688  10.970  0.7502  4.2497  1.1079
   41DOPE  C216 5233   3.150   6.815  11.122 -0.1457  0.4501  0.2554
   41DOPE  H16R 5234   3.253   6.845  11.151 -0.5807  2.3170 -0.0195
   41DOPE  H16S 5235   3.099   6.808  11.221  1.4531 -3.5417  1.0075
   41DOPE  C217 5236   3.077   6.929  11.041  0.0521  0.3995  0.6207
   41DOPE  H17R 5237   2.977   6.895  11.007 -0.2142  2.0212 -0.3599
   41DOPE  H17S 5238   3.123   6.948  10.941 -1.0632  0.1736  0.0453
   41DOPE  C218 5239   3.072   7.062  11.104 -0.7234  0.7219 -0.2810
   41DOPE  H18R 5240   3.022   7.137  11.038 -1.3287  0.6132  0.0500
   41DOPE  H18S 5241   3.179   7.086  11.122 -0.6852 -0.7792  1.9013
   41DOPE  H18T 5242   3.028   7.048  11.205  3.1648 -0.2598  1.4502
   41DOPE   C33 5243   2.901   5.563   9.703  0.0947  0.8564 -0.1376
   41DOPE   H3X 5244   2.972   5.483   9.674 -1.9940 -1.3348  0.5061
   41DOPE   H3Y 5245   2.800   5.522   9.725  0.6187  0.2647  1.3561
   41DOPE   C34 5246   2.951   5.634   9.830  1.1976 -0.6677  0.0465
   41DOPE   H4X 5247   3.035   5.702   9.803  0.5536  0.7847  1.5198
   41DOPE   H4Y 5248   2.868   5.687   9.881  0.2795 -2.1954  0.1964
   41DOPE   C35 5249   3.003   5.538   9.937  0.6089 -0.1241 -0.3763
   41DOPE   H5X 5250   3.082   5.480   9.884 -0.4998  1.0321 -3.4771
   41DOPE   H5Y 5251   2.918   5.474   9.969 -0.7223  2.4811  1.6670
   41DOPE   C36 5252   3.030   5.618  10.065 -0.9825  0.3334 -0.3582
   41DOPE   H6X 5253   3.068   5.717  10.032 -0.3564  0.2150 -0.0053
   41DOPE   H6Y 5254   3.118   5.580  10.122  0.8904 -0.3021 -3.4272
   41DOPE   C37 5255   2.902   5.624  10.150  0.6758 -0.3297  0.3363
   41DOPE   H7X 5256   2.825   5.665  10.081  0.8173  1.7741  1.3738
   41DOPE   H7Y 5257   2.861   5.533  10.198  0.2726  0.7632  2.1668
   41DOPE   C38 5258   2.907   5.733  10.259 -0.2980 -0.1451  0.1443
   41DOPE   H8X 5259   2.808   5.748  10.308 -1.7450  0.1740 -2.6225
   41DOPE   H8Y 5260   2.943   5.831  10.222 -0.5976  0.8349  2.2682
   41DOPE   C39 5261   3.015   5.701  10.368  0.1401  0.3150  0.7264
   41DOPE   H9X 5262   3.107   5.662  10.322 -1.7353 -1.8351 -1.5233
   41DOPE  C310 5263   2.997   5.693  10.499 -0.2481 -0.4747  0.0173
   41DOPE  H10X 5264   3.078   5.656  10.563  1.4075  1.0454 -1.0743
   41DOPE  C311 5265   2.877   5.732  10.578 -0.8790 -0.8980  0.2124
   41DOPE  H11X 5266   2.794   5.770  10.514  0.8994  1.4267 -0.8587
   41DOPE  H11Y 5267   2.826   5.644  10.622 -1.1903 -0.3015  1.0841
   41DOPE  C312 5268   2.907   5.830  10.694  0.1757 -0.0795 -0.0246
   41DOPE  H12X 5269   2.819   5.875  10.745  1.0698 -0.5872  2.0558
   41DOPE  H12Y 5270   2.955   5.920  10.648 -0.3056 -0.0764 -0.5398
   41DOPE  C313 5271   2.993   5.773  10.808 -0.4188 -0.3215  0.0419
   41DOPE  H13X 5272   2.936   5.686  10.847 -2.7477  0.3648 -1.5956
   41DOPE  H13Y 5273   3.085   5.741  10.755 -0.8050  0.5369 -1.1969
   41DOPE  C314 5274   3.012   5.866  10.930 -0.1584 -0.1686  0.0030
   41DOPE  H14X 5275   3.038   5.967  10.892 -0.1469 -0.4324 -0.7180
   41DOPE  H14Y 5276   3.094   5.836  10.998  0.7856  1.3854 -0.4109
   41DOPE  C315 5277   2.880   5.866  11.020 -0.5430 -0.5906 -0.3916
   41DOPE  H15X 5278   2.876   5.774  11.082 -0.0897 -0.3844 -0.0463
   41DOPE  H15Y 5279   2.801   5.868  10.943 -1.8902 -0.1555  0.9488
   41DOPE  C316 5280   2.849   5.996  11.095 -0.1357  0.1637  0.3449
   41DOPE  H16X 5281   2.931   6.070  11.080 -0.4334  0.7327  1.3759
   41DOPE  H16Y 5282   2.837   5.968  11.202 -0.9877  0.8009  0.4313
   41DOPE  C317 5283   2.716   6.051  11.060  0.1837  0.0147 -0.1647
   41DOPE  H17X 5284   2.716   6.083  10.953 -0.3914  2.4052  0.5018
   41DOPE  H17Y 5285   2.636   5.976  11.077  0.5786 -0.3769 -0.0262
   41DOPE  C318 5286   2.706   6.173  11.156  0.2224  0.0301  0.5177
   41DOPE  H18X 5287   2.772   6.249  11.110 -1.5871  1.8146  0.7149
   41DOPE  H18Y 5288   2.604   6.216  11.149  0.0564  0.6254  4.3407
   41DOPE  H18Z 5289   2.736   6.157  11.262  0.9692 -0.8928  0.1831
   42DOPE     N 5290   0.839   4.973   8.587 -0.5933 -0.6826 -0.1547
   42DOPE   HN1 5291   0.873   4.962   8.685 -2.1522  1.8176  0.7374
   42DOPE   HN2 5292   0.740   5.003   8.592 -0.3923 -0.1888  1.9931
   42DOPE   HN3 5293   0.838   4.886   8.530  0.7198 -0.8861  0.0919
   42DOPE   C12 5294   0.933   5.070   8.516  0.4918 -0.5247  0.2818
   42DOPE  H12A 5295   0.895   5.173   8.532  0.7543 -0.7661  2.8410
   42DOPE  H12B 5296   0.922   5.051   8.407 -1.7041 -1.1208  0.5501
   42DOPE   C11 5297   1.080   5.059   8.559  0.0583 -0.2102  0.6565
   42DOPE  H11A 5298   1.134   5.150   8.524  0.5616 -0.5952  0.4226
   42DOPE  H11B 5299   1.126   4.978   8.499  0.0513  0.7997 -0.7689
   42DOPE     P 5300   1.249   5.016   8.749 -0.3671 -0.2178  0.1726
   42DOPE   O13 5301   1.339   5.114   8.683  0.2889 -0.3853  0.2052
   42DOPE   O14 5302   1.285   4.875   8.734 -0.2773  0.2706  0.1411
   42DOPE   O11 5303   1.248   5.052   8.902  0.4219  0.0633  0.7214
   42DOPE   O12 5304   1.101   5.042   8.700 -0.6984 -0.0248  0.5471
   42DOPE    C1 5305   1.211   5.185   8.942  0.4293 -0.3754  0.5581
   42DOPE    HA 5306   1.155   5.236   8.861  1.6955 -2.3560 -1.6804
   42DOPE    HB 5307   1.304   5.235   8.978  0.4696  0.7136 -0.9122
   42DOPE    C2 5308   1.116   5.177   9.071  0.1825 -0.1577  0.2129
   42DOPE    HS 5309   1.092   5.283   9.093 -2.3732 -0.8343  1.0113
   42DOPE   O21 5310   1.190   5.122   9.181  0.0317  0.3122  0.2658
   42DOPE   C21 5311   1.223   5.193   9.284  0.3669 -0.7189  0.4005
   42DOPE   O22 5312   1.194   5.311   9.298  0.4256 -0.0910 -0.2441
   42DOPE   C22 5313   1.298   5.100   9.388  0.3631 -0.5875  0.3671
   42DOPE   H2R 5314   1.357   5.027   9.329 -0.7685 -0.8882 -0.4287
   42DOPE   H2S 5315   1.221   5.041   9.441 -1.4650  1.1312 -0.2419
   42DOPE    C3 5316   0.990   5.092   9.047 -0.3064 -0.0469 -0.0487
   42DOPE    HX 5317   1.028   4.990   9.027 -0.4791 -0.4214  1.3901
   42DOPE    HY 5318   0.937   5.127   8.956  0.7990  3.3860  0.4684
   42DOPE   O31 5319   0.906   5.092   9.166  0.1034  0.0039 -0.4783
   42DOPE   C31 5320   0.883   4.980   9.234  0.1580  0.2355  0.4836
   42DOPE   O32 5321   0.914   4.866   9.196  0.1070  0.3182 -0.8550
   42DOPE   C32 5322   0.824   5.007   9.370  0.0625 -0.3549  0.1358
   42DOPE   H2X 5323   0.793   5.112   9.389  3.0415  0.8688 -1.1491
   42DOPE   H2Y 5324   0.733   4.943   9.371  0.5695 -1.2920 -3.1314
   42DOPE   C23 5325   1.390   5.172   9.484  0.1271 -0.5114  0.1928
   42DOPE   H3R 5326   1.330   5.256   9.525 -0.3643 -0.1607 -1.1750
   42DOPE   H3S 5327   1.482   5.217   9.440  0.3232 -1.5612 -0.5234
   42DOPE   C24 5328   1.423   5.077   9.606 -0.3905 -0.2077  0.2182
   42DOPE   H4R 5329   1.492   5.136   9.670  0.0498 -0.3441 -0.1326
   42DOPE   H4S 5330   1.477   4.988   9.570  0.8779  0.1786  1.1042
   42DOPE   C25 5331   1.316   5.037   9.701  0.0181  1.0765  0.3745
   42DOPE   H5R 5332   1.255   4.961   9.648 -0.4714  0.9262  1.1419
   42DOPE   H5S 5333   1.244   5.118   9.726  0.1161  0.8228  1.5372
   42DOPE   C26 5334   1.373   4.965   9.825 -0.1627  0.3215 -0.4485
   42DOPE   H6R 5335   1.454   4.893   9.800  0.7512  0.7213  1.1650
   42DOPE   H6S 5336   1.299   4.899   9.875  0.1671 -1.8518 -2.6599
   42DOPE   C27 5337   1.440   5.072   9.918 -0.8720  0.7403 -0.0015
   42DOPE   H7R 5338   1.378   5.164   9.910 -3.5891 -0.9315  0.4406
   42DOPE   H7S 5339   1.543   5.093   9.883 -0.8569  1.4775  0.4549
   42DOPE   C28 5340   1.449   5.016  10.062  0.3966  0.5236  0.4590
   42DOPE   H8R 5341   1.496   4.916  10.049 -0.0244  0.5497 -1.6188
   42DOPE   H8S 5342   1.346   4.990  10.096  0.4254 -0.8257 -0.3736
   42DOPE   C29 5343   1.533   5.105  10.150 -0.5467  0.1657  0.1256
   42DOPE   H9R 5344   1.622   5.142  10.097 -1.3228 -0.3981 -1.6474
   42DOPE  C210 5345   1.497   5.154  10.270  0.3738 -0.1906  0.1368
   42DOPE  H10R 5346   1.565   5.219  10.328 -1.5387  0.2753  1.9854
   42DOPE  C211 5347   1.366   5.130  10.337  1.0122 -0.0727 -0.7832
   42DOPE  H11R 5348   1.296   5.073  10.272  1.0099  1.3598 -2.1034
   42DOPE  H11S 5349   1.313   5.225  10.363  0.6766 -0.2838 -0.6858
   42DOPE  C212 5350   1.381   5.030  10.465  0.7313 -0.6131  0.5442
   42DOPE  H12R 5351   1.399   5.094  10.554 -0.2937 -0.2615  0.5150
   42DOPE  H12S 5352   1.462   4.958  10.442  0.7538 -1.0190  1.8374
   42DOPE  C213 5353   1.249   4.940  10.482 -0.4482  0.1700 -0.2568
   42DOPE  H13R 5354   1.249   4.881  10.387  0.1369  1.1563 -0.8856
   42DOPE  H13S 5355   1.159   5.005  10.487 -1.1249 -0.6446 -1.3320
   42DOPE  C214 5356   1.276   4.842  10.595  0.2281 -0.2364  0.6051
   42DOPE  H14R 5357   1.381   4.806  10.584  0.6717  1.6196 -2.6069
   42DOPE  H14S 5358   1.207   4.755  10.591 -1.0720  0.7907 -0.1708
   42DOPE  C215 5359   1.245   4.899  10.734  0.3210 -0.8097  0.2048
   42DOPE  H15R 5360   1.141   4.934  10.748  0.9357  0.5786  1.6892
   42DOPE  H15S 5361   1.308   4.989  10.746 -1.3699  0.2626  1.4030
   42DOPE  C216 5362   1.275   4.795  10.846 -0.5983  0.7524 -0.2987
   42DOPE  H16R 5363   1.384   4.779  10.827 -1.2332 -1.8176 -2.2067
   42DOPE  H16S 5364   1.228   4.698  10.820  0.1173 -0.0244  1.1745
   42DOPE  C217 5365   1.240   4.855  10.984  0.4731  0.4917 -0.2657
   42DOPE  H17R 5366   1.270   4.962  10.994 -1.0850  0.8730  0.6134
   42DOPE  H17S 5367   1.290   4.799  11.066 -0.5139 -0.6083 -0.4070
   42DOPE  C218 5368   1.091   4.836  11.019 -0.0275  0.2165 -0.5162
   42DOPE  H18R 5369   1.065   4.728  11.007 -0.7925  0.6116 -3.1681
   42DOPE  H18S 5370   1.030   4.895  10.947  0.9613  2.4452  0.3890
   42DOPE  H18T 5371   1.072   4.872  11.122  0.2621 -1.8391  0.3173
   42DOPE   C33 5372   0.922   4.957   9.477 -0.8048  0.3313  0.6002
   42DOPE   H3X 5373   1.011   5.021   9.495 -0.2049 -0.1118 -0.6958
   42DOPE   H3Y 5374   0.957   4.858   9.441 -2.9798 -0.0336 -0.6792
   42DOPE   C34 5375   0.860   4.943   9.616 -0.4112 -0.3643 -0.0518
   42DOPE   H4X 5376   0.830   5.046   9.646  1.7355  0.8793 -1.8482
   42DOPE   H4Y 5377   0.774   4.877   9.593  0.0963 -0.6970 -1.0583
   42DOPE   C35 5378   0.942   4.871   9.721  0.0634 -0.5429  0.4066
   42DOPE   H5X 5379   1.028   4.937   9.744 -0.9420  0.4445  1.4266
   42DOPE   H5Y 5380   0.976   4.777   9.672 -1.2055 -1.0534  0.4837
   42DOPE   C36 5381   0.871   4.847   9.851 -0.4946  0.1892 -0.2596
   42DOPE   H6X 5382   0.780   4.784   9.842 -0.9902  0.3586  2.6635
   42DOPE   H6Y 5383   0.841   4.942   9.901 -2.5653  1.1543 -3.0631
   42DOPE   C37 5384   0.966   4.765   9.950 -0.2472  0.6822 -0.9552
   42DOPE   H7X 5385   1.008   4.670   9.909  1.4077  0.4813  1.0489
   42DOPE   H7Y 5386   1.062   4.817   9.968  0.7374 -1.0064 -1.0908
   42DOPE   C38 5387   0.905   4.738  10.097 -0.1504 -0.0045  0.2681
   42DOPE   H8X 5388   0.960   4.659  10.152 -0.3767 -2.6023 -2.9521
   42DOPE   H8Y 5389   0.799   4.708  10.082 -0.4515  0.4473  1.3765
   42DOPE   C39 5390   0.896   4.862  10.177  0.3289 -0.0494  0.4589
   42DOPE   H9X 5391   0.946   4.946  10.128 -1.7063 -0.0486 -1.8103
   42DOPE  C310 5392   0.828   4.878  10.296  0.8293 -0.4941 -0.5085
   42DOPE  H10X 5393   0.830   4.982  10.330 -0.9283 -1.4774  3.1273
   42DOPE  C311 5394   0.759   4.771  10.377 -0.1213 -0.0178 -0.4833
   42DOPE  H11X 5395   0.652   4.797  10.394 -0.8460 -1.4813 -2.3916
   42DOPE  H11Y 5396   0.758   4.671  10.328 -1.6280 -1.0085  1.4165
   42DOPE  C312 5397   0.845   4.763  10.513 -0.8854 -0.3717 -0.0945
   42DOPE  H12X 5398   0.822   4.859  10.565 -0.5173 -0.1206 -0.3904
   42DOPE  H12Y 5399   0.954   4.762  10.492 -0.5514  1.7330  1.2805
   42DOPE  C313 5400   0.788   4.662  10.608  0.1604 -0.1174  0.5170
   42DOPE  H13X 5401   0.687   4.694  10.643  0.4288 -0.7862  1.9654
   42DOPE  H13Y 5402   0.763   4.565  10.560  0.4639 -0.6859  1.4973
   42DOPE  C314 5403   0.867   4.634  10.737 -0.2249  0.2051  0.4548
   42DOPE  H14X 5404   0.855   4.724  10.802 -0.2189  0.7729 -0.3178
   42DOPE  H14Y 5405   0.973   4.634  10.704  0.2907 -1.3010  1.9905
   42DOPE  C315 5406   0.842   4.496  10.787 -0.2378  0.3692  0.5741
   42DOPE  H15X 5407   0.865   4.418  10.711 -1.7416 -0.5638  1.0310
   42DOPE  H15Y 5408   0.731   4.489  10.798 -0.5568  2.4432 -0.8653
   42DOPE  C316 5409   0.924   4.459  10.915 -0.0747  0.0188  0.4268
   42DOPE  H16X 5410   0.920   4.541  10.990  1.2070 -0.4698  1.0542
   42DOPE  H16Y 5411   1.027   4.440  10.879  0.0204 -0.1461  0.7850
   42DOPE  C317 5412   0.870   4.340  10.977 -0.3211  0.4450 -0.5589
   42DOPE  H17X 5413   0.777   4.372  11.028 -0.0430  0.7318 -0.2303
   42DOPE  H17Y 5414   0.840   4.265  10.900  0.9375  0.5304 -1.1623
   42DOPE  C318 5415   0.975   4.278  11.073 -0.3635 -0.2407 -0.3082
   42DOPE  H18X 5416   0.992   4.353  11.153 -3.6879 -0.0917  0.4029
   42DOPE  H18Y 5417   0.951   4.185  11.129  1.6176  0.4225  1.8144
   42DOPE  H18Z 5418   1.073   4.248  11.028 -1.7407 -1.3828 -2.7396
   43DOPE     N 5419   2.365   4.911   9.327 -1.0136 -0.2260 -0.4888
   43DOPE   HN1 5420   2.369   5.009   9.291  2.9051 -0.0737 -0.0986
   43DOPE   HN2 5421   2.393   4.844   9.252 -2.1239 -2.8123  1.2501
   43DOPE   HN3 5422   2.269   4.881   9.351 -1.6248  0.2438 -2.1819
   43DOPE   C12 5423   2.450   4.873   9.446  0.3901  0.2161  0.7474
   43DOPE  H12A 5424   2.410   4.919   9.539 -0.6094 -2.0316  1.4878
   43DOPE  H12B 5425   2.550   4.918   9.429  0.1776  0.7041  0.7680
   43DOPE   C11 5426   2.462   4.719   9.464  0.5398  0.7293 -0.1403
   43DOPE  H11A 5427   2.370   4.683   9.516  1.2450 -1.2055 -0.1433
   43DOPE  H11B 5428   2.549   4.706   9.532  1.4029  1.5289 -1.0754
   43DOPE     P 5429   2.391   4.541   9.287 -0.1471 -0.2911 -0.3666
   43DOPE   O13 5430   2.455   4.474   9.170  0.2125 -0.0380 -0.0391
   43DOPE   O14 5431   2.261   4.612   9.255  0.0102  0.5380 -1.4429
   43DOPE   O11 5432   2.371   4.443   9.410  0.0523 -0.5120  1.0610
   43DOPE   O12 5433   2.483   4.651   9.343 -0.1113 -0.4520  0.1265
   43DOPE    C1 5434   2.487   4.357   9.445 -0.3979 -0.1896 -0.3819
   43DOPE    HA 5435   2.586   4.403   9.426  0.4081  0.2381  3.8506
   43DOPE    HB 5436   2.494   4.269   9.377  0.5557 -0.1205 -0.3819
   43DOPE    C2 5437   2.469   4.292   9.594 -0.5129 -0.2513 -0.0352
   43DOPE    HS 5438   2.379   4.227   9.597 -1.7464  1.3487 -0.9916
   43DOPE   O21 5439   2.464   4.392   9.695 -0.1787 -0.2546 -0.4317
   43DOPE   C21 5440   2.345   4.420   9.749  0.0272 -0.4024  0.0397
   43DOPE   O22 5441   2.236   4.372   9.721  0.0712  0.1885 -0.2708
   43DOPE   C22 5442   2.365   4.510   9.865  0.2124 -0.3099 -0.0342
   43DOPE   H2R 5443   2.365   4.617   9.835 -1.6226 -0.3935 -0.4757
   43DOPE   H2S 5444   2.467   4.500   9.908 -0.1793  0.9994  1.2866
   43DOPE    C3 5445   2.589   4.206   9.623  0.3908 -0.2090  0.2417
   43DOPE    HX 5446   2.681   4.264   9.601 -0.7111  0.7802 -2.0398
   43DOPE    HY 5447   2.579   4.129   9.543  0.6105 -0.6764  0.6532
   43DOPE   O31 5448   2.583   4.150   9.752  0.4700 -0.7168 -0.9277
   43DOPE   C31 5449   2.668   4.062   9.795 -0.6859 -0.4465 -0.0693
   43DOPE   O32 5450   2.748   4.000   9.724  0.0553  0.0877 -0.2432
   43DOPE   C32 5451   2.649   4.050   9.951 -0.3083  0.0502  1.1934
   43DOPE   H2X 5452   2.653   4.155   9.986 -0.9831  0.3546  0.4098
   43DOPE   H2Y 5453   2.546   4.009   9.967 -0.0960  0.4564  3.9523
   43DOPE   C23 5454   2.247   4.508   9.966  0.4707 -0.0490 -0.3088
   43DOPE   H3R 5455   2.218   4.409  10.006 -0.1790  0.3359  0.1932
   43DOPE   H3S 5456   2.154   4.547   9.918 -1.1191 -1.6639  1.3466
   43DOPE   C24 5457   2.275   4.608  10.075 -0.4229  0.1539  0.2696
   43DOPE   H4R 5458   2.184   4.667  10.096  0.4965  1.0697  1.9604
   43DOPE   H4S 5459   2.343   4.687  10.034  1.7561 -1.5436  0.4089
   43DOPE   C25 5460   2.314   4.545  10.208 -0.3006 -0.4705 -0.1407
   43DOPE   H5R 5461   2.260   4.448  10.214 -0.7960 -0.2774 -1.2371
   43DOPE   H5S 5462   2.283   4.608  10.294 -0.1461  0.8364 -1.0268
   43DOPE   C26 5463   2.468   4.521  10.228  0.0253  0.1826  0.4809
   43DOPE   H6R 5464   2.525   4.609  10.192 -1.2567  0.7456 -0.2502
   43DOPE   H6S 5465   2.511   4.432  10.176  0.1159  0.3661  0.2424
   43DOPE   C27 5466   2.509   4.497  10.374 -0.2517 -0.3584  0.1297
   43DOPE   H7R 5467   2.514   4.597  10.423 -0.5240 -0.2219 -0.1178
   43DOPE   H7S 5468   2.612   4.458  10.365  0.6667  2.0205 -0.4386
   43DOPE   C28 5469   2.422   4.402  10.458 -0.5209 -0.2379 -0.5688
   43DOPE   H8R 5470   2.315   4.429  10.470 -0.6389 -1.3498  1.2851
   43DOPE   H8S 5471   2.461   4.394  10.561 -2.0687 -1.0444 -0.0185
   43DOPE   C29 5472   2.433   4.260  10.401 -0.1020  0.6290  0.3670
   43DOPE   H9R 5473   2.403   4.247  10.296 -3.2020  0.6033  1.1610
   43DOPE  C210 5474   2.473   4.146  10.462 -0.1240  0.7951 -0.8878
   43DOPE  H10R 5475   2.483   4.054  10.401 -1.5783 -0.1603  0.2640
   43DOPE  C211 5476   2.511   4.130  10.610  0.2746 -0.3800 -0.3133
   43DOPE  H11R 5477   2.533   4.228  10.658  0.9350 -0.0103 -1.3428
   43DOPE  H11S 5478   2.600   4.066  10.627 -0.3116 -1.6137 -1.6689
   43DOPE  C212 5479   2.393   4.080  10.703 -0.9143 -0.1917  0.2129
   43DOPE  H12R 5480   2.358   3.978  10.674  0.9771 -0.3583 -1.7150
   43DOPE  H12S 5481   2.306   4.148  10.692 -1.1137 -0.0831  2.0673
   43DOPE  C213 5482   2.413   4.071  10.860  0.8439  0.3359  0.2532
   43DOPE  H13R 5483   2.326   4.013  10.899  1.1433 -0.7986 -0.6912
   43DOPE  H13S 5484   2.411   4.171  10.908  0.3297  0.4350  0.0313
   43DOPE  C214 5485   2.542   3.998  10.897  0.5454 -0.9167 -0.5876
   43DOPE  H14R 5486   2.601   3.974  10.806  1.8732 -3.3540  0.7946
   43DOPE  H14S 5487   2.507   3.897  10.929  1.3756 -0.6748  1.1961
   43DOPE  C215 5488   2.620   4.065  11.009  0.5999 -0.9262  0.5404
   43DOPE  H15R 5489   2.560   4.085  11.100  0.4186  0.0236  0.2246
   43DOPE  H15S 5490   2.651   4.165  10.974 -1.3543 -0.5948 -0.4064
   43DOPE  C216 5491   2.738   3.981  11.061  0.0648 -0.2031  0.7500
   43DOPE  H16R 5492   2.814   3.963  10.982 -0.8056 -0.0997 -0.1292
   43DOPE  H16S 5493   2.696   3.881  11.081  3.4094 -1.8503  0.1970
   43DOPE  C217 5494   2.804   4.046  11.181  0.0768  0.2465 -0.3333
   43DOPE  H17R 5495   2.828   4.153  11.160 -1.1009  1.1091  2.3169
   43DOPE  H17S 5496   2.907   4.007  11.195  0.4496  1.0804 -0.6771
   43DOPE  C218 5497   2.725   4.031  11.314 -0.3943  0.1361  0.6856
   43DOPE  H18R 5498   2.768   4.091  11.397  0.5785 -0.8025  0.8917
   43DOPE  H18S 5499   2.716   3.923  11.338  1.5638 -0.1883  0.0725
   43DOPE  H18T 5500   2.621   4.069  11.299 -0.5213 -0.2126  0.6635
   43DOPE   C33 5501   2.748   3.959  10.013  0.5155 -0.2062 -0.4200
   43DOPE   H3X 5502   2.850   3.996   9.989 -0.2034  0.4710 -2.7272
   43DOPE   H3Y 5503   2.759   3.855   9.975  0.7977 -0.0799 -0.6922
   43DOPE   C34 5504   2.717   3.938  10.160 -0.1202  0.0357  0.2277
   43DOPE   H4X 5505   2.740   4.027  10.223 -1.9055  1.1515 -0.6167
   43DOPE   H4Y 5506   2.606   3.931  10.170 -0.2693  0.9904 -0.5856
   43DOPE   C35 5507   2.776   3.817  10.225 -0.6118  0.3800 -0.3893
   43DOPE   H5X 5508   2.884   3.819  10.199 -0.3937 -1.9268  0.1220
   43DOPE   H5Y 5509   2.735   3.724  10.179 -0.3326  0.1598 -0.1922
   43DOPE   C36 5510   2.750   3.791  10.374 -0.4576  0.3921  0.0641
   43DOPE   H6X 5511   2.751   3.889  10.426  3.6825 -0.0896  1.2914
   43DOPE   H6Y 5512   2.831   3.719  10.399 -0.7987 -0.5385 -1.3883
   43DOPE   C37 5513   2.616   3.718  10.395 -0.4558  0.1057 -0.7043
   43DOPE   H7X 5514   2.537   3.787  10.356 -1.0887  0.5059  1.1770
   43DOPE   H7Y 5515   2.612   3.623  10.337  1.8301 -0.0516 -0.6623
   43DOPE   C38 5516   2.580   3.692  10.549  0.5924  0.2994 -0.1478
   43DOPE   H8X 5517   2.473   3.663  10.555  0.4964  0.3601 -1.3312
   43DOPE   H8Y 5518   2.584   3.786  10.609  2.7174  0.4601 -0.4467
   43DOPE   C39 5519   2.667   3.584  10.624 -0.5065  0.1820  0.2595
   43DOPE   H9X 5520   2.772   3.590  10.591 -0.5722 -2.1556 -0.5170
   43DOPE  C310 5521   2.616   3.495  10.717 -0.1975  0.0776 -0.9324
   43DOPE  H10X 5522   2.680   3.416  10.758  0.2956 -0.2454 -2.2551
   43DOPE  C311 5523   2.478   3.474  10.777 -0.5611 -0.0573 -0.0149
   43DOPE  H11X 5524   2.421   3.566  10.750  1.4644  1.0641 -0.6367
   43DOPE  H11Y 5525   2.452   3.379  10.726  0.6331  0.5892 -1.9133
   43DOPE  C312 5526   2.482   3.432  10.932  0.5065 -0.3740  0.4971
   43DOPE  H12X 5527   2.522   3.520  10.987  2.0418 -1.5543  1.3786
   43DOPE  H12Y 5528   2.554   3.348  10.949  1.7620  0.6644  0.4525
   43DOPE  C313 5529   2.341   3.400  10.994 -0.3279 -0.2810 -0.3764
   43DOPE  H13X 5530   2.271   3.482  10.970  0.0526  0.1177 -0.1350
   43DOPE  H13Y 5531   2.301   3.312  10.939  0.7254 -2.0236  1.5148
   43DOPE  C314 5532   2.365   3.365  11.140  0.6792 -0.5595 -0.4645
   43DOPE  H14X 5533   2.384   3.460  11.193  0.0761  0.1084 -1.4155
   43DOPE  H14Y 5534   2.452   3.297  11.152 -1.4398 -3.5796 -0.8600
   43DOPE  C315 5535   2.253   3.281  11.199 -0.0320 -0.4338 -0.4340
   43DOPE  H15X 5536   2.237   3.194  11.132 -0.0349 -0.5779 -0.2443
   43DOPE  H15Y 5537   2.164   3.347  11.189 -0.2992 -0.6693  0.3192
   43DOPE  C316 5538   2.273   3.242  11.351 -0.0560 -0.5642  0.3045
   43DOPE  H16X 5539   2.253   3.335  11.408  0.1738  0.4331 -1.1763
   43DOPE  H16Y 5540   2.382   3.227  11.364 -0.1631 -0.4893  1.3395
   43DOPE  C317 5541   2.178   3.131  11.392 -0.5194  0.3506 -0.7369
   43DOPE  H17X 5542   2.197   3.028  11.353 -2.1192 -0.1873 -0.1551
   43DOPE  H17Y 5543   2.198   3.118  11.501 -1.1806 -0.9002 -0.7454
   43DOPE  C318 5544   2.030   3.153  11.361 -0.3958 -0.1767  0.4708
   43DOPE  H18X 5545   1.954   3.127  11.438 -1.5088  0.1179 -0.4986
   43DOPE  H18Y 5546   2.024   3.263  11.347  1.0840  0.1430  2.0507
   43DOPE  H18Z 5547   2.001   3.101  11.267 -0.2280  0.2149  0.1998
   44DOPE     N 5548   3.311   1.566   8.717 -0.0242  0.6213  0.5640
   44DOPE   HN1 5549   3.315   1.467   8.749 -0.7346  0.9940  1.8713
   44DOPE   HN2 5550   3.296   1.644   8.783  1.2934 -0.0033  1.6610
   44DOPE   HN3 5551   3.237   1.575   8.644 -0.4925  0.5809  1.0275
   44DOPE   C12 5552   3.447   1.588   8.649 -0.0690 -0.1879  0.4203
   44DOPE  H12A 5553   3.431   1.620   8.544  0.2969  0.2958  0.5031
   44DOPE  H12B 5554   3.502   1.492   8.652 -0.3839 -0.4034 -0.6407
   44DOPE   C11 5555   3.526   1.694   8.726 -0.7315 -0.1099 -0.0722
   44DOPE  H11A 5556   3.627   1.695   8.680 -2.0140 -1.7415 -3.1910
   44DOPE  H11B 5557   3.547   1.660   8.830  0.1855  1.7046  0.3814
   44DOPE     P 5558   3.506   1.958   8.759  0.2267  0.0558  0.5376
   44DOPE   O13 5559   3.412   2.066   8.742  0.5109 -0.2753 -0.5024
   44DOPE   O14 5560   3.638   1.986   8.693  0.0448 -0.2299  0.0814
   44DOPE   O11 5561   3.536   1.944   8.917  0.5505 -0.4516 -0.0708
   44DOPE   O12 5562   3.453   1.815   8.707  0.4057 -0.3094 -0.1931
   44DOPE    C1 5563   3.441   1.885   8.997 -0.5698 -0.6791  0.4114
   44DOPE    HA 5564   3.424   1.784   8.954 -1.9285  0.2052 -1.2623
   44DOPE    HB 5565   3.350   1.947   8.979  0.1394  0.6509  1.2374
   44DOPE    C2 5566   3.488   1.899   9.149  0.0761  0.7012 -0.2741
   44DOPE    HS 5567   3.408   1.849   9.208 -0.9346  3.5600  0.9734
   44DOPE   O21 5568   3.514   2.031   9.195 -0.5840  0.0168 -0.3609
   44DOPE   C21 5569   3.413   2.095   9.247  1.0593 -0.1361 -0.2511
   44DOPE   O22 5570   3.300   2.052   9.260  0.2453 -0.3777  0.2884
   44DOPE   C22 5571   3.467   2.234   9.280  0.5200  0.1746  0.9551
   44DOPE   H2R 5572   3.383   2.304   9.298 -1.6685 -2.1320  0.1865
   44DOPE   H2S 5573   3.540   2.270   9.204  0.8131  0.6213  1.4424
   44DOPE    C3 5574   3.619   1.817   9.169  0.2409  0.2219 -0.3925
   44DOPE    HX 5575   3.710   1.866   9.129  0.1554 -0.0665 -0.9507
   44DOPE    HY 5576   3.616   1.719   9.116 -1.0663  1.0508 -1.9337
   44DOPE   O31 5577   3.643   1.802   9.306  0.0511  0.3438 -0.1530
   44DOPE   C31 5578   3.646   1.679   9.361  0.3761  0.0242  0.3596
   44DOPE   O32 5579   3.647   1.573   9.304  0.4430  0.5041  0.8386
   44DOPE   C32 5580   3.643   1.687   9.517  0.1081  0.1897  0.5859
   44DOPE   H2X 5581   3.737   1.737   9.549  0.8410 -0.0707 -1.0820
   44DOPE   H2Y 5582   3.555   1.751   9.542  0.4053  0.7331  0.2679
   44DOPE   C23 5583   3.543   2.227   9.412  0.2082  0.4308  0.1698
   44DOPE   H3R 5584   3.607   2.316   9.427 -2.2151  2.7375 -2.1070
   44DOPE   H3S 5585   3.597   2.131   9.427 -2.1840 -0.9791  0.4358
   44DOPE   C24 5586   3.438   2.225   9.529 -0.1839 -1.1600 -0.2539
   44DOPE   H4R 5587   3.385   2.128   9.541 -0.0255 -1.1794  0.2995
   44DOPE   H4S 5588   3.358   2.299   9.506 -0.3228 -1.1515  0.2613
   44DOPE   C25 5589   3.496   2.271   9.662  0.2483  0.0069  0.7234
   44DOPE   H5R 5590   3.541   2.371   9.648 -0.3648  0.2451  0.4381
   44DOPE   H5S 5591   3.573   2.203   9.704  0.3436  0.0171  0.5650
   44DOPE   C26 5592   3.376   2.289   9.760 -0.4422  0.0862  0.1215
   44DOPE   H6R 5593   3.337   2.185   9.773  1.4235 -0.6335  0.3534
   44DOPE   H6S 5594   3.296   2.355   9.721 -1.6207 -1.3192  0.0703
   44DOPE   C27 5595   3.424   2.359   9.892 -0.4532  0.3572 -0.0890
   44DOPE   H7R 5596   3.332   2.392   9.943 -1.1734  3.4308 -3.0298
   44DOPE   H7S 5597   3.476   2.452   9.861  2.2440 -0.5072  1.4625
   44DOPE   C28 5598   3.497   2.256   9.980  0.4259 -0.5105  0.6197
   44DOPE   H8R 5599   3.584   2.213   9.926  0.3514  1.7291 -1.4508
   44DOPE   H8S 5600   3.428   2.174  10.010 -2.1059  0.9547 -0.8759
   44DOPE   C29 5601   3.546   2.315  10.109  0.3902  0.1187  0.0556
   44DOPE   H9R 5602   3.616   2.400  10.100 -0.3862  1.1970  3.0407
   44DOPE  C210 5603   3.511   2.287  10.237 -0.2647  0.5873 -0.1463
   44DOPE  H10R 5604   3.555   2.352  10.314  1.0320 -0.0283 -0.3351
   44DOPE  C211 5605   3.402   2.193  10.295 -0.3605  0.0291  1.0527
   44DOPE  H11R 5606   3.444   2.090  10.294 -0.9595 -0.2145  0.7013
   44DOPE  H11S 5607   3.317   2.181  10.225 -0.3812  0.4720  0.9995
   44DOPE  C212 5608   3.346   2.222  10.433 -0.0406 -0.7964  0.1658
   44DOPE  H12R 5609   3.266   2.158  10.476  0.6046 -0.8917  1.2506
   44DOPE  H12S 5610   3.300   2.323  10.441 -0.6546 -0.7522 -2.8183
   44DOPE  C213 5611   3.439   2.212  10.556 -0.1127 -0.2285  0.1801
   44DOPE  H13R 5612   3.541   2.243  10.524  0.7384 -2.9379  0.0374
   44DOPE  H13S 5613   3.459   2.104  10.571  2.1052 -0.0822 -1.1857
   44DOPE  C214 5614   3.382   2.281  10.682  0.7956 -0.2186  0.0722
   44DOPE  H14R 5615   3.286   2.229  10.702  0.2993  0.7405  0.2364
   44DOPE  H14S 5616   3.350   2.384  10.656 -2.5007 -1.3511 -0.9883
   44DOPE  C215 5617   3.479   2.289  10.800  0.0845 -0.2680 -0.3006
   44DOPE  H15R 5618   3.561   2.351  10.760 -1.4788  1.9504 -0.2391
   44DOPE  H15S 5619   3.511   2.190  10.839  1.6651  0.3533  0.0477
   44DOPE  C216 5620   3.422   2.361  10.925  0.6742  0.6862  0.1502
   44DOPE  H16R 5621   3.330   2.307  10.956  0.3887  0.1704 -1.4762
   44DOPE  H16S 5622   3.404   2.466  10.893  1.3338  0.7293 -0.1099
   44DOPE  C217 5623   3.522   2.366  11.042  0.6367  0.1660  0.2389
   44DOPE  H17R 5624   3.621   2.393  11.000 -0.8778  2.8642 -1.9253
   44DOPE  H17S 5625   3.520   2.266  11.090 -1.1293 -0.3504 -0.8200
   44DOPE  C218 5626   3.482   2.472  11.154  0.3734 -0.5638  0.5953
   44DOPE  H18R 5627   3.396   2.434  11.213 -0.4479  0.4006  0.0410
   44DOPE  H18S 5628   3.460   2.572  11.111  1.3146 -0.4334  0.3841
   44DOPE  H18T 5629   3.569   2.489  11.221  1.0069  0.0399 -0.3490
   44DOPE   C33 5630   3.626   1.549   9.591 -0.2856  0.7763  0.6933
   44DOPE   H3X 5631   3.725   1.499   9.583 -0.1375  1.2848 -1.2457
   44DOPE   H3Y 5632   3.549   1.487   9.540  0.5879 -1.0804  1.5637
   44DOPE   C34 5633   3.587   1.560   9.739 -0.5948 -0.0848  0.3077
   44DOPE   H4X 5634   3.648   1.646   9.773 -1.7811  0.4502  1.1435
   44DOPE   H4Y 5635   3.484   1.601   9.753 -1.2302 -1.2783 -0.6993
   44DOPE   C35 5636   3.593   1.427   9.809 -0.1753  0.8696 -0.4103
   44DOPE   H5X 5637   3.680   1.368   9.774 -0.7428 -0.1500 -0.1683
   44DOPE   H5Y 5638   3.511   1.370   9.759  0.3057 -0.9859  0.8289
   44DOPE   C36 5639   3.596   1.422   9.958  0.6185  0.5580  0.1825
   44DOPE   H6X 5640   3.578   1.318   9.990  1.5981 -0.0586 -1.1321
   44DOPE   H6Y 5641   3.507   1.477   9.995 -0.6111 -0.3687 -1.2978
   44DOPE   C37 5642   3.711   1.489  10.027 -1.0220  0.1018 -0.4287
   44DOPE   H7X 5643   3.807   1.435  10.013  0.0280  1.7147  0.3137
   44DOPE   H7Y 5644   3.734   1.592   9.994  0.4899  0.3868  1.3038
   44DOPE   C38 5645   3.700   1.515  10.177 -0.4513  0.1762 -0.3028
   44DOPE   H8X 5646   3.601   1.561  10.197 -0.6873 -0.6483  0.4746
   44DOPE   H8Y 5647   3.777   1.590  10.208 -2.0891  0.6235  3.1303
   44DOPE   C39 5648   3.712   1.389  10.256 -0.8971  0.6446 -0.0245
   44DOPE   H9X 5649   3.661   1.302  10.211  0.3927  0.3906 -1.0792
   44DOPE  C310 5650   3.776   1.370  10.379  0.7999  0.3709  0.2042
   44DOPE  H10X 5651   3.784   1.269  10.422  0.2243  1.0762  2.0601
   44DOPE  C311 5652   3.841   1.471  10.465 -0.1351  0.3697  0.3668
   44DOPE  H11X 5653   3.936   1.433  10.508 -0.0690 -0.6631 -0.6473
   44DOPE  H11Y 5654   3.847   1.564  10.404  1.6896 -1.4916 -2.5287
   44DOPE  C312 5655   3.746   1.502  10.588  0.7215 -0.0464 -0.7971
   44DOPE  H12X 5656   3.642   1.530  10.559  0.5393 -0.8623 -0.9462
   44DOPE  H12Y 5657   3.786   1.587  10.647  0.2365  0.3275 -0.9945
   44DOPE  C313 5658   3.755   1.392  10.703  0.1198  0.6822 -0.2373
   44DOPE  H13X 5659   3.702   1.300  10.670 -1.6401  1.4614  0.2933
   44DOPE  H13Y 5660   3.862   1.367  10.722 -0.1116 -1.3228 -1.3241
   44DOPE  C314 5661   3.686   1.434  10.831 -0.2112  0.2840 -0.6149
   44DOPE  H14X 5662   3.581   1.464  10.815 -0.1828  1.3596  0.9698
   44DOPE  H14Y 5663   3.739   1.510  10.893  0.3565 -1.9885  1.8624
   44DOPE  C315 5664   3.689   1.310  10.922 -0.0452  0.2415  0.5343
   44DOPE  H15X 5665   3.795   1.278  10.930 -0.9435 -3.3043 -0.0914
   44DOPE  H15Y 5666   3.626   1.227  10.883 -1.7704  1.0496  1.4599
   44DOPE  C316 5667   3.640   1.336  11.060  0.1627  0.2517 -0.2091
   44DOPE  H16X 5668   3.538   1.376  11.076  0.5207  0.5570  1.6317
   44DOPE  H16Y 5669   3.695   1.420  11.109  1.3203 -0.9707  0.6625
   44DOPE  C317 5670   3.637   1.215  11.149  0.2011 -0.6765 -0.0164
   44DOPE  H17X 5671   3.602   1.241  11.251  2.0787  0.4097  0.3925
   44DOPE  H17Y 5672   3.564   1.140  11.112  0.6511 -1.5681  0.8574
   44DOPE  C318 5673   3.766   1.138  11.176 -0.0597 -0.0377  0.1622
   44DOPE  H18X 5674   3.796   1.068  11.095  1.5393 -2.0927  2.3824
   44DOPE  H18Y 5675   3.849   1.211  11.181 -0.3933  0.3302  0.3831
   44DOPE  H18Z 5676   3.766   1.076  11.268  1.3932 -0.3328 -0.0206
   45DOPE     N 5677   4.704   1.818   8.536 -0.2525 -0.0734 -0.5269
   45DOPE   HN1 5678   4.729   1.903   8.481  1.2350 -0.8826 -1.1665
   45DOPE   HN2 5679   4.663   1.748   8.470 -0.3562  0.0815 -0.6250
   45DOPE   HN3 5680   4.635   1.849   8.607  0.9661  1.2231  0.1360
   45DOPE   C12 5681   4.823   1.762   8.607 -0.0115  0.2151 -0.3634
   45DOPE  H12A 5682   4.900   1.742   8.530  1.8732 -0.0124  1.4841
   45DOPE  H12B 5683   4.801   1.664   8.654  0.1485 -1.0410 -2.7447
   45DOPE   C11 5684   4.872   1.857   8.718  0.1631 -0.2754 -0.0450
   45DOPE  H11A 5685   4.973   1.822   8.748  0.6428  0.9398 -0.1616
   45DOPE  H11B 5686   4.803   1.846   8.804  1.7202  0.7202  1.4026
   45DOPE     P 5687   4.993   2.094   8.638 -0.2145  0.6824 -0.0963
   45DOPE   O13 5688   4.944   2.166   8.519 -0.0705 -0.3254  0.2060
   45DOPE   O14 5689   5.116   2.018   8.616 -0.4442  0.3235 -0.2342
   45DOPE   O11 5690   5.010   2.193   8.759 -0.0593  0.0362  0.0283
   45DOPE   O12 5691   4.875   1.992   8.681 -0.2765 -0.3651 -0.3819
   45DOPE    C1 5692   5.014   2.151   8.897  0.5577  0.2477  0.7488
   45DOPE    HA 5693   5.073   2.222   8.958 -0.2792  3.2111 -1.6281
   45DOPE    HB 5694   5.046   2.047   8.917 -2.1648 -0.4302  2.0899
   45DOPE    C2 5695   4.872   2.163   8.966  0.1780  0.3352 -0.0333
   45DOPE    HS 5696   4.808   2.102   8.899  1.6492 -0.4963 -0.7034
   45DOPE   O21 5697   4.837   2.305   8.952  0.0024  0.2258  0.4274
   45DOPE   C21 5698   4.704   2.327   8.963 -0.2654  0.9499 -0.1447
   45DOPE   O22 5699   4.621   2.244   9.001  0.3234  0.8912  0.6577
   45DOPE   C22 5700   4.679   2.465   8.915  0.5838  0.2530 -0.2219
   45DOPE   H2R 5701   4.634   2.465   8.813  0.7495 -1.6187 -0.3316
   45DOPE   H2S 5702   4.778   2.514   8.908  1.6297 -1.5594  1.0097
   45DOPE    C3 5703   4.876   2.113   9.114  0.2875  0.1028  0.4254
   45DOPE    HX 5704   4.778   2.133   9.163  0.6466  1.0459  0.7934
   45DOPE    HY 5705   4.959   2.165   9.167  1.2920  0.5919 -1.5424
   45DOPE   O31 5706   4.910   1.974   9.118 -0.0367 -0.3793 -0.2689
   45DOPE   C31 5707   4.816   1.887   9.088  0.1444  0.2771 -0.0485
   45DOPE   O32 5708   4.711   1.915   9.030  0.3741 -0.5192  0.1102
   45DOPE   C32 5709   4.835   1.758   9.162 -0.1610  0.0258 -0.0099
   45DOPE   H2X 5710   4.757   1.684   9.133  1.8999 -1.6350 -1.6623
   45DOPE   H2Y 5711   4.935   1.725   9.128  0.7285  2.2015  0.3428
   45DOPE   C23 5712   4.577   2.539   9.003  0.5602 -0.1500 -0.2743
   45DOPE   H3R 5713   4.474   2.497   9.010  0.8649 -0.6617  2.3812
   45DOPE   H3S 5714   4.564   2.641   8.961 -1.6061 -0.4884 -0.5553
   45DOPE   C24 5715   4.623   2.546   9.150  0.5425 -0.2879  0.7336
   45DOPE   H4R 5716   4.599   2.645   9.195  1.7105  0.4604 -0.2420
   45DOPE   H4S 5717   4.733   2.535   9.158  0.8403  2.5288  1.7050
   45DOPE   C25 5718   4.550   2.446   9.241  0.9099  0.5536 -0.3997
   45DOPE   H5R 5719   4.620   2.359   9.250  2.7195  1.6894 -2.5584
   45DOPE   H5S 5720   4.457   2.409   9.194  1.3573 -0.5839 -0.4334
   45DOPE   C26 5721   4.512   2.496   9.375  0.2413 -0.8842  0.7578
   45DOPE   H6R 5722   4.443   2.581   9.356  3.0266  1.0205 -1.6615
   45DOPE   H6S 5723   4.591   2.546   9.435 -1.5059  0.9200  1.6943
   45DOPE   C27 5724   4.448   2.379   9.448  0.5886 -0.1197 -0.6845
   45DOPE   H7R 5725   4.514   2.323   9.518 -1.8063 -1.9403  0.2688
   45DOPE   H7S 5726   4.398   2.313   9.373  1.2579 -1.6376  0.1622
   45DOPE   C28 5727   4.335   2.443   9.542 -0.0018 -0.0594  0.0995
   45DOPE   H8R 5728   4.275   2.359   9.583 -1.4196  1.0242  0.3404
   45DOPE   H8S 5729   4.265   2.503   9.480 -0.9814 -1.1156  0.1607
   45DOPE   C29 5730   4.403   2.520   9.650  0.0445 -0.5034 -0.1848
   45DOPE   H9R 5731   4.473   2.596   9.611  2.0191 -2.0077  0.2786
   45DOPE  C210 5732   4.393   2.516   9.789 -0.0537  0.6434  0.6105
   45DOPE  H10R 5733   4.456   2.581   9.851 -0.5440 -1.1722  3.1740
   45DOPE  C211 5734   4.305   2.425   9.873 -1.1278  0.1678  0.3590
   45DOPE  H11R 5735   4.213   2.403   9.814 -0.4364 -0.4014 -0.5422
   45DOPE  H11S 5736   4.277   2.478   9.966 -1.9565 -2.0808  1.4616
   45DOPE  C212 5737   4.362   2.279   9.902 -0.1396 -1.2836  0.1099
   45DOPE  H12R 5738   4.460   2.296   9.952 -0.2940  0.1089 -0.0277
   45DOPE  H12S 5739   4.378   2.228   9.805 -0.2574 -0.2065 -0.4879
   45DOPE  C213 5740   4.282   2.211  10.006 -0.3894 -0.4550 -0.5443
   45DOPE  H13R 5741   4.306   2.102  10.007  4.1090  0.3113  0.3219
   45DOPE  H13S 5742   4.174   2.226   9.987  0.0043  2.3947 -0.8991
   45DOPE  C214 5743   4.296   2.264  10.155  0.5181  0.6153  0.4674
   45DOPE  H14R 5744   4.253   2.366  10.146  0.7291  0.5017 -3.6198
   45DOPE  H14S 5745   4.405   2.275  10.176  0.6919  0.1041 -0.1200
   45DOPE  C215 5746   4.218   2.170  10.250  0.1817  0.1820 -0.5138
   45DOPE  H15R 5747   4.235   2.061  10.234 -0.4616  0.1148 -0.7447
   45DOPE  H15S 5748   4.113   2.195  10.226 -0.0205  1.7465  1.6910
   45DOPE  C216 5749   4.221   2.208  10.401 -0.5223  0.2749  0.0217
   45DOPE  H16R 5750   4.116   2.198  10.435 -0.6320  0.4427 -0.2674
   45DOPE  H16S 5751   4.227   2.318  10.413 -1.8011  0.3750 -0.2049
   45DOPE  C217 5752   4.315   2.129  10.493 -0.9267  0.1502  0.0295
   45DOPE  H17R 5753   4.420   2.165  10.500 -0.6807 -0.1135 -1.7369
   45DOPE  H17S 5754   4.318   2.024  10.456  1.3995  0.2920 -0.3511
   45DOPE  C218 5755   4.263   2.105  10.634 -0.0565  0.3275  0.5099
   45DOPE  H18R 5756   4.245   2.198  10.692  0.9026  0.7869  0.0790
   45DOPE  H18S 5757   4.331   2.042  10.696  0.3108 -0.7946 -0.9965
   45DOPE  H18T 5758   4.158   2.067  10.631 -0.8455  2.4286 -2.7890
   45DOPE   C33 5759   4.840   1.779   9.319  0.6203 -0.5464  1.1599
   45DOPE   H3X 5760   4.736   1.767   9.356  0.0549  0.0096 -0.1890
   45DOPE   H3Y 5761   4.879   1.874   9.360 -0.6223 -0.0392  1.1985
   45DOPE   C34 5762   4.925   1.671   9.388 -0.4184 -0.1586  0.0565
   45DOPE   H4X 5763   4.892   1.571   9.353  2.3728 -1.3201  0.4460
   45DOPE   H4Y 5764   5.032   1.685   9.359 -0.0298 -2.1126  0.3854
   45DOPE   C35 5765   4.922   1.689   9.544  0.7995 -0.3745 -0.3689
   45DOPE   H5X 5766   4.822   1.662   9.583  0.6127  0.9122  0.0719
   45DOPE   H5Y 5767   4.939   1.797   9.565  0.1393  0.2407 -2.7332
   45DOPE   C36 5768   5.025   1.607   9.618 -0.2357 -0.3683 -0.4657
   45DOPE   H6X 5769   5.125   1.651   9.598  0.2207 -0.4430  1.4556
   45DOPE   H6Y 5770   5.032   1.503   9.580  0.0207  0.2032 -2.0615
   45DOPE   C37 5771   5.017   1.604   9.774 -0.0869  0.2234  0.0874
   45DOPE   H7X 5772   4.994   1.703   9.819 -1.3507 -0.6573  1.4401
   45DOPE   H7Y 5773   4.921   1.554   9.799  1.1371 -1.6122  1.3424
   45DOPE   C38 5774   5.128   1.528   9.842 -0.0128 -0.1873  0.1239
   45DOPE   H8X 5775   5.162   1.439   9.783  2.7815  0.7904  0.0968
   45DOPE   H8Y 5776   5.091   1.478   9.934 -1.7002 -0.2780 -0.5666
   45DOPE   C39 5777   5.246   1.621   9.867 -0.2819  0.4371 -0.5899
   45DOPE   H9X 5778   5.327   1.602   9.796 -2.3212 -2.4734 -2.3592
   45DOPE  C310 5779   5.265   1.705   9.974 -0.4448  0.2949  0.1044
   45DOPE  H10X 5780   5.354   1.770   9.972 -0.0871 -0.1829  0.3981
   45DOPE  C311 5781   5.159   1.736  10.078  0.3463  0.6677  0.4933
   45DOPE  H11X 5782   5.119   1.837  10.055 -0.5705  0.2055  0.0475
   45DOPE  H11Y 5783   5.072   1.670  10.058  0.5280  0.7459 -0.5965
   45DOPE  C312 5784   5.191   1.724  10.228 -0.7209  0.4611  0.0912
   45DOPE  H12X 5785   5.237   1.817  10.267  0.3385 -1.3232  3.5337
   45DOPE  H12Y 5786   5.260   1.637  10.239 -2.0726 -0.6158  0.3558
   45DOPE  C313 5787   5.072   1.694  10.316 -1.1290  0.5767 -0.2717
   45DOPE  H13X 5788   4.995   1.774  10.320 -0.5557  1.1789 -1.0774
   45DOPE  H13Y 5789   5.020   1.604  10.278  1.3063 -0.3884 -1.5623
   45DOPE  C314 5790   5.119   1.647  10.457  0.3368 -0.4435  0.1155
   45DOPE  H14X 5791   5.148   1.741  10.509 -0.5910 -0.1326  0.0996
   45DOPE  H14Y 5792   5.212   1.587  10.456 -0.8921 -2.4668  0.2562
   45DOPE  C315 5793   5.010   1.573  10.531  0.3366 -0.2674 -0.1116
   45DOPE  H15X 5794   4.991   1.473  10.487 -1.4953  0.5756 -1.3714
   45DOPE  H15Y 5795   4.915   1.630  10.520 -0.0211 -0.8662 -0.1286
   45DOPE  C316 5796   5.025   1.562  10.685 -0.3515 -0.2069  0.1990
   45DOPE  H16X 5797   4.935   1.517  10.732  0.3791 -0.5466  1.2939
   45DOPE  H16Y 5798   5.028   1.666  10.725  1.5763  0.2769 -1.0447
   45DOPE  C317 5799   5.149   1.491  10.736 -0.7600  0.0715  0.6952
   45DOPE  H17X 5800   5.154   1.397  10.677 -0.6825 -0.8479  2.1149
   45DOPE  H17Y 5801   5.239   1.553  10.714 -1.0081  0.1962 -0.0088
   45DOPE  C318 5802   5.146   1.472  10.890  0.7689 -0.2193 -0.5876
   45DOPE  H18X 5803   5.129   1.573  10.934  1.5034  0.9282 -2.7713
   45DOPE  H18Y 5804   5.065   1.401  10.915  0.5530  0.3383  0.3440
   45DOPE  H18Z 5805   5.243   1.432  10.927  0.8036 -0.0711 -0.5187
   46DOPE     N 5806   5.182   0.731   8.576 -0.0850 -0.5778 -0.0515
   46DOPE   HN1 5807   5.227   0.733   8.670  0.4990 -0.1908 -0.3368
   46DOPE   HN2 5808   5.152   0.639   8.538 -0.2377 -0.5140 -0.0826
   46DOPE   HN3 5809   5.244   0.789   8.516  2.6426 -2.5328  0.6427
   46DOPE   C12 5810   5.049   0.800   8.603  0.6336 -0.2329  0.8168
   46DOPE  H12A 5811   4.967   0.725   8.601 -1.1873  1.6181 -3.2591
   46DOPE  H12B 5812   5.025   0.855   8.510  0.6845 -1.2789  0.1628
   46DOPE   C11 5813   5.066   0.888   8.728  0.3358 -0.5010 -0.0936
   46DOPE  H11A 5814   4.965   0.905   8.771  1.0348 -0.9201  1.7910
   46DOPE  H11B 5815   5.101   0.983   8.681 -2.2213  1.4255  1.6561
   46DOPE     P 5816   5.159   0.900   8.970 -0.1897  0.0886 -0.1106
   46DOPE   O13 5817   5.131   1.049   8.967  0.3789  0.1164  0.0790
   46DOPE   O14 5818   5.287   0.853   9.027  0.0603  0.3188  0.0495
   46DOPE   O11 5819   5.046   0.836   9.053  0.0904  0.4168 -0.3349
   46DOPE   O12 5820   5.156   0.842   8.828  0.3557  0.4025  0.7410
   46DOPE    C1 5821   5.045   0.690   9.055  0.7202  0.7742 -0.0069
   46DOPE    HA 5822   5.129   0.645   8.997 -1.8903 -1.6133 -2.1968
   46DOPE    HB 5823   4.953   0.646   9.010  1.0989 -1.0365  0.8856
   46DOPE    C2 5824   5.054   0.641   9.205  0.8705  0.2244 -0.5286
   46DOPE    HS 5825   4.954   0.658   9.251  1.6060  0.7022  0.9567
   46DOPE   O21 5826   5.148   0.714   9.281 -0.5580 -0.2472  0.0578
   46DOPE   C21 5827   5.105   0.812   9.360  0.1058 -0.3336 -1.0840
   46DOPE   O22 5828   4.991   0.836   9.399 -0.3944 -0.1292  0.1084
   46DOPE   C22 5829   5.229   0.890   9.415 -0.4006 -0.3409  0.2427
   46DOPE   H2R 5830   5.208   0.999   9.418  0.3063 -0.2187  1.4618
   46DOPE   H2S 5831   5.317   0.879   9.348 -0.5788  1.9722 -0.4569
   46DOPE    C3 5832   5.098   0.494   9.222  0.4407 -0.4960 -0.4860
   46DOPE    HX 5833   5.202   0.484   9.183  0.6798  1.2419 -0.3710
   46DOPE    HY 5834   5.043   0.428   9.151  0.4503  1.3922 -2.3451
   46DOPE   O31 5835   5.086   0.446   9.359  0.6630 -0.4541 -0.0102
   46DOPE   C31 5836   4.954   0.430   9.386 -0.2792  1.1988  0.3470
   46DOPE   O32 5837   4.864   0.468   9.314 -0.6160 -0.2141 -0.0864
   46DOPE   C32 5838   4.934   0.377   9.529 -0.4490 -0.3257 -0.5449
   46DOPE   H2X 5839   4.826   0.396   9.547 -0.3566  0.6657 -0.9342
   46DOPE   H2Y 5840   4.960   0.269   9.528  2.8522  0.2499  2.6038
   46DOPE   C23 5841   5.278   0.847   9.561 -0.2311  0.3606 -0.2840
   46DOPE   H3R 5842   5.388   0.867   9.564  0.2245 -1.3615 -2.7856
   46DOPE   H3S 5843   5.277   0.737   9.572  3.1255 -0.0322 -2.4644
   46DOPE   C24 5844   5.195   0.912   9.665  0.7022 -0.5904  0.5894
   46DOPE   H4R 5845   5.088   0.893   9.646  0.8797 -0.0793 -1.0719
   46DOPE   H4S 5846   5.200   1.022   9.653  0.3268 -0.6607 -0.2509
   46DOPE   C25 5847   5.234   0.889   9.808 -0.8130  0.8408  0.1954
   46DOPE   H5R 5848   5.329   0.945   9.811  0.1858 -0.6429 -1.7831
   46DOPE   H5S 5849   5.251   0.779   9.812 -2.3957  0.4201 -2.3497
   46DOPE   C26 5850   5.132   0.935   9.918 -0.7205  0.3269  0.9435
   46DOPE   H6R 5851   5.039   0.879   9.894 -1.1877  1.3856  0.1691
   46DOPE   H6S 5852   5.106   1.038   9.884  2.7904  0.9379 -0.3440
   46DOPE   C27 5853   5.189   0.915  10.057  0.2214 -0.8419  0.1272
   46DOPE   H7R 5854   5.251   0.824  10.073 -1.8082 -2.0367  1.8014
   46DOPE   H7S 5855   5.104   0.898  10.127 -0.1605  1.8663  0.4387
   46DOPE   C28 5856   5.287   1.028  10.087 -0.2044  0.7831 -0.2111
   46DOPE   H8R 5857   5.236   1.121  10.055  2.6560  2.3002 -0.6850
   46DOPE   H8S 5858   5.379   1.011  10.028 -0.2784 -0.7047  0.0623
   46DOPE   C29 5859   5.319   1.038  10.231  0.0434  0.9051  0.4593
   46DOPE   H9R 5860   5.394   0.960  10.251  1.0403  1.1032 -2.0942
   46DOPE  C210 5861   5.287   1.133  10.316  0.3201  0.4225 -0.1186
   46DOPE  H10R 5862   5.319   1.123  10.421 -0.0539  1.0001  0.0574
   46DOPE  C211 5863   5.191   1.252  10.287  0.0762  0.7526  0.0713
   46DOPE  H11R 5864   5.186   1.293  10.184 -2.7233  0.7420  0.1468
   46DOPE  H11S 5865   5.222   1.337  10.351  1.8300 -0.4514  0.9045
   46DOPE  C212 5866   5.038   1.228  10.321 -1.3972 -0.3237 -0.1832
   46DOPE  H12R 5867   4.990   1.158  10.249 -0.5612  0.1090 -1.1875
   46DOPE  H12S 5868   4.983   1.321  10.297 -0.8015  0.5045  1.5000
   46DOPE  C213 5869   5.004   1.179  10.462 -0.3389  0.3835  1.2369
   46DOPE  H13R 5870   4.897   1.208  10.469 -0.8099 -1.1403  0.8050
   46DOPE  H13S 5871   5.067   1.226  10.540 -0.8867  2.0117  0.7462
   46DOPE  C214 5872   5.003   1.026  10.482  0.4357 -0.6165 -0.5087
   46DOPE  H14R 5873   5.109   0.994  10.477  0.6948 -0.0491  0.8486
   46DOPE  H14S 5874   4.952   0.977  10.396  0.2624  0.6944 -1.1662
   46DOPE  C215 5875   4.940   0.982  10.615 -1.0385 -0.2283  0.4950
   46DOPE  H15R 5876   4.830   0.993  10.613 -0.9849  0.4459 -1.1814
   46DOPE  H15S 5877   4.985   1.044  10.696 -0.9859 -1.4716  1.4396
   46DOPE  C216 5878   4.972   0.841  10.648  0.1688  0.0417  0.0698
   46DOPE  H16R 5879   4.987   0.780  10.556 -0.4448 -0.0948  0.0561
   46DOPE  H16S 5880   4.877   0.803  10.691  0.8071 -0.4429  1.0892
   46DOPE  C217 5881   5.098   0.827  10.740 -0.3338  0.8383 -0.6430
   46DOPE  H17R 5882   5.083   0.886  10.832  0.3663  0.4225 -0.2515
   46DOPE  H17S 5883   5.178   0.884  10.688 -0.0361  2.8877  1.8562
   46DOPE  C218 5884   5.146   0.687  10.783  0.1595  0.5704 -0.0251
   46DOPE  H18R 5885   5.159   0.623  10.693  1.8824  1.2222 -0.2846
   46DOPE  H18S 5886   5.074   0.641  10.854  2.2669 -1.8627  0.6872
   46DOPE  H18T 5887   5.239   0.684  10.843  0.7918  1.8393 -0.9167
   46DOPE   C33 5888   5.010   0.450   9.646  0.2560  0.2028  0.2005
   46DOPE   H3X 5889   4.986   0.558   9.651 -2.0583 -0.1798 -1.2497
   46DOPE   H3Y 5890   5.119   0.441   9.627  0.1082  1.4858 -1.5218
   46DOPE   C34 5891   4.976   0.399   9.787  0.4083 -0.0362 -0.3422
   46DOPE   H4X 5892   4.867   0.407   9.807  0.3206 -1.7259 -0.0435
   46DOPE   H4Y 5893   4.997   0.290   9.790 -0.7152 -0.2697 -0.5235
   46DOPE   C35 5894   5.059   0.462   9.894  0.0718  0.6659  0.6230
   46DOPE   H5X 5895   5.059   0.570   9.867 -0.1602  0.5200  0.0309
   46DOPE   H5Y 5896   5.165   0.430   9.880 -0.5648 -1.0433 -0.5102
   46DOPE   C36 5897   5.016   0.442  10.041 -0.1522  0.7522  0.6426
   46DOPE   H6X 5898   5.031   0.334  10.065  0.8614  0.8574  0.5493
   46DOPE   H6Y 5899   4.906   0.459  10.045 -0.1657  1.9479 -2.1340
   46DOPE   C37 5900   5.099   0.518  10.145 -0.1590 -0.4239 -0.2252
   46DOPE   H7X 5901   5.207   0.495  10.132  0.1228  0.5608  0.2766
   46DOPE   H7Y 5902   5.084   0.628  10.140 -1.2177 -0.6173 -1.6674
   46DOPE   C38 5903   5.046   0.486  10.287 -0.4527  0.2239  0.4036
   46DOPE   H8X 5904   5.111   0.523  10.370 -0.5056  2.2026 -0.3853
   46DOPE   H8Y 5905   5.048   0.375  10.293  1.5668  0.1668 -0.7052
   46DOPE   C39 5906   4.906   0.542  10.310  0.3220 -0.4068  0.3238
   46DOPE   H9X 5907   4.885   0.631  10.248  0.3544  0.1779  1.1295
   46DOPE  C310 5908   4.806   0.485  10.374  0.8198 -0.1595  1.0711
   46DOPE  H10X 5909   4.710   0.540  10.371  0.8683 -0.0772  1.0245
   46DOPE  C311 5910   4.812   0.356  10.448 -0.2274 -0.0371  0.5316
   46DOPE  H11X 5911   4.715   0.305  10.432 -0.8478  0.7546  1.6569
   46DOPE  H11Y 5912   4.893   0.284  10.422 -0.2341 -1.1360  3.2234
   46DOPE  C312 5913   4.850   0.396  10.588 -0.5468 -0.1396  0.4161
   46DOPE  H12X 5914   4.952   0.439  10.585  0.5989 -2.7059 -0.2887
   46DOPE  H12Y 5915   4.871   0.305  10.648 -0.4000  0.3808  1.1776
   46DOPE  C313 5916   4.760   0.488  10.672 -0.1010 -0.0100 -0.6851
   46DOPE  H13X 5917   4.761   0.590  10.630  1.6085  1.2760  2.1676
   46DOPE  H13Y 5918   4.658   0.445  10.683  0.3727 -1.1015 -0.3852
   46DOPE  C314 5919   4.805   0.499  10.813 -0.0438  0.1457 -0.5065
   46DOPE  H14X 5920   4.913   0.522  10.811 -0.1872  0.9018  0.1319
   46DOPE  H14Y 5921   4.804   0.398  10.862  3.5320  0.0620 -0.3440
   46DOPE  C315 5922   4.728   0.603  10.892 -0.3900  0.2088 -0.3606
   46DOPE  H15X 5923   4.621   0.573  10.894  0.2899 -2.6276 -1.9683
   46DOPE  H15Y 5924   4.747   0.703  10.847  1.5626 -0.2109 -0.5216
   46DOPE  C316 5925   4.785   0.609  11.039  0.0164  0.5516  0.4067
   46DOPE  H16X 5926   4.892   0.633  11.028  0.2375 -1.1833 -2.0619
   46DOPE  H16Y 5927   4.778   0.509  11.087 -0.1296  1.7397  2.9995
   46DOPE  C317 5928   4.721   0.708  11.132 -0.5771  0.0617 -0.8486
   46DOPE  H17X 5929   4.613   0.685  11.135 -0.8911  1.5089 -0.3207
   46DOPE  H17Y 5930   4.759   0.694  11.235 -3.3495  2.0938  0.5729
   46DOPE  C318 5931   4.731   0.852  11.087 -0.6405 -0.2942 -0.2642
   46DOPE  H18X 5932   4.703   0.913  11.176 -0.4216 -1.3808  0.5694
   46DOPE  H18Y 5933   4.826   0.902  11.060 -2.1899  1.3365 -3.2717
   46DOPE  H18Z 5934   4.661   0.868  11.002  1.1944 -1.1020 -1.9876
   47DOPE     N 5935   3.416   5.655   8.971 -0.0657 -0.3662  0.4052
   47DOPE   HN1 5936   3.439   5.600   8.886  0.0932  0.3622 -0.0290
   47DOPE   HN2 5937   3.472   5.743   8.961  3.0718 -2.4068 -2.4135
   47DOPE   HN3 5938   3.449   5.596   9.051 -0.8246 -1.0420  0.2276
   47DOPE   C12 5939   3.271   5.657   8.978  0.1408 -0.1079  0.8192
   47DOPE  H12A 5940   3.232   5.555   9.002 -0.1871 -0.3408 -0.6057
   47DOPE  H12B 5941   3.228   5.664   8.876  1.6051  0.8536  0.2494
   47DOPE   C11 5942   3.232   5.770   9.075  0.5023  0.0475  0.0533
   47DOPE  H11A 5943   3.254   5.755   9.183 -3.1102  0.6373  0.9797
   47DOPE  H11B 5944   3.122   5.766   9.079  0.4193  0.5473 -1.4081
   47DOPE     P 5945   3.211   5.988   8.923 -0.1440  0.3702 -0.2458
   47DOPE   O13 5946   3.148   5.894   8.834 -0.1027 -0.7149  0.9558
   47DOPE   O14 5947   3.317   6.074   8.876  0.4222 -0.2451  0.2121
   47DOPE   O11 5948   3.110   6.074   8.994  0.4973 -0.1148 -0.3035
   47DOPE   O12 5949   3.276   5.895   9.031  0.0354  0.2314 -0.2852
   47DOPE    C1 5950   3.143   6.154   9.106 -0.0266  0.0234 -0.0768
   47DOPE    HA 5951   3.220   6.231   9.083 -1.3300  1.3631 -0.0894
   47DOPE    HB 5952   3.174   6.089   9.191  2.6103 -0.4997 -1.3188
   47DOPE    C2 5953   3.015   6.233   9.158  0.1653 -0.1097 -0.1455
   47DOPE    HS 5954   3.061   6.303   9.231 -1.4301  0.0279  0.7882
   47DOPE   O21 5955   2.937   6.138   9.224  0.9378  0.2926 -0.0259
   47DOPE   C21 5956   2.852   6.169   9.319  0.5724 -0.2521 -0.0426
   47DOPE   O22 5957   2.813   6.282   9.353  0.2130  0.6679 -0.1675
   47DOPE   C22 5958   2.795   6.042   9.389  0.4872  0.9538  0.3059
   47DOPE   H2R 5959   2.878   5.968   9.392  1.5604  2.1428  1.0732
   47DOPE   H2S 5960   2.714   6.012   9.320  1.6173  0.3793 -0.8178
   47DOPE    C3 5961   2.948   6.307   9.038  0.6263 -0.5566  0.2342
   47DOPE    HX 5962   2.906   6.245   8.956 -3.1520  2.0653 -0.0945
   47DOPE    HY 5963   3.029   6.364   8.989  0.5844 -0.7516 -0.0661
   47DOPE   O31 5964   2.834   6.386   9.086 -0.4168  0.2490 -0.2689
   47DOPE   C31 5965   2.880   6.509   9.126  0.2162  0.0682 -0.3535
   47DOPE   O32 5966   2.996   6.539   9.135  0.0724 -0.7118  0.1886
   47DOPE   C32 5967   2.757   6.590   9.152  0.5941  0.0228  0.5218
   47DOPE   H2X 5968   2.688   6.576   9.066 -0.0143  1.5680  0.7265
   47DOPE   H2Y 5969   2.707   6.570   9.249 -0.8588  1.3887  0.0865
   47DOPE   C23 5970   2.738   6.050   9.536  0.3407  0.3192 -0.3126
   47DOPE   H3R 5971   2.675   5.958   9.543  0.3924  0.3880  1.5143
   47DOPE   H3S 5972   2.672   6.137   9.551  0.2908  0.1755  0.3098
   47DOPE   C24 5973   2.835   6.052   9.647 -0.5736  0.3415 -0.5895
   47DOPE   H4R 5974   2.908   6.135   9.639  0.3034 -0.5067 -1.7867
   47DOPE   H4S 5975   2.905   5.966   9.657  0.8040  1.6287  1.7825
   47DOPE   C25 5976   2.769   6.067   9.784 -0.2649 -0.2793 -0.2557
   47DOPE   H5R 5977   2.683   6.137   9.777  1.7154  2.1550 -2.4007
   47DOPE   H5S 5978   2.845   6.115   9.848  2.0806 -0.8903 -2.4148
   47DOPE   C26 5979   2.728   5.940   9.849 -0.2271 -0.0347 -0.4380
   47DOPE   H6R 5980   2.814   5.904   9.909  0.1282  1.7658  0.2163
   47DOPE   H6S 5981   2.712   5.868   9.766  1.2854 -0.2027 -0.6071
   47DOPE   C27 5982   2.599   5.960   9.941  0.6496  0.5500  0.3751
   47DOPE   H7R 5983   2.581   5.855   9.973  1.6487  0.9215  2.3019
   47DOPE   H7S 5984   2.509   5.994   9.885  1.2707  2.1927  0.3301
   47DOPE   C28 5985   2.614   6.047  10.064 -0.3032 -0.5605  0.5506
   47DOPE   H8R 5986   2.639   6.150  10.029  1.2805 -1.1555 -0.1955
   47DOPE   H8S 5987   2.703   6.022  10.126 -0.3487  0.3803  1.0168
   47DOPE   C29 5988   2.496   6.067  10.153  0.4750 -0.3604 -0.0576
   47DOPE   H9R 5989   2.397   6.084  10.109  0.0392 -0.3499  0.8928
   47DOPE  C210 5990   2.499   6.056  10.288 -0.2341 -0.4122 -0.6312
   47DOPE  H10R 5991   2.410   6.087  10.345  0.3172 -1.8389  1.1165
   47DOPE  C211 5992   2.622   6.025  10.370  0.6535  0.0669 -0.6206
   47DOPE  H11R 5993   2.703   6.088  10.328  1.8143 -1.1796 -0.3454
   47DOPE  H11S 5994   2.636   5.915  10.358 -0.1238 -0.5334  2.8183
   47DOPE  C212 5995   2.614   6.057  10.526 -0.7800 -0.1224  0.4099
   47DOPE  H12R 5996   2.559   6.152  10.540  0.6097  0.6378  0.9320
   47DOPE  H12S 5997   2.714   6.075  10.573 -0.9100 -0.3845  0.7942
   47DOPE  C213 5998   2.544   5.955  10.612 -0.3220  0.0641 -0.2842
   47DOPE  H13R 5999   2.600   5.860  10.597  0.7559  0.8716 -1.6447
   47DOPE  H13S 6000   2.445   5.927  10.570  0.3870 -1.1596 -1.2306
   47DOPE  C214 6001   2.524   6.010  10.749 -0.4063 -0.6175 -0.0117
   47DOPE  H14R 6002   2.617   6.065  10.776  0.8153 -1.6100 -1.9424
   47DOPE  H14S 6003   2.523   5.924  10.820 -0.5567  0.4391  1.3030
   47DOPE  C215 6004   2.398   6.089  10.777 -0.8711 -0.5491 -0.6256
   47DOPE  H15R 6005   2.319   6.039  10.717  0.4136 -3.0013 -0.4324
   47DOPE  H15S 6006   2.417   6.191  10.738 -0.4231 -0.3275  0.1523
   47DOPE  C216 6007   2.363   6.099  10.923 -0.1732  0.2408  0.0982
   47DOPE  H16R 6008   2.452   6.130  10.982 -0.1927 -0.2728  0.4026
   47DOPE  H16S 6009   2.329   5.999  10.958 -0.8752  1.0355  1.7649
   47DOPE  C217 6010   2.259   6.214  10.947 -0.9513  0.7213  0.4087
   47DOPE  H17R 6011   2.298   6.295  10.882  2.5201  0.7757  2.3103
   47DOPE  H17S 6012   2.287   6.251  11.049  1.2403  0.5569 -0.0765
   47DOPE  C218 6013   2.115   6.182  10.920 -0.2945  0.3325 -0.4125
   47DOPE  H18R 6014   2.052   6.267  10.953  1.2219  1.0837  0.6927
   47DOPE  H18S 6015   2.097   6.085  10.972 -0.2184 -0.7432 -2.2939
   47DOPE  H18T 6016   2.087   6.175  10.813 -0.6955  0.5044 -0.3224
   47DOPE   C33 6017   2.783   6.745   9.139 -0.6398 -0.1614  0.0207
   47DOPE   H3X 6018   2.687   6.801   9.148 -0.1988  0.6876 -0.4533
   47DOPE   H3Y 6019   2.845   6.773   9.051  1.8941  1.9553  2.3357
   47DOPE   C34 6020   2.855   6.793   9.265 -0.7102 -0.3614  0.1197
   47DOPE   H4X 6021   2.800   6.752   9.353 -1.7107 -1.1949 -0.8699
   47DOPE   H4Y 6022   2.956   6.745   9.269 -0.8223 -0.5266  1.2070
   47DOPE   C35 6023   2.868   6.951   9.281 -0.1201  0.4471 -0.5228
   47DOPE   H5X 6024   2.772   7.002   9.303 -1.1422 -1.1511 -1.0903
   47DOPE   H5Y 6025   2.906   6.994   9.185  0.8486 -1.8168 -1.2327
   47DOPE   C36 6026   2.975   6.985   9.390 -0.3307  0.3154 -0.5844
   47DOPE   H6X 6027   2.950   7.091   9.413 -1.2129 -0.0709  0.3418
   47DOPE   H6Y 6028   3.076   6.971   9.345 -0.7900 -0.1507 -1.4982
   47DOPE   C37 6029   2.951   6.910   9.521  0.0269  0.1535 -0.1271
   47DOPE   H7X 6030   2.840   6.920   9.528  0.0570  0.6771 -0.3433
   47DOPE   H7Y 6031   2.977   6.803   9.509 -0.2570  0.1348 -0.6081
   47DOPE   C38 6032   3.011   6.978   9.641  0.2202 -0.0905 -0.0393
   47DOPE   H8X 6033   2.977   6.930   9.736 -1.7540  1.4749  0.1015
   47DOPE   H8Y 6034   2.984   7.085   9.632 -2.7024 -0.5958  1.2855
   47DOPE   C39 6035   3.160   6.974   9.643 -0.9003 -0.1589 -0.3139
   47DOPE   H9X 6036   3.205   6.919   9.559  0.8753 -1.2508  1.2548
   47DOPE  C310 6037   3.236   7.032   9.734  0.1026  0.3662  0.5891
   47DOPE  H10X 6038   3.345   7.023   9.717 -0.4066 -0.5882 -2.8754
   47DOPE  C311 6039   3.188   7.112   9.850 -0.1926  0.3444 -0.5921
   47DOPE  H11X 6040   3.264   7.191   9.869  0.9029 -0.6718 -0.6717
   47DOPE  H11Y 6041   3.090   7.158   9.823 -0.1931  0.2105 -0.8178
   47DOPE  C312 6042   3.172   7.035   9.988 -0.4430 -0.4610  0.3549
   47DOPE  H12X 6043   3.268   6.983  10.009 -0.8704 -1.6985 -0.6350
   47DOPE  H12Y 6044   3.092   6.960   9.970  1.6356 -2.7791  0.1623
   47DOPE  C313 6045   3.117   7.122  10.099 -0.7427  0.4723  0.5945
   47DOPE  H13X 6046   3.182   7.210  10.113 -1.1709  1.1642 -1.3973
   47DOPE  H13Y 6047   3.015   7.156  10.070 -0.6393 -0.0428 -0.4022
   47DOPE  C314 6048   3.111   7.057  10.236 -0.3439  0.2363  0.3728
   47DOPE  H14X 6049   3.181   6.972  10.241  0.3542  0.8259  0.9210
   47DOPE  H14Y 6050   3.006   7.019  10.243 -0.7306  0.9004 -1.2966
   47DOPE  C315 6051   3.130   7.160  10.353 -0.0198  0.1573 -0.1338
   47DOPE  H15X 6052   3.054   7.241  10.360 -0.4999 -0.2696 -0.2985
   47DOPE  H15Y 6053   3.224   7.219  10.345 -2.2063  3.9103 -0.5468
   47DOPE  C316 6054   3.128   7.091  10.491 -0.2103 -0.0911 -0.2927
   47DOPE  H16X 6055   3.205   7.011  10.491  0.7725  0.8263 -0.2577
   47DOPE  H16Y 6056   3.029   7.051  10.521  0.3399 -1.0444  0.3071
   47DOPE  C317 6057   3.149   7.186  10.599 -0.5716  0.4031 -0.0776
   47DOPE  H17X 6058   3.249   7.233  10.585  0.0368 -0.5709  0.9186
   47DOPE  H17Y 6059   3.075   7.269  10.604  1.2939  2.1062  0.2445
   47DOPE  C318 6060   3.144   7.102  10.726  0.7237  0.0519 -0.0546
   47DOPE  H18X 6061   3.198   7.005  10.718  1.0348  0.2521 -0.3684
   47DOPE  H18Y 6062   3.192   7.167  10.801 -0.2884 -1.7700  2.2959
   47DOPE  H18Z 6063   3.039   7.092  10.762  1.1310  0.6577  1.3342
   48DOPE     N 6064   0.455   3.926   8.997  0.3440 -0.0823  0.2184
   48DOPE   HN1 6065   0.469   3.876   8.907 -0.6258 -0.4477  0.2559
   48DOPE   HN2 6066   0.426   4.021   8.966 -1.7742 -0.5804  0.5242
   48DOPE   HN3 6067   0.546   3.928   9.047  0.3960 -0.4370  0.1453
   48DOPE   C12 6068   0.345   3.857   9.082  0.0265 -0.4983  0.5507
   48DOPE  H12A 6069   0.252   3.850   9.021 -0.6533 -0.9032  1.5890
   48DOPE  H12B 6070   0.324   3.931   9.163 -1.9275  1.1406 -1.3268
   48DOPE   C11 6071   0.382   3.717   9.131 -0.7316  0.9354 -0.1998
   48DOPE  H11A 6072   0.304   3.680   9.202 -0.6498  1.6948  0.3053
   48DOPE  H11B 6073   0.477   3.715   9.188 -1.1637 -1.0188  0.5164
   48DOPE     P 6074   0.449   3.485   9.010  0.3806  0.3610 -0.0421
   48DOPE   O13 6075   0.584   3.472   8.953  0.1721  0.5446  0.2424
   48DOPE   O14 6076   0.340   3.412   8.943  0.4621  0.3323 -0.6118
   48DOPE   O11 6077   0.449   3.438   9.157 -0.0968 -0.2780 -0.5831
   48DOPE   O12 6078   0.397   3.636   9.012  0.1658 -0.0674 -0.4381
   48DOPE    C1 6079   0.413   3.305   9.202  0.2235 -0.0233  0.4688
   48DOPE    HA 6080   0.477   3.226   9.156 -0.2188  0.0642 -0.3184
   48DOPE    HB 6081   0.313   3.275   9.166  1.1673 -2.7195 -0.0974
   48DOPE    C2 6082   0.410   3.318   9.357  0.2964  0.7057  0.2182
   48DOPE    HS 6083   0.333   3.398   9.366 -0.1813  0.3653 -0.7128
   48DOPE   O21 6084   0.540   3.362   9.411 -0.1561 -0.2649  0.0521
   48DOPE   C21 6085   0.528   3.447   9.511  0.4903  0.0747  1.2549
   48DOPE   O22 6086   0.423   3.495   9.544  0.0985 -0.1691  0.1461
   48DOPE   C22 6087   0.664   3.485   9.563 -0.5678  0.0762 -0.0088
   48DOPE   H2R 6088   0.702   3.560   9.490  0.4690  0.0725  0.5082
   48DOPE   H2S 6089   0.735   3.400   9.574 -0.4821  0.3435  1.8519
   48DOPE    C3 6090   0.351   3.184   9.420 -0.4033 -0.3688 -0.0317
   48DOPE    HX 6091   0.420   3.106   9.382 -0.0090  0.3357 -0.8048
   48DOPE    HY 6092   0.252   3.155   9.378 -0.7866 -0.1226  0.6889
   48DOPE   O31 6093   0.339   3.200   9.561  0.0503  0.2301 -0.5215
   48DOPE   C31 6094   0.222   3.249   9.606  0.7354 -0.8888 -0.2210
   48DOPE   O32 6095   0.117   3.272   9.546  0.0296 -0.2559  0.1865
   48DOPE   C32 6096   0.223   3.249   9.759 -0.5055  0.1391  0.0398
   48DOPE   H2X 6097   0.330   3.250   9.788  0.2707 -2.6646 -2.2783
   48DOPE   H2Y 6098   0.185   3.349   9.791 -0.9925  0.2584 -0.8704
   48DOPE   C23 6099   0.648   3.558   9.700  0.1755 -0.1692  0.1892
   48DOPE   H3R 6100   0.558   3.622   9.715  0.5594  0.2999  0.5246
   48DOPE   H3S 6101   0.729   3.634   9.703  0.4486 -0.4467 -0.1727
   48DOPE   C24 6102   0.673   3.463   9.821  0.2982 -0.2302  0.4013
   48DOPE   H4R 6103   0.772   3.414   9.815  0.5362  0.0010  2.0462
   48DOPE   H4S 6104   0.599   3.382   9.802  2.0864 -1.6392 -0.8951
   48DOPE   C25 6105   0.658   3.525   9.960 -0.7777 -0.3844  0.1137
   48DOPE   H5R 6106   0.689   3.632   9.958  1.1905 -0.8384  2.0448
   48DOPE   H5S 6107   0.732   3.473  10.025 -0.7929 -1.0584 -0.4041
   48DOPE   C26 6108   0.523   3.525  10.029 -1.1466 -0.4172  0.1397
   48DOPE   H6R 6109   0.447   3.581   9.970 -3.5657 -1.4399  2.0997
   48DOPE   H6S 6110   0.526   3.576  10.128 -2.3351 -1.5271  0.7695
   48DOPE   C27 6111   0.465   3.382  10.039  0.0417 -0.3678  0.1366
   48DOPE   H7R 6112   0.459   3.332   9.940 -0.0521 -2.7211  1.2633
   48DOPE   H7S 6113   0.357   3.390  10.064  0.1186  3.3575 -0.2225
   48DOPE   C28 6114   0.530   3.282  10.131 -0.5234  0.7904  0.5561
   48DOPE   H8R 6115   0.639   3.300  10.122  0.1846 -3.0901 -0.7921
   48DOPE   H8S 6116   0.509   3.181  10.089  0.6786  2.0081 -3.4089
   48DOPE   C29 6117   0.498   3.294  10.277  0.1640 -0.3700  0.3020
   48DOPE   H9R 6118   0.411   3.231  10.298  2.3797 -3.3261  1.3368
   48DOPE  C210 6119   0.567   3.353  10.373  0.1746  0.6300 -0.2779
   48DOPE  H10R 6120   0.536   3.338  10.477  1.2304 -1.7198 -0.2398
   48DOPE  C211 6121   0.686   3.432  10.363  1.0094 -0.5512 -0.6148
   48DOPE  H11R 6122   0.709   3.466  10.260  1.0714  0.4274 -0.2920
   48DOPE  H11S 6123   0.768   3.364  10.394  1.8273  0.2990 -0.8376
   48DOPE  C212 6124   0.689   3.559  10.456  0.1128 -0.2234 -0.8903
   48DOPE  H12R 6125   0.598   3.621  10.442 -0.6262 -1.1477 -0.2928
   48DOPE  H12S 6126   0.766   3.632  10.424 -1.8053  2.6907  0.6550
   48DOPE  C213 6127   0.714   3.532  10.608 -0.8421 -0.8798 -0.6047
   48DOPE  H13R 6128   0.777   3.441  10.623 -0.9098 -0.7948  0.2224
   48DOPE  H13S 6129   0.623   3.529  10.671  1.3948 -0.0703  2.9516
   48DOPE  C214 6130   0.794   3.645  10.688 -0.5530 -0.2119  0.6110
   48DOPE  H14R 6131   0.759   3.744  10.652 -2.0374 -0.8997  0.0832
   48DOPE  H14S 6132   0.904   3.632  10.675 -0.2449  1.5046  1.2669
   48DOPE  C215 6133   0.767   3.634  10.839 -0.7037 -0.2794  0.1604
   48DOPE  H15R 6134   0.662   3.655  10.871 -1.4219 -0.0330 -2.1911
   48DOPE  H15S 6135   0.833   3.705  10.893  0.1064  0.4425 -1.6934
   48DOPE  C216 6136   0.807   3.493  10.901 -0.7056  0.3636  0.2173
   48DOPE  H16R 6137   0.912   3.474  10.871  0.1759  2.1444  1.9143
   48DOPE  H16S 6138   0.745   3.408  10.865  0.0712  1.2885 -3.7146
   48DOPE  C217 6139   0.796   3.507  11.059  0.2228  0.0057 -0.2357
   48DOPE  H17R 6140   0.694   3.512  11.103  1.1886  1.4990  2.0184
   48DOPE  H17S 6141   0.843   3.604  11.086 -0.2348  0.2433 -0.2768
   48DOPE  C218 6142   0.873   3.405  11.133 -0.1347 -1.1166 -0.0134
   48DOPE  H18R 6143   0.824   3.305  11.128  1.0555 -1.7079 -0.2550
   48DOPE  H18S 6144   0.890   3.422  11.242 -1.2009 -0.4257  0.0575
   48DOPE  H18T 6145   0.974   3.401  11.087 -0.4174  0.3970 -0.8015
   48DOPE   C33 6146   0.140   3.140   9.828  0.7736  0.2938  0.4816
   48DOPE   H3X 6147   0.178   3.039   9.801 -1.1516 -0.4536  0.3749
   48DOPE   H3Y 6148   0.037   3.151   9.788  1.9886  2.9401 -2.2312
   48DOPE   C34 6149   0.151   3.140   9.982 -0.0163 -1.5250 -0.0863
   48DOPE   H4X 6150   0.257   3.126  10.012  0.3920  0.6790 -0.2954
   48DOPE   H4Y 6151   0.130   3.246  10.009  1.0418 -0.6818 -2.3301
   48DOPE   C35 6152   0.056   3.044  10.045 -0.0512  0.3398 -0.2545
   48DOPE   H5X 6153   0.055   2.949   9.988  1.4852  1.0560 -1.5493
   48DOPE   H5Y 6154  -0.049   3.080  10.039 -0.5603 -1.1833 -1.1761
   48DOPE   C36 6155   0.080   3.018  10.188  0.2441 -0.4257 -0.4448
   48DOPE   H6X 6156   0.185   2.985  10.204 -0.3636 -2.1621  0.1419
   48DOPE   H6Y 6157   0.021   2.931  10.224  0.2975  0.2981  1.5338
   48DOPE   C37 6158   0.039   3.138  10.282  0.3703  0.4815 -0.0288
   48DOPE   H7X 6159   0.095   3.229  10.250  0.6700 -0.0709 -1.1162
   48DOPE   H7Y 6160  -0.071   3.157  10.279  0.0829 -1.1657 -1.9370
   48DOPE   C38 6161   0.094   3.110  10.424  0.2569 -0.6102  0.0266
   48DOPE   H8X 6162   0.205   3.119  10.422  0.2061 -0.0742 -1.0294
   48DOPE   H8Y 6163   0.079   3.001  10.441 -1.2289 -0.4956 -0.3921
   48DOPE   C39 6164   0.010   3.180  10.533  0.0602  0.3786  0.2527
   48DOPE   H9X 6165  -0.098   3.163  10.525 -0.1277  2.2429 -2.4631
   48DOPE  C310 6166   0.054   3.270  10.623  0.3247 -0.1515  0.0225
   48DOPE  H10X 6167  -0.020   3.316  10.690 -0.7008 -0.2904 -0.9858
   48DOPE  C311 6168   0.194   3.315  10.640  0.2424 -0.1950 -0.1432
   48DOPE  H11X 6169   0.258   3.270  10.561 -0.0466  0.0148 -0.4962
   48DOPE  H11Y 6170   0.198   3.423  10.617  0.6579 -0.5651 -2.0029
   48DOPE  C312 6171   0.253   3.288  10.779 -0.1148 -0.4031 -0.9829
   48DOPE  H12X 6172   0.231   3.186  10.817  0.1293 -0.1083 -0.0329
   48DOPE  H12Y 6173   0.201   3.359  10.846 -0.7520  0.3063 -2.1838
   48DOPE  C313 6174   0.403   3.322  10.788  0.1428 -0.1774 -0.3839
   48DOPE  H13X 6175   0.450   3.303  10.689  0.8842 -1.5863  0.2081
   48DOPE  H13Y 6176   0.424   3.429  10.806  2.8184 -0.1746 -2.8485
   48DOPE  C314 6177   0.478   3.233  10.896  0.8536 -0.0060 -0.2423
   48DOPE  H14X 6178   0.585   3.222  10.869  0.7912 -2.2837  0.1722
   48DOPE  H14Y 6179   0.432   3.131  10.888  1.3055 -0.3869  1.5179
   48DOPE  C315 6180   0.464   3.279  11.042 -0.6703  0.4697 -0.2046
   48DOPE  H15X 6181   0.355   3.283  11.062 -0.6703  0.3198 -0.1755
   48DOPE  H15Y 6182   0.505   3.383  11.044 -1.6774  0.9061 -1.1757
   48DOPE  C316 6183   0.541   3.199  11.141  0.3486  0.7363 -0.3340
   48DOPE  H16X 6184   0.648   3.204  11.115  0.7058  3.0780  1.2542
   48DOPE  H16Y 6185   0.521   3.090  11.144  0.5546  0.7228  0.9885
   48DOPE  C317 6186   0.525   3.260  11.282  0.2543  0.2284  0.6540
   48DOPE  H17X 6187   0.583   3.355  11.287  0.6073  0.3171 -2.6560
   48DOPE  H17Y 6188   0.416   3.281  11.287 -0.2468 -1.1112 -2.1762
   48DOPE  C318 6189   0.576   3.149  11.377  0.0970  0.4047 -0.2986
   48DOPE  H18X 6190   0.687   3.143  11.375  0.2522  2.6881 -1.0519
   48DOPE  H18Y 6191   0.543   3.171  11.481  0.2441  0.6726 -0.3071
   48DOPE  H18Z 6192   0.524   3.053  11.356 -1.0275  1.6719 -4.1989
   49DOPE     N 6193   0.958   6.119   9.347  0.3115  0.5551 -0.1491
   49DOPE   HN1 6194   0.881   6.189   9.343 -0.2021  0.4050  3.6883
   49DOPE   HN2 6195   0.922   6.035   9.396 -1.6117  0.5286 -1.5079
   49DOPE   HN3 6196   1.026   6.168   9.408  0.3679 -0.6976  0.8330
   49DOPE   C12 6197   1.012   6.096   9.206 -0.0138 -0.0562 -0.0753
   49DOPE  H12A 6198   1.073   6.003   9.209 -1.9138 -1.3895 -0.4480
   49DOPE  H12B 6199   1.093   6.166   9.178 -1.4541  1.4579 -0.5734
   49DOPE   C11 6200   0.898   6.090   9.106 -0.6082 -0.3908 -0.1362
   49DOPE  H11A 6201   0.965   6.081   9.018  0.4405 -0.0209  0.6079
   49DOPE  H11B 6202   0.844   6.187   9.098 -1.5361 -0.9020 -0.2480
   49DOPE     P 6203   0.673   5.982   9.193 -0.1422  0.4230  0.0417
   49DOPE   O13 6204   0.594   6.068   9.105 -0.9671 -0.2116  0.1891
   49DOPE   O14 6205   0.684   6.023   9.340 -0.1745  0.5724 -0.6625
   49DOPE   O11 6206   0.628   5.832   9.177  0.3756 -0.2548 -0.3563
   49DOPE   O12 6207   0.820   5.971   9.127 -0.2425  0.2577  0.2150
   49DOPE    C1 6208   0.498   5.785   9.225 -0.5031  0.2705  0.4338
   49DOPE    HA 6209   0.453   5.699   9.171  1.0054 -0.9908  1.1172
   49DOPE    HB 6210   0.424   5.867   9.239  1.5140  2.1914  0.3844
   49DOPE    C2 6211   0.512   5.725   9.366  0.4706 -0.8725  0.2678
   49DOPE    HS 6212   0.555   5.804   9.432 -2.3073  0.3573  0.7692
   49DOPE   O21 6213   0.585   5.598   9.369 -0.2045 -0.2848  0.5078
   49DOPE   C21 6214   0.712   5.612   9.409 -0.2171 -0.3098 -0.1565
   49DOPE   O22 6215   0.757   5.701   9.480  0.6542 -0.3879 -0.4821
   49DOPE   C22 6216   0.781   5.482   9.365  1.0258  0.7987 -0.1806
   49DOPE   H2R 6217   0.819   5.482   9.261  2.9155 -0.8898  0.4396
   49DOPE   H2S 6218   0.714   5.396   9.386  2.0368  0.1206  0.3846
   49DOPE    C3 6219   0.376   5.700   9.434  0.0711  0.4408 -0.4387
   49DOPE    HX 6220   0.309   5.655   9.357  0.3968 -0.3137 -0.2940
   49DOPE    HY 6221   0.319   5.791   9.462 -2.3631 -0.5611 -1.7403
   49DOPE   O31 6222   0.384   5.618   9.547 -0.0602  0.0361  0.0721
   49DOPE   C31 6223   0.429   5.677   9.654  0.3529 -0.1001  0.9119
   49DOPE   O32 6224   0.468   5.794   9.656  0.1112  0.5835 -0.1300
   49DOPE   C32 6225   0.425   5.581   9.765 -0.1784  0.1362  1.0911
   49DOPE   H2X 6226   0.322   5.543   9.784  0.1523 -1.6603 -0.4167
   49DOPE   H2Y 6227   0.489   5.495   9.735 -1.3104 -0.8691  1.4973
   49DOPE   C23 6228   0.903   5.457   9.460 -0.1537  0.4498  0.2019
   49DOPE   H3R 6229   0.954   5.549   9.495 -2.2156  1.2011  1.3851
   49DOPE   H3S 6230   0.973   5.401   9.395 -0.6832  0.2832 -0.2372
   49DOPE   C24 6231   0.852   5.374   9.582  0.1264 -0.7196  0.2112
   49DOPE   H4R 6232   0.822   5.281   9.529  2.2482 -1.4652  0.2018
   49DOPE   H4S 6233   0.761   5.421   9.625 -0.2690  0.1407 -1.4523
   49DOPE   C25 6234   0.963   5.359   9.684  0.7203 -0.1339 -0.5002
   49DOPE   H5R 6235   1.003   5.461   9.701  1.8273 -0.0843 -2.9683
   49DOPE   H5S 6236   1.036   5.294   9.631  0.1832 -1.8707  0.8234
   49DOPE   C26 6237   0.918   5.296   9.813  0.3070 -0.4802 -1.0984
   49DOPE   H6R 6238   0.900   5.187   9.812 -0.1621 -0.4600  1.1627
   49DOPE   H6S 6239   0.825   5.334   9.859  1.4343  0.9015  0.1444
   49DOPE   C27 6240   1.023   5.314   9.929 -0.0800  0.2620 -0.1217
   49DOPE   H7R 6241   1.037   5.423   9.938 -0.2345  0.2492  0.2745
   49DOPE   H7S 6242   1.114   5.256   9.904 -0.1347  0.3717 -0.5926
   49DOPE   C28 6243   0.976   5.235  10.059 -0.3479 -0.1936  0.9152
   49DOPE   H8R 6244   0.979   5.130  10.024 -0.4138  0.5479 -1.4768
   49DOPE   H8S 6245   0.867   5.260  10.065 -0.2345  0.4809  0.3650
   49DOPE   C29 6246   1.046   5.244  10.192  0.4446  0.4338  0.1456
   49DOPE   H9R 6247   1.152   5.215  10.188  1.3797  2.6681  3.7560
   49DOPE  C210 6248   1.004   5.288  10.312  0.5179  0.2661  0.5934
   49DOPE  H10R 6249   1.062   5.290  10.405 -1.6698  0.4527  2.0408
   49DOPE  C211 6250   0.872   5.353  10.342 -0.3492 -0.2523 -0.3496
   49DOPE  H11R 6251   0.804   5.351  10.253 -1.0700 -1.3135  0.1982
   49DOPE  H11S 6252   0.901   5.459  10.357  0.4770 -0.2959 -1.4872
   49DOPE  C212 6253   0.790   5.268  10.444 -0.4912  0.5571 -0.2251
   49DOPE  H12R 6254   0.780   5.168  10.397  0.0340  0.0386  0.7287
   49DOPE  H12S 6255   0.691   5.318  10.449  0.4589  2.5902 -0.5135
   49DOPE  C213 6256   0.859   5.239  10.582  1.3255 -0.5244  0.0283
   49DOPE  H13R 6257   0.959   5.195  10.563  0.7986 -1.5246 -0.4718
   49DOPE  H13S 6258   0.804   5.167  10.645  2.6952 -3.2739 -1.7459
   49DOPE  C214 6259   0.862   5.365  10.681 -0.1953 -0.5662 -0.6492
   49DOPE  H14R 6260   0.762   5.414  10.683 -0.3223 -0.8214 -0.8628
   49DOPE  H14S 6261   0.925   5.442  10.631 -2.6666  1.4180 -0.9348
   49DOPE  C215 6262   0.916   5.343  10.821  0.3161  0.4485  0.1764
   49DOPE  H15R 6263   0.864   5.255  10.864 -1.1569 -0.4529 -3.1377
   49DOPE  H15S 6264   0.887   5.441  10.867 -1.8405 -0.8866  1.8709
   49DOPE  C216 6265   1.066   5.316  10.818  0.5441 -0.2832  0.0601
   49DOPE  H16R 6266   1.117   5.384  10.746  2.1816 -0.7943  0.6821
   49DOPE  H16S 6267   1.079   5.215  10.773 -0.2639  0.7823 -2.7359
   49DOPE  C217 6268   1.130   5.323  10.956  0.3474 -0.3894  0.1195
   49DOPE  H17R 6269   1.137   5.425  11.000 -1.2106 -0.6984  1.1308
   49DOPE  H17S 6270   1.238   5.308  10.934  0.4113  1.1247 -0.7338
   49DOPE  C218 6271   1.081   5.224  11.072  0.0406  0.4425  0.5253
   49DOPE  H18R 6272   1.154   5.218  11.156 -1.5681  0.2579  1.9573
   49DOPE  H18S 6273   1.066   5.124  11.026 -0.6932  1.1224 -0.7511
   49DOPE  H18T 6274   0.984   5.253  11.118  0.3841  0.3521  1.3338
   49DOPE   C33 6275   0.494   5.639   9.893 -0.0859  0.1010 -0.3736
   49DOPE   H3X 6276   0.458   5.739   9.925  2.3920  1.5114 -1.6455
   49DOPE   H3Y 6277   0.603   5.650   9.874  0.0117  0.6503  0.4787
   49DOPE   C34 6278   0.470   5.530   9.999 -0.0682  0.0235 -0.3089
   49DOPE   H4X 6279   0.368   5.487   9.999 -0.0418 -0.0759  0.9356
   49DOPE   H4Y 6280   0.537   5.447   9.970  0.4993  0.9854 -1.8886
   49DOPE   C35 6281   0.492   5.589  10.133  0.0404 -0.4303  0.4160
   49DOPE   H5X 6282   0.404   5.654  10.154  0.8140  0.5502  0.6793
   49DOPE   H5Y 6283   0.581   5.655  10.131 -1.0670  1.2163  1.9785
   49DOPE   C36 6284   0.505   5.493  10.250 -0.1302  0.6438  0.2172
   49DOPE   H6X 6285   0.500   5.550  10.345 -1.6063  1.2816 -0.2127
   49DOPE   H6Y 6286   0.602   5.440  10.235 -0.3131  0.3167  0.1860
   49DOPE   C37 6287   0.382   5.394  10.260  0.3810  1.3223 -0.1589
   49DOPE   H7X 6288   0.284   5.443  10.240 -0.2795 -0.2160 -0.8172
   49DOPE   H7Y 6289   0.405   5.321  10.179 -3.0859 -0.5270  0.3449
   49DOPE   C38 6290   0.377   5.299  10.385  0.3297 -0.9952  0.4447
   49DOPE   H8X 6291   0.328   5.364  10.461 -0.6246  0.3038 -1.2011
   49DOPE   H8Y 6292   0.481   5.273  10.414  0.9415  0.0489 -0.6959
   49DOPE   C39 6293   0.303   5.172  10.360 -0.1878  0.2136 -0.3339
   49DOPE   H9X 6294   0.258   5.159  10.261  1.2593 -1.8222 -0.7826
   49DOPE  C310 6295   0.282   5.079  10.450  0.0934  0.1104  0.1725
   49DOPE  H10X 6296   0.224   4.991  10.418  0.2183  0.6750 -1.6932
   49DOPE  C311 6297   0.324   5.074  10.592 -0.0944  0.1184 -0.2364
   49DOPE  H11X 6298   0.336   5.180  10.621  3.1333 -0.3408  0.4850
   49DOPE  H11Y 6299   0.247   5.022  10.652 -0.2606 -0.6708 -1.1185
   49DOPE  C312 6300   0.468   5.028  10.626  0.6492  0.4534 -0.5600
   49DOPE  H12X 6301   0.536   5.110  10.597 -0.9233  1.9147 -0.2757
   49DOPE  H12Y 6302   0.494   4.937  10.568 -1.4472 -0.6892  0.1646
   49DOPE  C313 6303   0.479   4.988  10.783 -0.0912  0.2986  0.0024
   49DOPE  H13X 6304   0.417   5.058  10.842  0.0520  0.5304 -0.1214
   49DOPE  H13Y 6305   0.445   4.883  10.799 -1.7312  0.2450 -3.0695
   49DOPE  C314 6306   0.624   5.007  10.838  0.7128  0.3592 -0.4949
   49DOPE  H14X 6307   0.641   5.114  10.862 -0.8789  1.1124 -2.4589
   49DOPE  H14Y 6308   0.682   4.967  10.751 -1.2751 -1.7310 -0.9752
   49DOPE  C315 6309   0.661   4.927  10.965 -0.3762  0.2750 -0.8663
   49DOPE  H15X 6310   0.757   4.953  11.014 -0.6789 -0.3130  0.0729
   49DOPE  H15Y 6311   0.680   4.822  10.935  2.1536  0.4530 -0.1423
   49DOPE  C316 6312   0.549   4.924  11.076  0.5799  0.1165  0.3376
   49DOPE  H16X 6313   0.467   4.873  11.021  0.8657 -1.9587  1.7191
   49DOPE  H16Y 6314   0.528   5.030  11.098 -0.0511 -0.1025  0.8170
   49DOPE  C317 6315   0.590   4.861  11.207 -0.0624  0.3170 -0.1768
   49DOPE  H17X 6316   0.501   4.842  11.271  1.1403 -0.7186  1.2527
   49DOPE  H17Y 6317   0.629   4.761  11.177 -0.0678  0.3707 -0.3674
   49DOPE  C318 6318   0.692   4.943  11.289  0.0385  0.0293 -0.2560
   49DOPE  H18X 6319   0.711   4.897  11.389  1.8395 -0.8545 -0.9491
   49DOPE  H18Y 6320   0.789   4.942  11.234  1.6615 -0.6892  2.4286
   49DOPE  H18Z 6321   0.662   5.050  11.295  0.9427  0.3683 -1.3671
   50DOPE     N 6322   1.209   6.215   8.687 -0.1539 -0.2487  0.4139
   50DOPE   HN1 6323   1.137   6.241   8.617  0.5822 -0.2275 -0.3420
   50DOPE   HN2 6324   1.295   6.273   8.679  0.6166 -1.5135 -0.7249
   50DOPE   HN3 6325   1.248   6.122   8.664  0.0525 -0.4157  1.4045
   50DOPE   C12 6326   1.152   6.228   8.821 -0.6631  0.0386 -0.6064
   50DOPE  H12A 6327   1.070   6.154   8.837 -1.2497  0.8087  0.0125
   50DOPE  H12B 6328   1.116   6.332   8.833  1.3738  0.6848  0.3552
   50DOPE   C11 6329   1.269   6.208   8.922  0.1437  0.2507 -0.9131
   50DOPE  H11A 6330   1.218   6.222   9.020  1.4288  1.0944 -0.3469
   50DOPE  H11B 6331   1.322   6.305   8.913 -1.8114  1.5223  0.3867
   50DOPE     P 6332   1.307   5.956   8.979  0.2589  0.2563 -0.0120
   50DOPE   O13 6333   1.400   5.848   8.947  0.2675 -0.0868  0.6680
   50DOPE   O14 6334   1.170   5.923   8.936  0.2286 -0.0647  0.8527
   50DOPE   O11 6335   1.313   5.993   9.133 -0.3925  0.5780 -0.3888
   50DOPE   O12 6336   1.352   6.093   8.911  0.0190 -0.4868 -0.5482
   50DOPE    C1 6337   1.439   6.007   9.200  0.0996 -0.3653 -0.9700
   50DOPE    HA 6338   1.477   6.100   9.153  2.1612  0.0663  1.3422
   50DOPE    HB 6339   1.493   5.911   9.181  0.2673 -0.0821 -1.9519
   50DOPE    C2 6340   1.428   6.035   9.344  0.1429  0.2521  0.0959
   50DOPE    HS 6341   1.533   6.043   9.379  0.6450  2.7048 -1.7167
   50DOPE   O21 6342   1.355   5.938   9.414  0.1187  0.2372  0.3076
   50DOPE   C21 6343   1.419   5.828   9.438 -0.3356 -0.5074 -1.1523
   50DOPE   O22 6344   1.534   5.803   9.413 -0.1133 -0.1658 -0.0079
   50DOPE   C22 6345   1.328   5.729   9.504 -0.4658  0.3708 -0.4216
   50DOPE   H2R 6346   1.295   5.688   9.406  0.4331  0.8824 -0.9630
   50DOPE   H2S 6347   1.235   5.764   9.554 -0.2231 -0.3414  0.5474
   50DOPE    C3 6348   1.355   6.171   9.373 -0.2314 -0.0239  0.2373
   50DOPE    HX 6349   1.254   6.151   9.330  0.3454  0.5375 -1.4840
   50DOPE    HY 6350   1.409   6.248   9.314  0.5451 -0.4501  0.3831
   50DOPE   O31 6351   1.355   6.200   9.513 -0.7423 -0.1662 -0.2888
   50DOPE   C31 6352   1.240   6.215   9.576  0.0327 -0.5569 -0.1144
   50DOPE   O32 6353   1.131   6.196   9.525 -0.3544 -0.1818  0.0830
   50DOPE   C32 6354   1.258   6.250   9.726 -0.1542  0.2096 -0.0598
   50DOPE   H2X 6355   1.213   6.349   9.748 -1.3515 -0.2752 -0.2347
   50DOPE   H2Y 6356   1.188   6.171   9.762 -0.5896 -0.3126 -1.9520
   50DOPE   C23 6357   1.390   5.615   9.589  0.1545 -0.8764  0.4979
   50DOPE   H3R 6358   1.465   5.655   9.660 -1.5599  0.8908  1.4251
   50DOPE   H3S 6359   1.444   5.537   9.530 -1.1645 -1.3218 -0.1715
   50DOPE   C24 6360   1.286   5.540   9.674 -0.2472 -0.9627 -0.0884
   50DOPE   H4R 6361   1.224   5.473   9.610  1.8729 -2.5469 -0.5755
   50DOPE   H4S 6362   1.219   5.622   9.710 -0.9218 -0.3839 -2.5232
   50DOPE   C25 6363   1.359   5.468   9.780  0.6697 -0.3239 -0.6623
   50DOPE   H5R 6364   1.447   5.414   9.740  1.5691  1.7557 -1.6542
   50DOPE   H5S 6365   1.292   5.388   9.818 -0.6285 -0.2975 -2.6883
   50DOPE   C26 6366   1.397   5.567   9.894  0.5629 -0.1153  0.0191
   50DOPE   H6R 6367   1.307   5.631   9.909 -0.5090 -1.2458 -1.3140
   50DOPE   H6S 6368   1.489   5.625   9.873  1.8035 -2.1637 -0.5323
   50DOPE   C27 6369   1.425   5.496  10.021  0.4974  0.2791 -0.1936
   50DOPE   H7R 6370   1.494   5.412  10.001 -1.4303 -1.4590  0.1774
   50DOPE   H7S 6371   1.329   5.455  10.057 -0.6575  2.1585 -0.9760
   50DOPE   C28 6372   1.488   5.577  10.135 -0.5044 -0.6734  0.2334
   50DOPE   H8R 6373   1.414   5.646  10.182 -1.9826 -0.6541 -1.9912
   50DOPE   H8S 6374   1.565   5.633  10.078 -0.6705 -0.9551 -0.2768
   50DOPE   C29 6375   1.544   5.489  10.243  0.2300 -0.2066 -0.2829
   50DOPE   H9R 6376   1.637   5.437  10.215  1.0044  1.1645 -0.3923
   50DOPE  C210 6377   1.476   5.461  10.360  0.4789 -0.3848  0.2792
   50DOPE  H10R 6378   1.538   5.412  10.437  2.9969 -1.6397 -2.3379
   50DOPE  C211 6379   1.338   5.521  10.395  0.2723  0.4310  0.0552
   50DOPE  H11R 6380   1.262   5.499  10.317  0.1053  1.7677 -0.1858
   50DOPE  H11S 6381   1.344   5.632  10.409 -0.7631  0.7472 -1.6913
   50DOPE  C212 6382   1.271   5.469  10.527 -0.2304 -0.1744  0.4416
   50DOPE  H12R 6383   1.254   5.359  10.523 -0.3401 -0.1321 -1.6452
   50DOPE  H12S 6384   1.167   5.509  10.516  0.1070  0.7329  0.4307
   50DOPE  C213 6385   1.332   5.528  10.652  0.3470  0.0887  0.2783
   50DOPE  H13R 6386   1.246   5.558  10.715  1.6442  0.4200  1.9512
   50DOPE  H13S 6387   1.391   5.620  10.631  0.1816 -0.0418 -0.8509
   50DOPE  C214 6388   1.412   5.433  10.747  0.0814  0.8538 -0.0004
   50DOPE  H14R 6389   1.488   5.397  10.675  0.3527  0.1461  0.6303
   50DOPE  H14S 6390   1.346   5.348  10.774 -0.8658  1.9608  1.3345
   50DOPE  C215 6391   1.473   5.493  10.871 -0.6563 -0.0409  0.2000
   50DOPE  H15R 6392   1.403   5.563  10.921 -0.7114  1.9477 -2.4266
   50DOPE  H15S 6393   1.557   5.554  10.832 -0.2849 -1.7547 -1.8422
   50DOPE  C216 6394   1.551   5.388  10.962 -0.0513 -0.0332  0.1423
   50DOPE  H16R 6395   1.646   5.354  10.917  0.6890  1.5684  0.4358
   50DOPE  H16S 6396   1.495   5.292  10.973  0.6794 -0.4110  0.6314
   50DOPE  C217 6397   1.589   5.454  11.099 -0.3815  0.0844 -0.2506
   50DOPE  H17R 6398   1.498   5.493  11.150 -1.0351  0.0543 -1.3577
   50DOPE  H17S 6399   1.656   5.539  11.077  1.0994 -0.4143  1.9890
   50DOPE  C218 6400   1.670   5.364  11.193  0.4417 -0.2587 -0.2583
   50DOPE  H18R 6401   1.616   5.273  11.223 -0.6837  0.0207 -1.3346
   50DOPE  H18S 6402   1.693   5.426  11.282  1.1344 -1.0813  0.1492
   50DOPE  H18T 6403   1.765   5.330  11.146  0.6862 -0.0194  0.0562
   50DOPE   C33 6404   1.397   6.250   9.787 -0.5023  0.0766  0.8282
   50DOPE   H3X 6405   1.443   6.344   9.749 -0.8253  0.0437  0.3534
   50DOPE   H3Y 6406   1.461   6.162   9.766  0.6068  1.2708 -1.1690
   50DOPE   C34 6407   1.388   6.258   9.942  0.0807  0.0519 -0.6324
   50DOPE   H4X 6408   1.489   6.296   9.968  0.5339 -2.0271  0.9018
   50DOPE   H4Y 6409   1.311   6.335   9.964  0.7812  0.0414  2.2835
   50DOPE   C35 6410   1.373   6.123  10.013 -0.3854 -0.2794  0.1940
   50DOPE   H5X 6411   1.465   6.062  10.000  0.6291  1.1229  0.5144
   50DOPE   H5Y 6412   1.295   6.069   9.954  0.0195 -1.3119  0.5822
   50DOPE   C36 6413   1.337   6.132  10.164  0.1674 -0.4403  0.5270
   50DOPE   H6X 6414   1.232   6.165  10.179  0.1334 -1.0786  1.8635
   50DOPE   H6Y 6415   1.405   6.206  10.211  0.1270 -0.2039  0.2101
   50DOPE   C37 6416   1.368   6.005  10.243  0.3082  0.3648  0.2760
   50DOPE   H7X 6417   1.305   5.994  10.334 -1.9115  0.4610 -1.1751
   50DOPE   H7Y 6418   1.334   5.920  10.180 -1.4393  1.7108 -0.7107
   50DOPE   C38 6419   1.521   6.004  10.281 -0.6824  0.5649  0.8788
   50DOPE   H8X 6420   1.543   6.097  10.338  0.8206  0.7427  0.0531
   50DOPE   H8Y 6421   1.582   6.016  10.189  2.5208 -0.7819  2.6525
   50DOPE   C39 6422   1.554   5.876  10.349 -0.2622  0.1474  0.0925
   50DOPE   H9X 6423   1.587   5.788  10.291 -3.6532 -0.9549 -0.3987
   50DOPE  C310 6424   1.552   5.867  10.484  0.9687 -0.3696  0.1702
   50DOPE  H10X 6425   1.570   5.764  10.517  1.7157 -0.2557  0.1301
   50DOPE  C311 6426   1.526   5.971  10.590  0.4284  1.0766  0.2920
   50DOPE  H11X 6427   1.623   5.991  10.641  0.5021 -3.9672  2.8147
   50DOPE  H11Y 6428   1.496   6.068  10.546  0.5157  0.4001 -1.3164
   50DOPE  C312 6429   1.412   5.921  10.684  0.4355 -0.8287 -0.0079
   50DOPE  H12X 6430   1.412   6.000  10.762 -2.1635 -1.2598  0.5378
   50DOPE  H12Y 6431   1.421   5.826  10.741  0.9221 -2.7092 -2.9949
   50DOPE  C313 6432   1.268   5.943  10.630 -0.3042  0.1806 -0.1272
   50DOPE  H13X 6433   1.280   6.044  10.585 -0.6237  0.3019  0.0594
   50DOPE  H13Y 6434   1.238   5.868  10.554  1.0782  1.0082 -1.5426
   50DOPE  C314 6435   1.160   5.965  10.735  0.6033 -0.5035 -0.0842
   50DOPE  H14X 6436   1.080   6.006  10.669  1.5001  1.4911 -0.0289
   50DOPE  H14Y 6437   1.186   6.032  10.820  2.4634 -1.0637 -0.1752
   50DOPE  C315 6438   1.096   5.833  10.790  0.5015 -0.1922 -0.2609
   50DOPE  H15X 6439   1.176   5.775  10.841  1.6668  0.5608 -1.1832
   50DOPE  H15Y 6440   1.065   5.778  10.699  0.0929  0.9059 -0.7996
   50DOPE  C316 6441   0.990   5.854  10.897 -0.2788 -0.3256 -0.2214
   50DOPE  H16X 6442   0.891   5.859  10.845 -0.7001  0.0101  0.5897
   50DOPE  H16Y 6443   1.008   5.944  10.960  2.0964 -1.4286  0.7922
   50DOPE  C317 6444   0.981   5.736  10.984 -0.5516  0.2974 -0.0623
   50DOPE  H17X 6445   0.978   5.644  10.921 -0.7040  0.3498 -0.1319
   50DOPE  H17Y 6446   1.065   5.728  11.056 -0.4602 -0.2094 -0.2229
   50DOPE  C318 6447   0.856   5.747  11.073 -0.2101  0.5210  0.0780
   50DOPE  H18X 6448   0.760   5.727  11.020 -1.8573  0.0991  3.0041
   50DOPE  H18Y 6449   0.853   5.662  11.145 -2.1978  0.3687 -0.1288
   50DOPE  H18Z 6450   0.850   5.844  11.127 -1.0094 -1.5316  4.0576
   51DOPE     N 6451   4.192   0.869   8.588 -0.3690  0.2516  0.4573
   51DOPE   HN1 6452   4.113   0.844   8.651  0.3057  1.6700  1.9297
   51DOPE   HN2 6453   4.165   0.847   8.490  3.9370 -0.4783 -0.8017
   51DOPE   HN3 6454   4.275   0.812   8.614  0.4315  0.7819 -0.8205
   51DOPE   C12 6455   4.223   1.014   8.595  0.0591 -0.6569  0.0139
   51DOPE  H12A 6456   4.311   1.025   8.528  0.7668  0.7655  1.1270
   51DOPE  H12B 6457   4.252   1.042   8.698  0.5714  0.7710 -0.4925
   51DOPE   C11 6458   4.101   1.097   8.545 -0.4883 -0.7149 -0.7009
   51DOPE  H11A 6459   4.065   1.042   8.455 -1.2845 -3.0692  0.9777
   51DOPE  H11B 6460   4.136   1.198   8.515 -0.7271 -0.6077 -0.6265
   51DOPE     P 6461   4.003   1.196   8.770 -0.2741  0.0821 -0.0471
   51DOPE   O13 6462   3.994   1.339   8.732 -0.0644  0.4069 -0.0578
   51DOPE   O14 6463   4.119   1.169   8.851  0.1632 -0.0225 -0.0840
   51DOPE   O11 6464   3.875   1.147   8.838  0.2296 -0.1457  0.1394
   51DOPE   O12 6465   3.997   1.102   8.643 -0.2484 -1.5668 -0.3899
   51DOPE    C1 6466   3.872   1.010   8.881 -0.4035 -0.0953 -0.3112
   51DOPE    HA 6467   3.950   0.940   8.846 -3.3755 -3.5757 -0.5726
   51DOPE    HB 6468   3.776   0.968   8.843 -0.6141 -0.1682  0.2810
   51DOPE    C2 6469   3.856   0.988   9.038  0.1904  0.8756 -0.2458
   51DOPE    HS 6470   3.872   0.878   9.048  2.2960  1.2665  1.3621
   51DOPE   O21 6471   3.729   1.045   9.078 -0.3126 -0.5422  0.1918
   51DOPE   C21 6472   3.693   1.008   9.202  0.3828 -0.6302  0.3885
   51DOPE   O22 6473   3.747   0.923   9.271  0.3667 -0.8361  0.3697
   51DOPE   C22 6474   3.584   1.110   9.255 -0.1653 -0.0268  0.1064
   51DOPE   H2R 6475   3.507   1.039   9.293 -2.8312  1.7338 -1.6241
   51DOPE   H2S 6476   3.539   1.147   9.160 -1.1312 -1.6499 -0.1094
   51DOPE    C3 6477   3.977   1.055   9.119 -0.1503  0.2373  0.1592
   51DOPE    HX 6478   3.960   1.165   9.118 -0.3801  0.2198  0.9475
   51DOPE    HY 6479   4.077   1.032   9.077  0.2758  1.1430  0.6349
   51DOPE   O31 6480   3.981   1.032   9.258  1.0311 -0.5164 -0.1569
   51DOPE   C31 6481   4.024   0.907   9.287 -0.4174 -0.5168 -0.0182
   51DOPE   O32 6482   4.082   0.835   9.205 -0.1992  0.2205 -0.2407
   51DOPE   C32 6483   4.008   0.869   9.432 -0.8258  0.8579 -0.5540
   51DOPE   H2X 6484   4.088   0.925   9.484 -1.9768  1.0625  1.0700
   51DOPE   H2Y 6485   3.911   0.908   9.470 -0.7083  0.1996  0.4518
   51DOPE   C23 6486   3.624   1.230   9.348  0.3667  0.5360 -0.0008
   51DOPE   H3R 6487   3.533   1.289   9.370  1.0618  0.9616  1.8744
   51DOPE   H3S 6488   3.699   1.292   9.293  0.0964 -0.6975 -1.8455
   51DOPE   C24 6489   3.701   1.191   9.472 -0.1679  0.2973  0.4362
   51DOPE   H4R 6490   3.751   1.277   9.521  0.8107  0.9573 -1.5702
   51DOPE   H4S 6491   3.788   1.124   9.449  0.7925  1.5217  0.4009
   51DOPE   C25 6492   3.615   1.118   9.578  0.1697  0.1494  0.8263
   51DOPE   H5R 6493   3.577   1.025   9.531  0.2413  0.3190  0.4224
   51DOPE   H5S 6494   3.529   1.179   9.611 -1.4882 -1.8166  0.3720
   51DOPE   C26 6495   3.695   1.063   9.695  0.6616 -0.3526  0.4006
   51DOPE   H6R 6496   3.742   1.144   9.755 -1.2126  1.2945 -0.2593
   51DOPE   H6S 6497   3.771   0.994   9.651  0.5152 -0.5202  0.4081
   51DOPE   C27 6498   3.595   0.985   9.784 -0.0380 -0.1218 -0.3949
   51DOPE   H7R 6499   3.565   0.895   9.726 -0.5872 -2.2572  2.8966
   51DOPE   H7S 6500   3.510   1.053   9.807 -1.3516 -1.4579 -1.1143
   51DOPE   C28 6501   3.660   0.929   9.909 -0.3857  0.0308  0.4875
   51DOPE   H8R 6502   3.727   1.011   9.942  1.6568 -1.4654  0.2728
   51DOPE   H8S 6503   3.713   0.838   9.873 -0.5113  0.7488 -1.6703
   51DOPE   C29 6504   3.565   0.890  10.021  0.0211 -1.0752  0.2051
   51DOPE   H9R 6505   3.472   0.839   9.993  0.5340 -2.0586  0.2349
   51DOPE  C210 6506   3.585   0.925  10.150 -0.0359  0.3677  0.7761
   51DOPE  H10R 6507   3.513   0.904  10.230 -1.1656  0.5075 -0.1704
   51DOPE  C211 6508   3.710   0.993  10.204 -0.3412 -0.3282  0.1658
   51DOPE  H11R 6509   3.694   1.103  10.197  1.1914 -0.1751 -2.0505
   51DOPE  H11S 6510   3.797   0.976  10.137 -1.0748 -0.0209 -0.9148
   51DOPE  C212 6511   3.751   0.946  10.341  0.5265  0.1833  0.8864
   51DOPE  H12R 6512   3.832   1.018  10.366 -0.3951  1.3608  0.6053
   51DOPE  H12S 6513   3.793   0.844  10.341 -1.3930 -0.7145 -1.9223
   51DOPE  C213 6514   3.649   0.972  10.451  0.1029  0.3261 -0.6160
   51DOPE  H13R 6515   3.568   0.897  10.436  1.4198 -0.8456 -2.3756
   51DOPE  H13S 6516   3.616   1.077  10.444  1.1252  0.7599  0.6891
   51DOPE  C214 6517   3.713   0.956  10.589 -0.0499 -0.0410 -0.3561
   51DOPE  H14R 6518   3.791   1.034  10.602  2.3824 -2.5256  0.7430
   51DOPE  H14S 6519   3.758   0.856  10.603  1.1613  0.5256 -0.1137
   51DOPE  C215 6520   3.610   0.988  10.701 -0.4486 -0.3875 -1.0411
   51DOPE  H15R 6521   3.522   0.924  10.681 -1.1649  0.9937 -2.5863
   51DOPE  H15S 6522   3.588   1.097  10.702  0.4324 -0.1861  0.5169
   51DOPE  C216 6523   3.666   0.963  10.851 -0.3804 -0.1219 -0.2510
   51DOPE  H16R 6524   3.585   1.010  10.911  1.1160  0.9326  1.0231
   51DOPE  H16S 6525   3.746   1.037  10.873  0.3195 -1.5640  2.5246
   51DOPE  C217 6526   3.691   0.822  10.892 -0.2217  0.6968 -0.4563
   51DOPE  H17R 6527   3.773   0.769  10.837  0.2276 -0.2287  1.0603
   51DOPE  H17S 6528   3.595   0.771  10.874  0.2994  0.4372 -2.8233
   51DOPE  C218 6529   3.714   0.804  11.041 -0.5088  0.0441 -0.0649
   51DOPE  H18R 6530   3.693   0.703  11.083 -0.4878  1.0773  2.6729
   51DOPE  H18S 6531   3.635   0.858  11.098 -1.6425  0.2503 -1.7532
   51DOPE  H18T 6532   3.820   0.820  11.072  0.1249 -1.4793 -1.3238
   51DOPE   C33 6533   4.036   0.718   9.454  0.1660  0.4912 -0.3260
   51DOPE   H3X 6534   4.140   0.688   9.431  0.5805  0.1168  1.8253
   51DOPE   H3Y 6535   3.964   0.663   9.389 -0.3393 -0.2659  0.8338
   51DOPE   C34 6536   4.015   0.676   9.606  0.0278 -0.0366 -0.0909
   51DOPE   H4X 6537   3.908   0.689   9.633 -0.6282 -0.6200 -2.2576
   51DOPE   H4Y 6538   4.029   0.567   9.622 -0.3832 -0.2908 -1.3909
   51DOPE   C35 6539   4.092   0.764   9.713 -0.3375  0.6108  0.5919
   51DOPE   H5X 6540   4.034   0.858   9.707 -2.0227 -0.3630  0.8559
   51DOPE   H5Y 6541   4.195   0.782   9.676 -0.0201 -0.9536  0.6388
   51DOPE   C36 6542   4.087   0.707   9.860 -0.0593  0.2913  0.0027
   51DOPE   H6X 6543   4.165   0.767   9.913 -2.9186  1.3026  3.4534
   51DOPE   H6Y 6544   4.128   0.604   9.857  1.2584  0.8117 -0.6863
   51DOPE   C37 6545   3.957   0.749   9.926  0.3520  0.2447  0.2460
   51DOPE   H7X 6546   3.947   0.856   9.898 -0.0013 -0.3179 -1.9107
   51DOPE   H7Y 6547   3.860   0.701   9.904 -0.0939  1.0265  0.4849
   51DOPE   C38 6548   3.964   0.741  10.089 -0.4189 -0.5588  0.6420
   51DOPE   H8X 6549   3.862   0.773  10.119  0.4261  0.8521  2.1416
   51DOPE   H8Y 6550   4.021   0.823  10.137  0.3092 -1.0451  0.6263
   51DOPE   C39 6551   4.006   0.608  10.139  0.6561 -0.7976 -0.3892
   51DOPE   H9X 6552   4.004   0.527  10.064  2.0622 -1.4550  0.2570
   51DOPE  C310 6553   4.034   0.584  10.269  0.1025  0.2599 -0.0759
   51DOPE  H10X 6554   4.067   0.482  10.293  0.4577  0.8454  2.0619
   51DOPE  C311 6555   4.047   0.680  10.383  0.1543 -0.8138 -0.1261
   51DOPE  H11X 6556   4.157   0.678  10.401  0.2042  0.1455 -0.2885
   51DOPE  H11Y 6557   4.017   0.785  10.362  0.7588 -0.4765  0.6534
   51DOPE  C312 6558   3.982   0.647  10.516  0.1096  0.1564 -0.4415
   51DOPE  H12X 6559   3.872   0.637  10.505  0.2308 -2.0324  0.0059
   51DOPE  H12Y 6560   3.999   0.728  10.590  1.6892 -0.5782  0.0311
   51DOPE  C313 6561   4.038   0.522  10.580 -0.7881 -0.0230 -0.1896
   51DOPE  H13X 6562   4.002   0.435  10.520  1.3886 -0.8079 -0.4624
   51DOPE  H13Y 6563   4.149   0.519  10.584 -0.7243  1.9069  0.1578
   51DOPE  C314 6564   3.989   0.501  10.722 -0.2389 -1.1647  0.5933
   51DOPE  H14X 6565   3.989   0.390  10.737 -0.8055 -0.9878  2.0587
   51DOPE  H14Y 6566   3.884   0.538  10.723  0.2744  0.4304 -0.6798
   51DOPE  C315 6567   4.075   0.558  10.829 -0.1173 -0.4002  0.0462
   51DOPE  H15X 6568   4.083   0.664  10.797 -0.1203 -0.1667  0.7932
   51DOPE  H15Y 6569   4.174   0.508  10.823  0.3462  0.6537 -1.9225
   51DOPE  C316 6570   4.022   0.547  10.970  0.8956 -1.2162  0.2543
   51DOPE  H16X 6571   4.002   0.439  10.986 -0.4755 -0.8412  1.3921
   51DOPE  H16Y 6572   3.930   0.610  10.971  1.1890 -0.7718 -0.1983
   51DOPE  C317 6573   4.128   0.589  11.077 -0.1387 -0.4363 -0.4478
   51DOPE  H17X 6574   4.215   0.522  11.094 -0.8057 -0.5656  3.1484
   51DOPE  H17Y 6575   4.176   0.683  11.041  2.1444 -0.8526  1.3279
   51DOPE  C318 6576   4.068   0.607  11.217 -0.3229 -0.0120 -0.2998
   51DOPE  H18X 6577   4.144   0.626  11.295  0.0086 -1.0692 -0.3508
   51DOPE  H18Y 6578   3.988   0.684  11.222 -1.3748 -1.0811 -0.0043
   51DOPE  H18Z 6579   4.021   0.513  11.253  0.2175 -0.1933 -0.0608
   52DOPE     N 6580   0.828   3.433   9.072 -0.0606  0.0535  0.3547
   52DOPE   HN1 6581   0.902   3.482   9.018 -1.9150  2.6920  0.0037
   52DOPE   HN2 6582   0.821   3.332   9.052  0.6150  0.2912 -1.1719
   52DOPE   HN3 6583   0.734   3.466   9.042 -0.3687 -0.6006  0.5976
   52DOPE   C12 6584   0.839   3.440   9.221 -0.0934  0.0927  0.0274
   52DOPE  H12A 6585   0.926   3.376   9.248  0.9752  0.9742 -1.1809
   52DOPE  H12B 6586   0.749   3.385   9.257 -1.2103 -0.2513 -2.9790
   52DOPE   C11 6587   0.859   3.587   9.259 -0.6946 -0.1435  1.0329
   52DOPE  H11A 6588   0.961   3.606   9.220 -1.6182  0.3777 -1.3363
   52DOPE  H11B 6589   0.866   3.597   9.369  0.2842 -0.7993  1.0412
   52DOPE     P 6590   0.778   3.824   9.230  0.1500  0.3250 -0.0648
   52DOPE   O13 6591   0.691   3.897   9.136 -0.5245 -0.3239  0.4963
   52DOPE   O14 6592   0.921   3.849   9.220  0.4379 -0.9277 -0.0553
   52DOPE   O11 6593   0.728   3.853   9.382 -0.8934  0.5608  0.1303
   52DOPE   O12 6594   0.750   3.669   9.212 -0.2000 -0.5082  0.2261
   52DOPE    C1 6595   0.587   3.861   9.405 -0.2984 -0.1083 -0.5898
   52DOPE    HA 6596   0.550   3.762   9.438  1.0844  0.1966  2.0898
   52DOPE    HB 6597   0.531   3.899   9.317 -2.2185  1.7373  1.3140
   52DOPE    C2 6598   0.561   3.966   9.520 -0.2169 -0.6001 -0.6195
   52DOPE    HS 6599   0.591   4.063   9.476 -1.9634  0.5890  0.6754
   52DOPE   O21 6600   0.636   3.928   9.641  0.0691 -0.3152 -0.1563
   52DOPE   C21 6601   0.621   4.011   9.741  0.0004  0.9516  0.5236
   52DOPE   O22 6602   0.589   4.125   9.733  0.0281  0.2924 -0.5235
   52DOPE   C22 6603   0.643   3.932   9.872 -0.2331 -0.1040  0.9398
   52DOPE   H2R 6604   0.752   3.923   9.888  0.2865  0.7152 -1.7532
   52DOPE   H2S 6605   0.595   3.833   9.857  1.4436 -0.7511 -0.4506
   52DOPE    C3 6606   0.417   3.989   9.552  0.3666  0.5080 -0.4605
   52DOPE    HX 6607   0.364   4.015   9.458 -1.4209 -0.2416  0.2939
   52DOPE    HY 6608   0.407   4.085   9.607  2.5701  0.9031 -0.6542
   52DOPE   O31 6609   0.354   3.886   9.626 -0.1886  0.3087 -0.0974
   52DOPE   C31 6610   0.283   3.788   9.566  0.1654  0.4602  0.2695
   52DOPE   O32 6611   0.272   3.780   9.446 -0.1068 -0.0292 -0.5855
   52DOPE   C32 6612   0.231   3.690   9.669 -0.3940 -0.1138  0.6207
   52DOPE   H2X 6613   0.216   3.591   9.622 -3.7781 -0.1828  1.6270
   52DOPE   H2Y 6614   0.297   3.684   9.758 -0.4928  0.3518  0.7285
   52DOPE   C23 6615   0.581   4.019   9.990  0.1392 -0.2412 -0.6216
   52DOPE   H3R 6616   0.485   4.063   9.955  0.0336 -1.9356 -2.6500
   52DOPE   H3S 6617   0.649   4.104  10.014 -0.2069 -0.1631  0.1000
   52DOPE   C24 6618   0.580   3.927  10.110  0.2940  0.4587  0.7533
   52DOPE   H4R 6619   0.683   3.887  10.116  0.5427  0.2620 -2.7911
   52DOPE   H4S 6620   0.510   3.845  10.086  0.5576  0.2843  0.5753
   52DOPE   C25 6621   0.522   3.984  10.238  0.4962  0.5384 -0.5015
   52DOPE   H5R 6622   0.540   3.908  10.317 -2.4122 -0.4639 -0.6866
   52DOPE   H5S 6623   0.412   4.002  10.235  0.7283  2.4108  0.5988
   52DOPE   C26 6624   0.586   4.109  10.295 -0.4990 -0.1611 -0.6135
   52DOPE   H6R 6625   0.573   4.191  10.221 -0.7931 -0.8263 -1.3176
   52DOPE   H6S 6626   0.694   4.088  10.307 -0.3465  1.3102  0.9968
   52DOPE   C27 6627   0.524   4.164  10.425  0.4387 -0.7035 -0.3646
   52DOPE   H7R 6628   0.414   4.161  10.408  0.5372 -1.7634 -0.8981
   52DOPE   H7S 6629   0.560   4.268  10.434  0.9397 -0.9823  1.3439
   52DOPE   C28 6630   0.564   4.090  10.553  0.5715 -0.0467  0.2040
   52DOPE   H8R 6631   0.612   4.158  10.627  3.4002 -1.9093  0.2459
   52DOPE   H8S 6632   0.654   4.032  10.521  2.0315  2.6368 -0.8731
   52DOPE   C29 6633   0.452   4.013  10.614  0.5293 -0.0190 -0.1398
   52DOPE   H9R 6634   0.404   3.947  10.540 -0.2893  0.0743  0.2946
   52DOPE  C210 6635   0.406   4.013  10.738 -0.0368  0.1317 -0.3808
   52DOPE  H10R 6636   0.320   3.953  10.769  0.3130 -1.0187 -1.5790
   52DOPE  C211 6637   0.458   4.106  10.850 -0.8693  0.3869 -0.3171
   52DOPE  H11R 6638   0.379   4.172  10.889 -2.1405 -0.7595 -0.8760
   52DOPE  H11S 6639   0.546   4.166  10.817 -0.8659  0.3881 -0.3056
   52DOPE  C212 6640   0.502   4.019  10.973 -0.1369  0.0094  0.8227
   52DOPE  H12R 6641   0.587   3.958  10.935  0.3930  0.9348  0.4847
   52DOPE  H12S 6642   0.415   3.958  11.005 -0.6242  0.2033 -0.0665
   52DOPE  C213 6643   0.551   4.114  11.083  0.5762  0.7733  0.2615
   52DOPE  H13R 6644   0.467   4.185  11.098 -0.2529  0.3183 -1.9440
   52DOPE  H13S 6645   0.646   4.166  11.060  0.8730  0.9232  1.7033
   52DOPE  C214 6646   0.582   4.026  11.206  0.1603 -0.2823  0.3549
   52DOPE  H14R 6647   0.498   3.953  11.207  0.9892 -1.3087 -1.0637
   52DOPE  H14S 6648   0.589   4.075  11.306 -1.1658  1.4368 -0.3553
   52DOPE  C215 6649   0.721   3.948  11.201  0.6786 -0.4810 -0.2578
   52DOPE  H15R 6650   0.802   4.025  11.205 -1.9131  2.4086  2.0711
   52DOPE  H15S 6651   0.735   3.910  11.098  3.2766 -0.4240  0.0017
   52DOPE  C216 6652   0.750   3.844  11.304  0.1203 -0.0318 -0.2231
   52DOPE  H16R 6653   0.698   3.750  11.276  0.1752 -0.3994  0.8580
   52DOPE  H16S 6654   0.700   3.859  11.402 -1.3164  0.0787 -0.9477
   52DOPE  C217 6655   0.900   3.811  11.319 -0.2012 -0.3901  0.2951
   52DOPE  H17R 6656   0.949   3.910  11.333  0.8163 -0.9833  1.0376
   52DOPE  H17S 6657   0.936   3.769  11.223  0.4116 -0.3652  0.5054
   52DOPE  C218 6658   0.923   3.715  11.432 -0.6972  0.2877 -0.8631
   52DOPE  H18R 6659   1.026   3.716  11.474 -0.7437 -2.6632 -0.4456
   52DOPE  H18S 6660   0.853   3.736  11.515 -2.2877 -0.4529 -1.9692
   52DOPE  H18T 6661   0.913   3.617  11.381  1.2433 -1.4566  1.8359
   52DOPE   C33 6662   0.083   3.720   9.703 -0.5101 -0.2307 -1.1903
   52DOPE   H3X 6663   0.016   3.708   9.615 -0.5223  2.0548 -1.5440
   52DOPE   H3Y 6664   0.083   3.825   9.740 -0.3814 -0.4081 -0.6798
   52DOPE   C34 6665   0.035   3.631   9.819 -0.3131  0.3810 -0.2913
   52DOPE   H4X 6666  -0.075   3.620   9.828 -0.1006 -3.9316 -0.8803
   52DOPE   H4Y 6667   0.070   3.527   9.800  0.1132  0.8091 -2.0806
   52DOPE   C35 6668   0.096   3.667   9.956  0.5456  0.0550 -0.0997
   52DOPE   H5X 6669   0.063   3.768   9.989  2.1056  0.5082  0.1741
   52DOPE   H5Y 6670   0.205   3.687   9.947  0.3098  0.5634 -2.9445
   52DOPE   C36 6671   0.074   3.559  10.059  0.1485  0.2166  0.5181
   52DOPE   H6X 6672   0.138   3.478  10.016  0.2575  0.5772 -0.0033
   52DOPE   H6Y 6673  -0.031   3.526  10.046  1.2177 -3.1156 -0.8290
   52DOPE   C37 6674   0.101   3.602  10.198  0.1359  0.4819  0.0315
   52DOPE   H7X 6675   0.031   3.684  10.226  0.9446  0.8891  0.9129
   52DOPE   H7Y 6676   0.076   3.510  10.255  1.1745 -0.2796 -0.6984
   52DOPE   C38 6677   0.237   3.656  10.222 -0.1934 -0.3520  0.1025
   52DOPE   H8X 6678   0.240   3.767  10.225  2.8226 -0.3456  2.5083
   52DOPE   H8Y 6679   0.305   3.624  10.140  1.3233  1.3555  0.6226
   52DOPE   C39 6680   0.296   3.617  10.355  0.1278 -0.4342  0.5057
   52DOPE   H9X 6681   0.384   3.552  10.357  0.6280 -0.0010 -2.3249
   52DOPE  C310 6682   0.250   3.653  10.478 -0.3497 -0.0357 -0.4172
   52DOPE  H10X 6683   0.299   3.616  10.569 -1.5181 -0.7316 -0.0498
   52DOPE  C311 6684   0.133   3.748  10.509 -0.9198  0.0515 -0.6897
   52DOPE  H11X 6685   0.175   3.823  10.579 -0.7762 -0.1980 -0.5066
   52DOPE  H11Y 6686   0.087   3.810  10.429  1.5254 -0.1074 -2.3400
   52DOPE  C312 6687   0.006   3.676  10.570  0.4363 -0.3537 -0.0598
   52DOPE  H12X 6688  -0.018   3.584  10.512 -1.1767  0.1315 -0.2120
   52DOPE  H12Y 6689  -0.075   3.744  10.536  2.2543  1.6111 -0.6385
   52DOPE  C313 6690   0.022   3.669  10.721  0.3953  0.3147  0.3225
   52DOPE  H13X 6691  -0.053   3.597  10.762 -0.7757  2.3872  2.0446
   52DOPE  H13Y 6692   0.124   3.626  10.730 -0.1257 -1.2774 -0.8329
   52DOPE  C314 6693  -0.011   3.801  10.786  0.2530 -0.1891  0.0865
   52DOPE  H14X 6694  -0.092   3.848  10.726  0.0282 -1.1435 -0.3693
   52DOPE  H14Y 6695   0.076   3.868  10.773  0.0685 -0.0072 -0.2203
   52DOPE  C315 6696  -0.023   3.787  10.943  1.5520  0.1531  0.0289
   52DOPE  H15X 6697  -0.015   3.888  10.988 -1.0550  0.6018 -0.3604
   52DOPE  H15Y 6698   0.058   3.722  10.984  1.2293 -0.6266 -0.5494
   52DOPE  C316 6699  -0.161   3.740  10.987  0.0739 -0.0482  0.0880
   52DOPE  H16X 6700  -0.176   3.640  10.942 -0.8853  0.5127 -0.9032
   52DOPE  H16Y 6701  -0.250   3.802  10.963 -0.8384 -0.0940  2.9236
   52DOPE  C317 6702  -0.169   3.716  11.136 -0.6368 -0.0504 -0.4624
   52DOPE  H17X 6703  -0.079   3.656  11.159 -0.6843 -0.1444 -0.5222
   52DOPE  H17Y 6704  -0.169   3.809  11.197 -2.5753 -1.6205  2.1110
   52DOPE  C318 6705  -0.293   3.625  11.166 -0.3403  0.4202 -0.7105
   52DOPE  H18X 6706  -0.303   3.615  11.276 -0.3799 -0.7878 -0.8092
   52DOPE  H18Y 6707  -0.390   3.670  11.136 -1.3045 -0.4429  0.9846
   52DOPE  H18Z 6708  -0.292   3.529  11.109 -0.6321  1.0227 -1.7538
   53DOPE     N 6709   6.555   6.694   9.215 -0.0645  0.1028  0.1762
   53DOPE   HN1 6710   6.561   6.596   9.251 -0.5156  0.7193  2.0371
   53DOPE   HN2 6711   6.496   6.689   9.130  1.4817  2.2654 -1.1421
   53DOPE   HN3 6712   6.649   6.732   9.190 -0.3177  0.1973 -0.6530
   53DOPE   C12 6713   6.483   6.784   9.314 -0.2023 -0.8592  0.4101
   53DOPE  H12A 6714   6.383   6.735   9.316  0.7543 -3.3653 -2.6819
   53DOPE  H12B 6715   6.479   6.890   9.284  0.1790 -0.8328  0.4530
   53DOPE   C11 6716   6.543   6.771   9.452 -0.3568  0.7656 -0.1119
   53DOPE  H11A 6717   6.549   6.665   9.484  0.0441  0.8769  0.1881
   53DOPE  H11B 6718   6.462   6.810   9.518 -0.6040  0.0382  0.0256
   53DOPE     P 6719   6.680   6.992   9.491  0.0495 -0.0534  0.1714
   53DOPE   O13 6720   6.583   7.066   9.404 -0.4047  0.0562 -0.4872
   53DOPE   O14 6721   6.821   7.025   9.477 -0.7176  0.1250  0.0928
   53DOPE   O11 6722   6.645   7.018   9.640  0.0175  0.8437 -0.5242
   53DOPE   O12 6723   6.669   6.835   9.480  0.0993  0.4461 -0.0639
   53DOPE    C1 6724   6.624   6.922   9.741 -0.5390 -0.1815 -0.3839
   53DOPE    HA 6725   6.587   6.821   9.712 -2.5262  0.0888  1.0186
   53DOPE    HB 6726   6.544   6.960   9.808 -2.1166 -1.5561 -1.4146
   53DOPE    C2 6727   6.756   6.893   9.820 -0.2063 -0.1137  0.4329
   53DOPE    HS 6728   6.820   6.832   9.753 -0.6386  1.6362 -1.6649
   53DOPE   O21 6729   6.720   6.826   9.940 -0.0772 -0.0520  0.3967
   53DOPE   C21 6730   6.675   6.705   9.929  0.6841 -0.1325 -0.3464
   53DOPE   O22 6731   6.681   6.635   9.832  0.3396  0.3504  0.2129
   53DOPE   C22 6732   6.626   6.652  10.065  0.6354 -0.3159  0.2809
   53DOPE   H2R 6733   6.573   6.558  10.038  1.2958 -1.1437  1.7607
   53DOPE   H2S 6734   6.561   6.724  10.119 -0.0428  0.5269 -1.5435
   53DOPE    C3 6735   6.818   7.028   9.862  0.1239 -0.4571 -0.2014
   53DOPE    HX 6736   6.743   7.083   9.922  1.0970 -0.0741  0.6847
   53DOPE    HY 6737   6.841   7.088   9.771 -1.9522 -1.6417 -1.6004
   53DOPE   O31 6738   6.944   7.007   9.925 -0.1528  0.8946  0.4507
   53DOPE   C31 6739   6.947   7.021  10.057  0.5957  0.3992  0.6739
   53DOPE   O32 6740   6.847   7.044  10.121 -0.1112 -0.0861 -0.4916
   53DOPE   C32 6741   7.086   6.999  10.115  0.9842 -0.1648 -0.5869
   53DOPE   H2X 6742   7.092   6.893  10.147  3.0686 -0.7390 -2.6253
   53DOPE   H2Y 6743   7.169   7.012  10.043  1.1767 -1.6482 -0.6568
   53DOPE   C23 6744   6.756   6.618  10.151  0.5668 -0.1964  0.0355
   53DOPE   H3R 6745   6.845   6.674  10.115  0.6578 -0.2191  0.2238
   53DOPE   H3S 6746   6.787   6.514  10.126  0.5768 -0.6935  1.9966
   53DOPE   C24 6747   6.745   6.652  10.297 -0.3079 -0.1088 -0.5771
   53DOPE   H4R 6748   6.699   6.752  10.304  1.0879  0.4538  1.1209
   53DOPE   H4S 6749   6.847   6.670  10.335 -0.0180 -0.3642 -1.2162
   53DOPE   C25 6750   6.666   6.546  10.371 -0.3710 -0.6407  0.0528
   53DOPE   H5R 6751   6.726   6.453  10.369 -0.1896 -0.5487  0.9014
   53DOPE   H5S 6752   6.564   6.528  10.331 -0.8911 -0.8056  1.3722
   53DOPE   C26 6753   6.640   6.572  10.525 -0.3664 -0.0730  0.1444
   53DOPE   H6R 6754   6.595   6.479  10.566 -0.7785  0.3629  0.7058
   53DOPE   H6S 6755   6.561   6.649  10.541 -0.5510 -0.0821 -0.6647
   53DOPE   C27 6756   6.767   6.609  10.601 -0.1043 -0.1372  0.5592
   53DOPE   H7R 6757   6.839   6.670  10.542 -1.9011  0.0211 -1.5954
   53DOPE   H7S 6758   6.818   6.511  10.620 -0.9702 -1.1840 -2.0777
   53DOPE   C28 6759   6.745   6.684  10.729 -0.1273 -0.3683  0.3296
   53DOPE   H8R 6760   6.677   6.771  10.718  0.6864  0.1118 -1.1546
   53DOPE   H8S 6761   6.841   6.726  10.767  0.3710 -2.5662  1.6876
   53DOPE   C29 6762   6.685   6.600  10.833 -0.5424 -0.2266 -1.1924
   53DOPE   H9R 6763   6.730   6.501  10.847 -0.1834  0.0595 -0.2080
   53DOPE  C210 6764   6.613   6.651  10.943 -0.0124 -0.2912  0.5142
   53DOPE  H10R 6765   6.584   6.584  11.025  0.7715 -4.2240 -2.1581
   53DOPE  C211 6766   6.566   6.792  10.948 -0.3225 -1.0697 -0.4403
   53DOPE  H11R 6767   6.491   6.821  10.872 -0.1745  0.9421  0.1306
   53DOPE  H11S 6768   6.644   6.867  10.921 -2.1071  0.7263 -0.8019
   53DOPE  C212 6769   6.502   6.842  11.086  0.0629 -0.3402  0.5640
   53DOPE  H12R 6770   6.424   6.767  11.109 -0.8974  0.7123  0.8450
   53DOPE  H12S 6771   6.442   6.932  11.062 -0.1022 -0.9350 -1.4076
   53DOPE  C213 6772   6.604   6.870  11.203 -0.0337  0.6073 -0.6271
   53DOPE  H13R 6773   6.543   6.924  11.279  1.4939  1.3492  0.1299
   53DOPE  H13S 6774   6.693   6.930  11.173  0.0752  1.2788  0.9873
   53DOPE  C214 6775   6.644   6.741  11.278 -0.5116 -0.1752  0.3206
   53DOPE  H14R 6776   6.716   6.681  11.219  1.9383  0.9491  1.9840
   53DOPE  H14S 6777   6.558   6.675  11.300 -1.1976 -0.4945 -2.9235
   53DOPE  C215 6778   6.709   6.771  11.417 -0.3650  0.0052  0.3259
   53DOPE  H15R 6779   6.638   6.825  11.483 -2.5435  0.3466 -2.1395
   53DOPE  H15S 6780   6.807   6.825  11.410  0.3331 -1.3396 -0.6412
   53DOPE  C216 6781   6.747   6.638  11.491  0.3677 -0.1513 -1.1609
   53DOPE  H16R 6782   6.804   6.571  11.423  1.1461  1.2128 -1.8977
   53DOPE  H16S 6783   6.650   6.589  11.515 -0.5028  2.2399  0.6622
   53DOPE  C217 6784   6.829   6.671  11.612  0.3792  0.1353 -0.0710
   53DOPE  H17R 6785   6.767   6.724  11.688  0.7531 -1.0653  1.1214
   53DOPE  H17S 6786   6.911   6.744  11.600  1.1826 -0.6427  0.4863
   53DOPE  C218 6787   6.890   6.547  11.672  0.0683 -0.0097 -0.6431
   53DOPE  H18R 6788   6.828   6.488  11.743 -0.0283  2.3689  1.3812
   53DOPE  H18S 6789   6.986   6.577  11.720  0.1970 -0.2677 -0.7348
   53DOPE  H18T 6790   6.935   6.479  11.596  1.6403  2.4086 -2.0357
   53DOPE   C33 6791   7.111   7.082  10.246 -0.0873 -0.7282 -0.7855
   53DOPE   H3X 6792   7.054   7.177  10.252 -2.5110 -2.0023 -1.8738
   53DOPE   H3Y 6793   7.220   7.100  10.252  0.0912 -1.7415 -0.8547
   53DOPE   C34 6794   7.095   7.003  10.379 -0.0620 -0.9149  0.3366
   53DOPE   H4X 6795   7.000   6.944  10.383 -1.2012  0.7150 -1.3693
   53DOPE   H4Y 6796   7.177   6.928  10.374  0.3617 -0.3934 -2.9233
   53DOPE   C35 6797   7.100   7.097  10.500 -0.9627 -0.4791 -0.0292
   53DOPE   H5X 6798   7.010   7.160  10.514  1.3134  2.7515  1.7124
   53DOPE   H5Y 6799   7.177   7.175  10.479 -0.2030 -1.3113 -0.3946
   53DOPE   C36 6800   7.117   7.019  10.627  0.2279 -0.2440 -0.3941
   53DOPE   H6X 6801   7.218   6.973  10.620 -0.5720 -2.1546  0.1877
   53DOPE   H6Y 6802   7.038   6.942  10.634 -2.0120  1.8338 -1.2621
   53DOPE   C37 6803   7.106   7.103  10.760  0.3697 -0.2293 -0.4949
   53DOPE   H7X 6804   7.177   7.187  10.751  0.1535  0.2112  1.3866
   53DOPE   H7Y 6805   7.005   7.150  10.766  1.2317  1.6657 -0.2212
   53DOPE   C38 6806   7.147   7.016  10.882 -0.2789 -0.2353 -0.3086
   53DOPE   H8X 6807   7.187   7.081  10.962  2.6639 -1.4327 -0.6602
   53DOPE   H8Y 6808   7.236   6.953  10.859 -1.3051 -1.3166 -1.4814
   53DOPE   C39 6809   7.028   6.937  10.942 -0.0791  0.0021 -0.1976
   53DOPE   H9X 6810   7.037   6.829  10.930  0.9513 -0.0984  1.1869
   53DOPE  C310 6811   6.935   6.985  11.019 -0.2017 -0.2073 -0.2133
   53DOPE  H10X 6812   6.861   6.913  11.056  2.6712 -1.5581  3.4745
   53DOPE  C311 6813   6.910   7.137  11.059  0.9715  0.6000 -0.2581
   53DOPE  H11X 6814   6.975   7.209  11.003 -0.0189  1.2249 -0.6199
   53DOPE  H11Y 6815   6.804   7.163  11.039 -0.0707 -1.8455  1.5688
   53DOPE  C312 6816   6.927   7.136  11.210  0.7296  0.3648  0.3315
   53DOPE  H12X 6817   7.028   7.096  11.234  2.0317  0.8762 -3.6333
   53DOPE  H12Y 6818   6.840   7.089  11.259  0.3217  1.8928  1.1555
   53DOPE  C313 6819   6.915   7.270  11.280 -0.8160  1.0621 -0.1955
   53DOPE  H13X 6820   6.988   7.335  11.227  0.6497 -0.6565 -0.3747
   53DOPE  H13Y 6821   6.812   7.312  11.268 -1.1604  0.5464  0.8600
   53DOPE  C314 6822   6.950   7.264  11.433 -0.4660 -0.5877  0.5359
   53DOPE  H14X 6823   6.975   7.369  11.460  0.6465 -0.4024 -1.0870
   53DOPE  H14Y 6824   7.052   7.221  11.436  0.4006  1.3019 -0.2384
   53DOPE  C315 6825   6.845   7.195  11.518  1.1126 -0.6301  0.3757
   53DOPE  H15X 6826   6.833   7.090  11.484  1.7580 -0.2695 -1.0486
   53DOPE  H15Y 6827   6.744   7.241  11.522  0.9124 -1.1156  1.2363
   53DOPE  C316 6828   6.897   7.203  11.668  0.0834 -0.0547 -0.0456
   53DOPE  H16X 6829   6.907   7.310  11.695  0.4344 -0.5692  2.0487
   53DOPE  H16Y 6830   6.992   7.146  11.672 -0.5887 -1.3373 -1.4427
   53DOPE  C317 6831   6.796   7.157  11.778 -0.3543  0.5823  0.0501
   53DOPE  H17X 6832   6.844   7.153  11.878 -1.7620  1.2057  0.7762
   53DOPE  H17Y 6833   6.708   7.224  11.779 -1.7861 -1.2091  1.1515
   53DOPE  C318 6834   6.750   7.017  11.744  0.1565 -0.3723  0.0469
   53DOPE  H18X 6835   6.709   7.006  11.642  1.9613  3.0395 -1.2109
   53DOPE  H18Y 6836   6.833   6.944  11.753  1.0846  0.5552 -0.7625
   53DOPE  H18Z 6837   6.674   6.995  11.822 -2.3975  2.0706 -1.5549
   54DOPE     N 6838   2.659   4.045   8.978  0.0405  0.4188 -0.1474
   54DOPE   HN1 6839   2.633   4.146   8.987 -0.7201  0.1426  0.9444
   54DOPE   HN2 6840   2.648   3.997   9.069 -0.3328 -0.2529 -0.5392
   54DOPE   HN3 6841   2.751   4.029   8.932 -0.2401 -2.7918  0.1844
   54DOPE   C12 6842   2.559   3.971   8.879  0.2223  0.0821  0.2306
   54DOPE  H12A 6843   2.602   3.869   8.868  0.7291  0.3151  0.0065
   54DOPE  H12B 6844   2.568   4.035   8.789  0.6281 -1.0654 -0.5583
   54DOPE   C11 6845   2.410   3.979   8.922  0.2271  0.0802 -0.0286
   54DOPE  H11A 6846   2.408   3.918   9.014  1.9321  0.0930  0.0569
   54DOPE  H11B 6847   2.344   3.944   8.840  0.4906  0.3751 -0.3730
   54DOPE     P 6848   2.235   4.154   8.992 -0.0421 -0.0256 -0.1667
   54DOPE   O13 6849   2.156   4.096   8.884 -0.0806 -0.7883 -0.2768
   54DOPE   O14 6850   2.226   4.297   9.020 -0.3351 -0.2465 -0.0738
   54DOPE   O11 6851   2.218   4.079   9.129 -0.2751 -0.4469 -0.7324
   54DOPE   O12 6852   2.382   4.116   8.953  0.1077  0.3990  0.2099
   54DOPE    C1 6853   2.320   4.101   9.229  0.4433 -0.4518  0.5366
   54DOPE    HA 6854   2.294   4.197   9.280 -0.6167 -0.3702 -0.1133
   54DOPE    HB 6855   2.422   4.106   9.186  0.0416  0.7030 -0.3409
   54DOPE    C2 6856   2.334   3.976   9.318 -0.1051 -0.2824 -1.0515
   54DOPE    HS 6857   2.438   3.978   9.359 -0.5299  1.3510  0.0424
   54DOPE   O21 6858   2.311   3.854   9.242 -0.2591 -0.4180  0.0756
   54DOPE   C21 6859   2.361   3.738   9.284 -0.5228 -0.6363 -0.1260
   54DOPE   O22 6860   2.431   3.723   9.385 -0.6560  0.0780 -0.7081
   54DOPE   C22 6861   2.305   3.630   9.198 -0.4773  0.2959  0.3019
   54DOPE   H2R 6862   2.333   3.645   9.091  1.0918  2.3207  0.9200
   54DOPE   H2S 6863   2.196   3.649   9.190 -0.4649  0.1654 -0.2373
   54DOPE    C3 6864   2.230   3.989   9.431 -0.6417  0.4249  0.2349
   54DOPE    HX 6865   2.131   4.014   9.388 -0.4109 -0.1556 -0.6535
   54DOPE    HY 6866   2.270   4.074   9.491  0.1604  0.3954 -0.2472
   54DOPE   O31 6867   2.217   3.876   9.520 -0.5061 -0.1646  0.2882
   54DOPE   C31 6868   2.310   3.856   9.617  0.2308  0.2250 -0.7815
   54DOPE   O32 6869   2.395   3.932   9.653 -0.0554  0.1636  0.0466
   54DOPE   C32 6870   2.296   3.713   9.682 -0.7376  0.7262  0.2380
   54DOPE   H2X 6871   2.188   3.690   9.678 -0.5489 -0.2364  0.4753
   54DOPE   H2Y 6872   2.339   3.644   9.606  1.5375  0.5353  1.5812
   54DOPE   C23 6873   2.321   3.490   9.266 -0.3720 -0.1982 -0.5957
   54DOPE   H3R 6874   2.425   3.485   9.306  0.1899  2.3226 -1.5991
   54DOPE   H3S 6875   2.306   3.406   9.195 -0.0423 -0.1793 -0.6858
   54DOPE   C24 6876   2.228   3.463   9.378  0.5187  0.4707 -0.6343
   54DOPE   H4R 6877   2.129   3.441   9.333 -1.4113 -0.1396  3.4749
   54DOPE   H4S 6878   2.208   3.550   9.444 -0.8933  0.4595 -1.0233
   54DOPE   C25 6879   2.265   3.332   9.456 -0.1408 -1.1502  0.1336
   54DOPE   H5R 6880   2.375   3.332   9.474  0.3153  1.4984 -1.8855
   54DOPE   H5S 6881   2.258   3.248   9.384  1.8923 -0.7151 -0.6521
   54DOPE   C26 6882   2.182   3.330   9.587 -0.3247 -0.0263  0.7967
   54DOPE   H6R 6883   2.076   3.347   9.557  0.1825  1.0289 -0.4806
   54DOPE   H6S 6884   2.207   3.415   9.654 -2.1784  1.9981 -0.9275
   54DOPE   C27 6885   2.202   3.193   9.660 -0.0969  0.6536 -0.1401
   54DOPE   H7R 6886   2.312   3.180   9.668  0.1847  0.9628 -2.5930
   54DOPE   H7S 6887   2.179   3.117   9.583 -0.4348  1.0998 -0.4852
   54DOPE   C28 6888   2.115   3.182   9.785 -0.8132  0.1471  0.6256
   54DOPE   H8R 6889   2.098   3.074   9.807 -0.7683 -0.3350 -1.4912
   54DOPE   H8S 6890   2.009   3.213   9.775 -0.3745  1.4002 -0.4869
   54DOPE   C29 6891   2.182   3.261   9.902  0.1712 -0.1826  0.1764
   54DOPE   H9R 6892   2.218   3.357   9.862  1.2016 -1.0175 -0.9683
   54DOPE  C210 6893   2.198   3.219  10.030 -0.4814 -0.1669  0.0031
   54DOPE  H10R 6894   2.264   3.273  10.099 -3.0123  1.5890  1.2187
   54DOPE  C211 6895   2.150   3.089  10.088  0.4844 -0.4940 -0.0192
   54DOPE  H11R 6896   2.228   3.022  10.133  0.4676 -1.4160 -1.3130
   54DOPE  H11S 6897   2.099   3.030  10.009 -1.1718 -1.9168  2.0056
   54DOPE  C212 6898   2.043   3.098  10.207  0.0832 -0.0783  0.4084
   54DOPE  H12R 6899   2.014   2.991  10.224  1.5862 -0.7207 -0.8614
   54DOPE  H12S 6900   1.954   3.161  10.186  1.4508  2.6125  2.1894
   54DOPE  C213 6901   2.106   3.153  10.338  0.7015 -0.3621  0.2251
   54DOPE  H13R 6902   2.134   3.258  10.318 -0.2731  0.2722  1.9606
   54DOPE  H13S 6903   2.199   3.098  10.362 -0.3536 -2.1040  0.5381
   54DOPE  C214 6904   2.019   3.152  10.463 -0.7781 -0.2261  0.1019
   54DOPE  H14R 6905   2.001   3.050  10.503 -3.9805 -0.8923 -2.6551
   54DOPE  H14S 6906   1.922   3.205  10.454 -2.3025 -2.6675  1.0972
   54DOPE  C215 6907   2.099   3.230  10.569  0.1812  0.0924  0.2920
   54DOPE  H15R 6908   2.112   3.329  10.522  1.6196 -0.4249 -0.4542
   54DOPE  H15S 6909   2.195   3.174  10.580 -0.6569 -1.1100  1.9778
   54DOPE  C216 6910   2.022   3.244  10.706  0.6649 -0.0399 -0.0874
   54DOPE  H16R 6911   1.917   3.277  10.692  1.7079  2.6083 -2.4419
   54DOPE  H16S 6912   2.081   3.323  10.756  2.2623 -0.9234 -0.5058
   54DOPE  C217 6913   2.051   3.121  10.798  1.0881  0.2114  0.2301
   54DOPE  H17R 6914   2.160   3.100  10.798  0.9060 -1.0478 -2.1833
   54DOPE  H17S 6915   2.002   3.042  10.738 -2.1406  0.6500  2.0588
   54DOPE  C218 6916   1.986   3.133  10.941 -0.3990  0.2514  0.6076
   54DOPE  H18R 6917   1.996   3.237  10.978 -1.0744  0.1014  1.2369
   54DOPE  H18S 6918   2.049   3.066  11.003  0.2289  0.1589 -0.1275
   54DOPE  H18T 6919   1.879   3.102  10.950 -0.3278 -0.0619  0.3952
   54DOPE   C33 6920   2.351   3.697   9.822 -0.3318  0.1540  0.2934
   54DOPE   H3X 6921   2.457   3.730   9.817 -0.5657  0.8317 -0.4397
   54DOPE   H3Y 6922   2.347   3.587   9.840 -2.6143  0.1809  0.1362
   54DOPE   C34 6923   2.276   3.781   9.931 -0.2885 -0.0028 -0.3032
   54DOPE   H4X 6924   2.270   3.887   9.900  0.8241  0.3478  0.6037
   54DOPE   H4Y 6925   2.177   3.732   9.941 -0.1520 -0.2619 -0.2064
   54DOPE   C35 6926   2.349   3.772  10.065 -0.2127 -0.0778 -1.0493
   54DOPE   H5X 6927   2.299   3.828  10.146 -0.8446 -3.0343  0.7479
   54DOPE   H5Y 6928   2.457   3.798  10.052 -0.3888  1.3272  0.0419
   54DOPE   C36 6929   2.357   3.633  10.133 -0.2794  0.3078  0.2037
   54DOPE   H6X 6930   2.449   3.630  10.194 -0.5587  1.2930  0.6971
   54DOPE   H6Y 6931   2.373   3.557  10.053  1.2901  1.0583 -0.2283
   54DOPE   C37 6932   2.235   3.608  10.231  0.1969 -0.4811 -0.3472
   54DOPE   H7X 6933   2.270   3.537  10.309 -1.0681 -1.1794 -0.3891
   54DOPE   H7Y 6934   2.200   3.703  10.275 -1.3653  0.0153 -2.4869
   54DOPE   C38 6935   2.116   3.543  10.163  0.7837 -0.2978 -0.5347
   54DOPE   H8X 6936   2.151   3.462  10.094 -3.3479 -2.7046 -0.1564
   54DOPE   H8Y 6937   2.095   3.628  10.094  1.7224  0.0850 -0.3524
   54DOPE   C39 6938   1.993   3.490  10.237  0.8200  0.1870  0.4793
   54DOPE   H9X 6939   2.014   3.474  10.344  2.3914 -2.8103 -0.1825
   54DOPE  C310 6940   1.873   3.447  10.184  0.1917 -0.0702  0.2514
   54DOPE  H10X 6941   1.788   3.440  10.253 -0.7158 -1.1956 -0.9480
   54DOPE  C311 6942   1.842   3.439  10.036  0.1061 -0.4649 -0.3375
   54DOPE  H11X 6943   1.933   3.461   9.975 -1.1423  2.6041 -1.2885
   54DOPE  H11Y 6944   1.807   3.338  10.004 -1.3203  0.5333 -2.1184
   54DOPE  C312 6945   1.736   3.535   9.996 -0.0929  0.4820 -0.4107
   54DOPE  H12X 6946   1.643   3.540  10.057 -0.9917 -0.4738 -1.6576
   54DOPE  H12Y 6947   1.695   3.517   9.895 -2.0755  1.4098  0.1904
   54DOPE  C313 6948   1.785   3.682   9.986  0.3310 -0.0194  0.0706
   54DOPE  H13X 6949   1.694   3.744  10.001  0.4460  0.4739 -1.2011
   54DOPE  H13Y 6950   1.865   3.703  10.060  0.3749 -1.8732  0.5871
   54DOPE  C314 6951   1.824   3.724   9.836  0.5679 -0.6515  0.4552
   54DOPE  H14X 6952   1.736   3.700   9.772  1.0473 -1.2360 -0.0060
   54DOPE  H14Y 6953   1.906   3.662   9.794 -0.6788 -1.3448 -1.0679
   54DOPE  C315 6954   1.856   3.878   9.826  0.2072 -0.5370  0.4896
   54DOPE  H15X 6955   1.951   3.903   9.877  0.2519  1.6687 -0.5344
   54DOPE  H15Y 6956   1.777   3.939   9.874 -0.8856 -1.4396 -0.1276
   54DOPE  C316 6957   1.864   3.916   9.677  0.4815 -0.4869  0.3632
   54DOPE  H16X 6958   1.762   3.889   9.644 -0.3757  0.1959  2.2939
   54DOPE  H16Y 6959   1.940   3.853   9.626  2.6554  2.0923  0.2078
   54DOPE  C317 6960   1.889   4.062   9.653 -0.6051  0.6087  0.1368
   54DOPE  H17X 6961   1.901   4.075   9.543 -0.4585  1.8730  0.2919
   54DOPE  H17Y 6962   1.802   4.120   9.690 -0.7231  4.0923 -4.6375
   54DOPE  C318 6963   2.017   4.111   9.715 -0.3293 -0.2293  0.4409
   54DOPE  H18X 6964   2.002   4.101   9.825  0.5806  1.4517  0.7450
   54DOPE  H18Y 6965   2.108   4.052   9.692  0.3480  0.6435  0.8719
   54DOPE  H18Z 6966   2.035   4.218   9.694  0.2801  0.3856  3.6191
   55DOPE     N 6967   1.392   4.732   8.937 -0.5853  0.0036  0.2195
   55DOPE   HN1 6968   1.350   4.788   8.860  2.1932  0.0244 -1.4114
   55DOPE   HN2 6969   1.471   4.695   8.881 -1.0818 -2.5445  1.0634
   55DOPE   HN3 6970   1.329   4.650   8.952 -0.8812  0.1476 -0.2080
   55DOPE   C12 6971   1.422   4.807   9.066  0.2657  0.4740  1.2260
   55DOPE  H12A 6972   1.324   4.815   9.118 -3.0542 -2.3245 -3.7008
   55DOPE  H12B 6973   1.451   4.912   9.045 -2.9152  1.6644  2.1294
   55DOPE   C11 6974   1.519   4.739   9.159 -0.0874  0.1993 -0.3693
   55DOPE  H11A 6975   1.486   4.633   9.166  0.4722 -0.0085 -0.7862
   55DOPE  H11B 6976   1.506   4.775   9.264  2.5677 -2.5868  1.0944
   55DOPE     P 6977   1.759   4.849   9.155 -0.3873 -0.1678  0.4234
   55DOPE   O13 6978   1.679   4.971   9.177 -0.0100  0.1696 -0.1552
   55DOPE   O14 6979   1.862   4.852   9.048 -0.3592  0.4659 -0.6242
   55DOPE   O11 6980   1.828   4.802   9.283 -0.1822  0.4466  0.1197
   55DOPE   O12 6981   1.659   4.736   9.119  0.1342  0.4081  0.0514
   55DOPE    C1 6982   1.800   4.684   9.355 -0.9200  0.1346 -0.2134
   55DOPE    HA 6983   1.869   4.600   9.331 -0.5231  0.5902 -0.6760
   55DOPE    HB 6984   1.696   4.650   9.340 -0.2872 -1.8101 -0.5291
   55DOPE    C2 6985   1.837   4.705   9.503  0.6053  0.8383  0.1909
   55DOPE    HS 6986   1.947   4.714   9.508  0.7800 -1.0666  0.5283
   55DOPE   O21 6987   1.788   4.587   9.570  0.0783  0.7076 -0.8540
   55DOPE   C21 6988   1.855   4.572   9.685  0.1497  0.0032  0.3259
   55DOPE   O22 6989   1.955   4.636   9.718  0.2827  0.0208 -0.5700
   55DOPE   C22 6990   1.783   4.460   9.768  0.2889 -0.5214  0.5470
   55DOPE   H2R 6991   1.784   4.367   9.707 -0.2448  0.0875 -0.4169
   55DOPE   H2S 6992   1.678   4.496   9.776  0.2169 -0.9373  1.7210
   55DOPE    C3 6993   1.776   4.837   9.559 -0.2041 -0.4192  0.0933
   55DOPE    HX 6994   1.672   4.833   9.521  0.1466 -3.7380 -0.8126
   55DOPE    HY 6995   1.823   4.928   9.516 -0.3182 -0.9334 -1.1794
   55DOPE   O31 6996   1.767   4.841   9.705  0.7426 -0.3937 -0.8974
   55DOPE   C31 6997   1.848   4.921   9.771  0.3102  0.5969  0.2615
   55DOPE   O32 6998   1.937   4.979   9.721  0.0103 -0.1734  0.5695
   55DOPE   C32 6999   1.805   4.915   9.921  0.6040  0.1857  0.4183
   55DOPE   H2X 7000   1.749   5.009   9.942 -0.5869 -0.1815 -0.9426
   55DOPE   H2Y 7001   1.728   4.836   9.933  1.1647 -0.5039 -0.4649
   55DOPE   C23 7002   1.851   4.459   9.902  0.1498 -0.8941 -0.3525
   55DOPE   H3R 7003   1.896   4.556   9.931  0.6240 -0.6778 -1.7174
   55DOPE   H3S 7004   1.941   4.393   9.894  1.6935  1.1416 -0.5567
   55DOPE   C24 7005   1.772   4.390  10.015  0.0369 -0.1533 -0.5388
   55DOPE   H4R 7006   1.734   4.298   9.965 -1.3290  1.3104 -2.3852
   55DOPE   H4S 7007   1.688   4.451  10.055 -0.9529 -1.0210 -1.2406
   55DOPE   C25 7008   1.867   4.352  10.138  1.0586 -0.7801 -0.1722
   55DOPE   H5R 7009   1.795   4.344  10.222  0.7075  0.3109 -0.3586
   55DOPE   H5S 7010   1.938   4.437  10.151  0.0061  0.0322  0.4215
   55DOPE   C26 7011   1.932   4.211  10.133 -0.6787 -0.8095  0.4696
   55DOPE   H6R 7012   1.997   4.198  10.044  1.6135  0.4966  1.8706
   55DOPE   H6S 7013   1.848   4.138  10.123 -0.8223 -0.3611 -2.8972
   55DOPE   C27 7014   2.021   4.198  10.256  0.5466  0.0980 -0.6138
   55DOPE   H7R 7015   1.966   4.236  10.345  1.9598  0.9383 -0.0547
   55DOPE   H7S 7016   2.103   4.272  10.241 -1.2698  2.2077 -0.8388
   55DOPE   C28 7017   2.075   4.054  10.280  0.8489 -0.2323  0.3997
   55DOPE   H8R 7018   2.155   4.067  10.356  1.9215 -0.3396 -0.6855
   55DOPE   H8S 7019   2.130   4.011  10.194 -1.6119 -0.5035 -1.1336
   55DOPE   C29 7020   1.968   3.951  10.314 -0.7188 -0.2209 -0.4916
   55DOPE   H9R 7021   1.874   3.970  10.259 -0.8139 -1.5340 -0.8238
   55DOPE  C210 7022   1.973   3.865  10.423 -0.1382 -0.2674 -0.3727
   55DOPE  H10R 7023   1.890   3.807  10.465  0.7696  0.3838  2.5096
   55DOPE  C211 7024   2.089   3.858  10.511 -0.1409  0.0776 -0.4271
   55DOPE  H11R 7025   2.086   3.942  10.584 -1.1086  0.3368 -0.7569
   55DOPE  H11S 7026   2.180   3.870  10.447  0.1068 -0.3541 -0.1656
   55DOPE  C212 7027   2.100   3.739  10.615  0.5079  0.4854  0.1743
   55DOPE  H12R 7028   2.195   3.762  10.669  1.1966 -0.8395 -0.4309
   55DOPE  H12S 7029   2.124   3.636  10.581 -0.2192  0.2983  0.2280
   55DOPE  C213 7030   1.991   3.737  10.715 -0.1377 -0.3404  0.2091
   55DOPE  H13R 7031   1.891   3.764  10.674 -0.5952 -1.1336  0.7787
   55DOPE  H13S 7032   2.014   3.822  10.783  2.1824 -3.0902  3.1351
   55DOPE  C214 7033   1.983   3.602  10.787  0.4875  0.1393  0.5090
   55DOPE  H14R 7034   2.078   3.576  10.837  1.3864 -0.5487 -1.4457
   55DOPE  H14S 7035   1.958   3.524  10.711 -0.0725  0.4512  0.3611
   55DOPE  C215 7036   1.874   3.596  10.900 -0.8912  0.8834 -0.4204
   55DOPE  H15R 7037   1.789   3.649  10.853 -1.3550 -0.7012 -1.4208
   55DOPE  H15S 7038   1.915   3.654  10.986  0.6108 -0.2457 -0.3270
   55DOPE  C216 7039   1.822   3.456  10.936 -0.1743  0.2608 -0.4458
   55DOPE  H16R 7040   1.914   3.408  10.977  0.1078 -0.2544 -1.6265
   55DOPE  H16S 7041   1.795   3.394  10.848  2.5563  2.5905 -3.1523
   55DOPE  C217 7042   1.707   3.456  11.039  0.4431  0.3246  0.5369
   55DOPE  H17R 7043   1.611   3.462  10.985  1.4074  2.4608 -1.0966
   55DOPE  H17S 7044   1.712   3.557  11.085 -0.5893  2.1315 -2.9499
   55DOPE  C218 7045   1.707   3.343  11.142  0.0213 -0.1012 -0.2946
   55DOPE  H18R 7046   1.696   3.246  11.090  2.4527 -0.4094 -0.3285
   55DOPE  H18S 7047   1.625   3.343  11.217  0.0045 -1.6538 -0.2882
   55DOPE  H18T 7048   1.808   3.343  11.188 -0.9554 -0.5017  2.0191
   55DOPE   C33 7049   1.930   4.915  10.012 -0.4770 -0.0080 -0.2215
   55DOPE   H3X 7050   2.001   5.001  10.008 -0.1629 -0.1199  1.8291
   55DOPE   H3Y 7051   1.988   4.824   9.987  1.6689  0.8250  1.3613
   55DOPE   C34 7052   1.892   4.913  10.161  0.5605  0.3546  0.1043
   55DOPE   H4X 7053   1.882   5.013  10.209 -1.0026 -0.4807  1.6005
   55DOPE   H4Y 7054   1.785   4.882  10.166  0.4046  1.0913  2.1876
   55DOPE   C35 7055   1.972   4.816  10.248 -0.0897 -0.9044 -0.2005
   55DOPE   H5X 7056   2.071   4.866  10.257 -1.1590  1.3041  0.1659
   55DOPE   H5Y 7057   1.999   4.720  10.201  3.9770  0.7949 -1.7941
   55DOPE   C36 7058   1.925   4.785  10.389  0.4951  0.1164  0.4442
   55DOPE   H6X 7059   1.827   4.734  10.381  0.8776 -0.9151  1.9332
   55DOPE   H6Y 7060   1.914   4.886  10.434  1.3731  1.2466 -1.7239
   55DOPE   C37 7061   2.030   4.697  10.467  0.0385  1.1177 -0.4168
   55DOPE   H7X 7062   2.036   4.600  10.413 -2.3188  0.6174  0.1300
   55DOPE   H7Y 7063   2.124   4.754  10.448  0.3966  1.5868  2.3107
   55DOPE   C38 7064   1.996   4.676  10.612  0.4465  0.1079 -0.7176
   55DOPE   H8X 7065   1.933   4.585  10.621  1.1697 -0.1876  3.0099
   55DOPE   H8Y 7066   1.950   4.765  10.660  2.1177  0.2529  0.7707
   55DOPE   C39 7067   2.120   4.648  10.698  0.7117 -0.0817  0.5281
   55DOPE   H9X 7068   2.194   4.728  10.682  1.1695 -0.9040 -1.9548
   55DOPE  C310 7069   2.157   4.529  10.748  0.4016  0.4904  0.4776
   55DOPE  H10X 7070   2.244   4.525  10.814  0.1205 -1.4832  0.7984
   55DOPE  C311 7071   2.080   4.399  10.755 -0.0702  0.2723  0.5297
   55DOPE  H11X 7072   1.972   4.420  10.739 -0.3102 -0.5272  1.0581
   55DOPE  H11Y 7073   2.096   4.330  10.670  0.1282  1.0586 -0.0904
   55DOPE  C312 7074   2.101   4.321  10.890  0.1829  0.3302 -0.3675
   55DOPE  H12X 7075   2.093   4.404  10.964  0.1295  0.5420 -0.6101
   55DOPE  H12Y 7076   2.204   4.281  10.890  0.1365  0.1983 -0.9841
   55DOPE  C313 7077   2.022   4.188  10.892 -0.0274  0.7470  0.3510
   55DOPE  H13X 7078   1.917   4.201  10.857  0.2091 -0.9389 -1.1086
   55DOPE  H13Y 7079   2.064   4.122  10.814 -0.4686 -1.0940  1.5915
   55DOPE  C314 7080   2.037   4.118  11.023 -0.1342 -0.0169  0.2396
   55DOPE  H14X 7081   2.143   4.086  11.030 -0.6876 -2.4210 -1.4629
   55DOPE  H14Y 7082   1.980   4.025  11.008 -0.4720  0.0574  1.0369
   55DOPE  C315 7083   2.000   4.188  11.158  0.2367  0.0076  0.0249
   55DOPE  H15X 7084   2.056   4.284  11.159  0.1097  0.1258 -1.9205
   55DOPE  H15Y 7085   2.044   4.119  11.234 -1.9593 -1.0807  0.3762
   55DOPE  C316 7086   1.850   4.215  11.190  0.4027  0.1636 -0.0628
   55DOPE  H16X 7087   1.802   4.125  11.235 -1.9345  0.6765 -1.3586
   55DOPE  H16Y 7088   1.796   4.243  11.097 -1.8417 -1.2496  0.7172
   55DOPE  C317 7089   1.848   4.333  11.288 -0.1065  0.5674 -0.1781
   55DOPE  H17X 7090   1.903   4.303  11.380 -0.6176  1.6420  0.4891
   55DOPE  H17Y 7091   1.906   4.420  11.251  0.7581 -0.0270 -0.2633
   55DOPE  C318 7092   1.702   4.375  11.323  0.3190  0.1377  0.2519
   55DOPE  H18X 7093   1.697   4.457  11.398  1.1430  1.0802 -0.6803
   55DOPE  H18Y 7094   1.652   4.418  11.234  2.5913  0.7185 -0.8202
   55DOPE  H18Z 7095   1.642   4.302  11.381 -0.3456  0.9552  0.6178
   56DOPE     N 7096   0.998   0.065   9.373  0.0451 -0.3428 -0.3616
   56DOPE   HN1 7097   0.934   0.137   9.334 -0.5542  0.3395  1.7811
   56DOPE   HN2 7098   1.094   0.105   9.376 -0.3412  0.5592  1.3030
   56DOPE   HN3 7099   1.012  -0.013   9.304 -1.6716 -0.2420 -0.8644
   56DOPE   C12 7100   0.950   0.016   9.507 -0.7497 -0.0341  0.4519
   56DOPE  H12A 7101   0.932   0.103   9.574  0.3317 -0.7203  1.6562
   56DOPE  H12B 7102   1.031  -0.047   9.549  0.6755  1.8182  0.6100
   56DOPE   C11 7103   0.817  -0.067   9.489 -0.5046  0.0375 -0.2352
   56DOPE  H11A 7104   0.735   0.005   9.468  0.2128  1.1669  0.7058
   56DOPE  H11B 7105   0.790  -0.110   9.588 -1.9961  1.3540 -0.0307
   56DOPE     P 7106   0.906  -0.293   9.392 -0.2983 -0.6733  0.1795
   56DOPE   O13 7107   1.043  -0.263   9.352  0.4662 -0.7224 -0.3966
   56DOPE   O14 7108   0.836  -0.404   9.324 -0.3746  0.5652 -0.3955
   56DOPE   O11 7109   0.905  -0.316   9.553 -0.1760 -0.0965 -0.4881
   56DOPE   O12 7110   0.829  -0.160   9.380  0.5307 -0.4487  0.2762
   56DOPE    C1 7111   0.813  -0.413   9.592 -0.3989 -0.2302  0.0941
   56DOPE    HA 7112   0.832  -0.513   9.549 -0.1220 -0.4408  0.6949
   56DOPE    HB 7113   0.711  -0.380   9.562 -0.5393 -1.6289 -1.0410
   56DOPE    C2 7114   0.815  -0.439   9.745 -0.6086  0.2851 -0.2031
   56DOPE    HS 7115   0.915  -0.482   9.769 -0.0868  1.0564 -0.9175
   56DOPE   O21 7116   0.710  -0.528   9.779 -0.3801 -0.2760 -0.2610
   56DOPE   C21 7117   0.728  -0.607   9.881 -0.6662 -0.6918  0.3659
   56DOPE   O22 7118   0.826  -0.625   9.949  0.0522  0.1118 -0.2748
   56DOPE   C22 7119   0.594  -0.668   9.915 -0.1677  0.0315  0.4962
   56DOPE   H2R 7120   0.571  -0.752   9.847  0.4235  2.4226 -2.9237
   56DOPE   H2S 7121   0.512  -0.596   9.891 -0.1826  0.0037  0.4643
   56DOPE    C3 7122   0.792  -0.300   9.818 -0.2004  0.3019 -0.5770
   56DOPE    HX 7123   0.696  -0.265   9.775  0.7611  0.4475 -2.7190
   56DOPE    HY 7124   0.870  -0.227   9.787  1.7548 -0.7371  1.6125
   56DOPE   O31 7125   0.791  -0.305   9.965  0.1123 -0.5428  0.5913
   56DOPE   C31 7126   0.919  -0.314  10.011 -0.0941 -0.2938  0.6807
   56DOPE   O32 7127   1.019  -0.321   9.939 -0.1944 -0.1840 -0.2632
   56DOPE   C32 7128   0.920  -0.322  10.166 -0.3394 -0.0421  0.5272
   56DOPE   H2X 7129   1.024  -0.296  10.193 -1.0795  2.3437  1.3771
   56DOPE   H2Y 7130   0.845  -0.251  10.208 -1.3248  0.5978 -2.0651
   56DOPE   C23 7131   0.588  -0.709  10.061  0.3623 -0.4192 -0.0712
   56DOPE   H3R 7132   0.632  -0.630  10.125  1.1233 -0.5206 -0.4588
   56DOPE   H3S 7133   0.653  -0.798  10.073  1.6951  0.5914  0.5812
   56DOPE   C24 7134   0.443  -0.729  10.111  0.3258  0.0405  0.2829
   56DOPE   H4R 7135   0.405  -0.820  10.062  0.9055  0.2498 -0.5732
   56DOPE   H4S 7136   0.382  -0.641  10.082  0.8535  0.0295 -0.9043
   56DOPE   C25 7137   0.417  -0.732  10.262 -0.1184 -0.3271 -0.5790
   56DOPE   H5R 7138   0.318  -0.778  10.282 -0.8649  0.5526 -2.0857
   56DOPE   H5S 7139   0.419  -0.627  10.301  0.4576  0.3716 -2.3867
   56DOPE   C26 7140   0.520  -0.816  10.342 -0.2657  0.0523 -0.3704
   56DOPE   H6R 7141   0.627  -0.787  10.333 -0.5088  0.2895 -4.0758
   56DOPE   H6S 7142   0.515  -0.910  10.282  2.0933 -0.0250 -0.5441
   56DOPE   C27 7143   0.469  -0.830  10.482  0.3294 -0.5092  0.2879
   56DOPE   H7R 7144   0.375  -0.889  10.477  0.1576 -0.1861 -3.8944
   56DOPE   H7S 7145   0.448  -0.728  10.521  1.8761  0.5347 -1.4465
   56DOPE   C28 7146   0.561  -0.891  10.590 -0.7918  0.2585  0.2662
   56DOPE   H8R 7147   0.511  -0.867  10.686  1.0441 -1.6970  1.8147
   56DOPE   H8S 7148   0.654  -0.829  10.591 -0.7649  0.2556 -0.9929
   56DOPE   C29 7149   0.591  -1.038  10.567  0.4438 -0.3210 -0.0948
   56DOPE   H9R 7150   0.508  -1.106  10.592 -1.0182  1.6273  0.5873
   56DOPE  C210 7151   0.697  -1.100  10.521  0.2729 -0.7489  0.0945
   56DOPE  H10R 7152   0.706  -1.209  10.507  0.5544 -0.6003 -0.9520
   56DOPE  C211 7153   0.827  -1.034  10.471 -0.3606  0.0174  0.4040
   56DOPE  H11R 7154   0.908  -1.102  10.505 -0.9348 -1.2200 -0.6496
   56DOPE  H11S 7155   0.842  -0.933  10.517  1.3339 -0.5433  1.1872
   56DOPE  C212 7156   0.863  -1.009  10.315 -0.6404  0.6062 -0.4121
   56DOPE  H12R 7157   0.807  -0.923  10.274 -0.3951  1.0872  0.2480
   56DOPE  H12S 7158   0.823  -1.101  10.267 -1.3388  0.4784  0.3868
   56DOPE  C213 7159   1.015  -1.003  10.293  0.2696 -0.2567  0.7124
   56DOPE  H13R 7160   1.068  -1.082  10.350 -1.2524 -1.8057  0.0743
   56DOPE  H13S 7161   1.045  -0.903  10.332 -1.6871 -0.0836  1.8921
   56DOPE  C214 7162   1.059  -0.999  10.146  0.2534 -0.3120  0.4392
   56DOPE  H14R 7163   1.014  -1.091  10.102  2.9115 -2.0850  1.1666
   56DOPE  H14S 7164   1.169  -1.009  10.151  0.4072  1.2575  0.7058
   56DOPE  C215 7165   1.012  -0.868  10.063  0.0004  0.6033  0.3422
   56DOPE  H15R 7166   1.072  -0.786  10.108  0.1823  0.7153 -0.0938
   56DOPE  H15S 7167   0.903  -0.844  10.064 -0.1385 -0.0203  0.4668
   56DOPE  C216 7168   1.050  -0.878   9.907 -0.1730 -0.3413 -0.3873
   56DOPE  H16R 7169   1.160  -0.892   9.902 -0.2602 -0.4744 -3.1060
   56DOPE  H16S 7170   1.028  -0.783   9.856 -1.1674 -0.8736 -0.9789
   56DOPE  C217 7171   0.976  -0.989   9.832 -0.0254 -0.5154  0.6443
   56DOPE  H17R 7172   1.003  -1.094   9.857  0.9649 -0.0193  1.7677
   56DOPE  H17S 7173   1.021  -0.978   9.731  0.2503  0.0489  0.8258
   56DOPE  C218 7174   0.817  -0.965   9.826 -0.4941 -0.0873  0.3927
   56DOPE  H18R 7175   0.796  -0.869   9.775 -1.2071 -0.8825 -0.8651
   56DOPE  H18S 7176   0.775  -0.962   9.929  1.1577  0.1790  1.0966
   56DOPE  H18T 7177   0.781  -1.048   9.761 -0.9200 -0.7758  1.4712
   56DOPE   C33 7178   0.884  -0.459  10.214 -0.8217 -0.2543 -0.9305
   56DOPE   H3X 7179   0.960  -0.537  10.193  1.4929  1.0008  1.8834
   56DOPE   H3Y 7180   0.788  -0.479  10.163 -0.6941  0.3277 -1.4161
   56DOPE   C34 7181   0.881  -0.460  10.370  0.3063  0.2620  0.0082
   56DOPE   H4X 7182   0.986  -0.446  10.403 -0.3036  0.6972  1.8228
   56DOPE   H4Y 7183   0.821  -0.373  10.405 -1.1482 -0.2253 -1.1417
   56DOPE   C35 7184   0.841  -0.591  10.432  0.1832 -0.9427  0.2264
   56DOPE   H5X 7185   0.904  -0.669  10.384 -0.2207 -1.6174  0.7659
   56DOPE   H5Y 7186   0.731  -0.603  10.418 -0.0141  2.1248 -1.7401
   56DOPE   C36 7187   0.865  -0.596  10.588  0.3903 -0.6347 -0.5864
   56DOPE   H6X 7188   0.971  -0.572  10.610  0.4759 -0.9528 -0.6472
   56DOPE   H6Y 7189   0.847  -0.701  10.620  0.6618 -0.6998 -0.6526
   56DOPE   C37 7190   0.779  -0.492  10.671  0.5251 -0.1131  0.8560
   56DOPE   H7X 7191   0.800  -0.388  10.637  1.2644 -1.3100 -2.8657
   56DOPE   H7Y 7192   0.672  -0.511  10.646  0.4201 -0.9335  1.8915
   56DOPE   C38 7193   0.791  -0.503  10.819 -0.3752 -0.5874 -0.0702
   56DOPE   H8X 7194   0.759  -0.606  10.849 -3.4334  0.8067  2.0128
   56DOPE   H8Y 7195   0.712  -0.436  10.858 -0.8014  0.4085 -2.4816
   56DOPE   C39 7196   0.928  -0.452  10.873  0.0433  0.2084  0.0337
   56DOPE   H9X 7197   0.989  -0.392  10.805  1.1445 -0.4394  0.4275
   56DOPE  C310 7198   0.982  -0.479  10.995  0.2216 -0.6290  0.7119
   56DOPE  H10X 7199   1.083  -0.440  11.014  0.1232  1.1192 -1.7562
   56DOPE  C311 7200   0.920  -0.558  11.103  0.6176 -0.5408 -0.1140
   56DOPE  H11X 7201   0.870  -0.652  11.073 -1.0795  0.6655 -1.2297
   56DOPE  H11Y 7202   0.993  -0.572  11.186  0.9603 -0.0032 -0.3173
   56DOPE  C312 7203   0.802  -0.500  11.195 -0.9301  0.6396 -0.1124
   56DOPE  H12X 7204   0.709  -0.496  11.134 -1.0090 -1.9773 -0.2702
   56DOPE  H12Y 7205   0.828  -0.396  11.223  0.8266  0.6850 -1.6783
   56DOPE  C313 7206   0.790  -0.597  11.319  0.1643  0.2665  0.5111
   56DOPE  H13X 7207   0.792  -0.703  11.284 -1.0214  0.2245  0.5503
   56DOPE  H13Y 7208   0.876  -0.582  11.388 -0.3527  0.2061  1.1709
   56DOPE  C314 7209   0.658  -0.586  11.388  0.5621  0.4447 -0.1041
   56DOPE  H14X 7210   0.638  -0.678  11.447  0.8081  0.7772  0.5029
   56DOPE  H14Y 7211   0.593  -0.591  11.298  2.0915 -0.7854 -1.2096
   56DOPE  C315 7212   0.628  -0.472  11.483 -0.0397 -0.4990  0.2117
   56DOPE  H15X 7213   0.517  -0.468  11.491 -0.0147 -0.1543  0.3933
   56DOPE  H15Y 7214   0.652  -0.379  11.428 -1.0138  1.0380  2.2307
   56DOPE  C316 7215   0.694  -0.493  11.616 -0.1455 -0.1202 -0.2462
   56DOPE  H16X 7216   0.798  -0.529  11.597  0.4957  1.6054 -0.2635
   56DOPE  H16Y 7217   0.634  -0.570  11.668  2.3660 -0.7522  1.9909
   56DOPE  C317 7218   0.689  -0.370  11.710  0.0586  0.4600  0.1164
   56DOPE  H17X 7219   0.746  -0.390  11.803  0.7070  0.3313 -0.2976
   56DOPE  H17Y 7220   0.732  -0.279  11.662 -1.1298  1.3789  0.7364
   56DOPE  C318 7221   0.544  -0.344  11.762  0.4846 -1.1905 -1.0639
   56DOPE  H18X 7222   0.554  -0.256  11.830  1.0263 -1.4771 -0.7628
   56DOPE  H18Y 7223   0.485  -0.320  11.671  1.6385 -1.5320 -1.9262
   56DOPE  H18Z 7224   0.492  -0.424  11.818  0.3421 -0.9547 -0.8573
   57DOPE     N 7225   1.110   2.979   8.985  0.5027 -0.0648  0.0985
   57DOPE   HN1 7226   1.121   3.075   9.023 -1.0533  0.2631 -0.2070
   57DOPE   HN2 7227   1.165   2.975   8.897 -0.4572  0.0762 -0.5239
   57DOPE   HN3 7228   1.007   2.974   8.966  0.5374  0.6465 -0.3235
   57DOPE   C12 7229   1.141   2.870   9.082 -0.5993  0.1471  0.1382
   57DOPE  H12A 7230   1.077   2.782   9.062 -1.3457  0.3635  1.5164
   57DOPE  H12B 7231   1.128   2.913   9.183  0.9114 -0.7657  0.7499
   57DOPE   C11 7232   1.281   2.828   9.049 -0.5130 -0.4771 -0.4235
   57DOPE  H11A 7233   1.324   2.755   9.120  0.1534  0.5123  0.2099
   57DOPE  H11B 7234   1.341   2.921   9.053 -4.0133  2.0338 -1.3743
   57DOPE     P 7235   1.237   2.657   8.854  0.1251 -0.4400  0.0709
   57DOPE   O13 7236   1.305   2.621   8.727 -0.4513  0.9385 -0.3254
   57DOPE   O14 7237   1.092   2.678   8.833  0.0907 -0.5998 -0.0311
   57DOPE   O11 7238   1.260   2.547   8.963  0.1334 -0.2177  0.0479
   57DOPE   O12 7239   1.301   2.786   8.909  0.0808 -0.0045 -0.4990
   57DOPE    C1 7240   1.387   2.491   8.982  0.6302  0.4161 -0.5929
   57DOPE    HA 7241   1.469   2.565   8.966  0.1381  0.6537 -2.2397
   57DOPE    HB 7242   1.398   2.415   8.903 -0.6405 -0.3150 -0.0933
   57DOPE    C2 7243   1.394   2.430   9.125 -0.0088  0.0191  0.0384
   57DOPE    HS 7244   1.312   2.356   9.134 -0.2259  0.3559  0.9461
   57DOPE   O21 7245   1.381   2.540   9.224 -0.9197 -0.3758  0.5738
   57DOPE   C21 7246   1.293   2.518   9.324  0.6451 -0.1386 -0.1422
   57DOPE   O22 7247   1.221   2.425   9.331 -0.2721 -0.3282 -0.2849
   57DOPE   C22 7248   1.299   2.647   9.404 -0.7324 -0.8232  0.0917
   57DOPE   H2R 7249   1.261   2.725   9.334  0.4926  1.0062  1.3739
   57DOPE   H2S 7250   1.400   2.676   9.440 -0.6943  0.4672 -0.9936
   57DOPE    C3 7251   1.532   2.366   9.150  0.0123  0.3139 -0.1124
   57DOPE    HX 7252   1.608   2.446   9.133 -0.4429  0.6705 -0.4808
   57DOPE    HY 7253   1.544   2.285   9.074  2.1519 -0.8498  1.3547
   57DOPE   O31 7254   1.536   2.324   9.290 -0.0642 -0.1622  0.6581
   57DOPE   C31 7255   1.502   2.191   9.299 -0.0682 -0.1842  0.4699
   57DOPE   O32 7256   1.471   2.121   9.201  0.1474  0.5170  0.5965
   57DOPE   C32 7257   1.510   2.148   9.440 -0.1768  0.7582  0.3200
   57DOPE   H2X 7258   1.601   2.194   9.485  1.1208 -0.6476 -0.7476
   57DOPE   H2Y 7259   1.417   2.194   9.478  0.1536  1.6108  0.1053
   57DOPE   C23 7260   1.210   2.632   9.529 -0.1035  0.2215 -0.6838
   57DOPE   H3R 7261   1.267   2.575   9.605  0.3773  1.3720 -0.1655
   57DOPE   H3S 7262   1.109   2.587   9.518  0.4822 -1.3004 -0.0598
   57DOPE   C24 7263   1.192   2.770   9.590 -0.4492  0.4588  1.1051
   57DOPE   H4R 7264   1.149   2.843   9.518  1.3177  0.7752  0.3241
   57DOPE   H4S 7265   1.286   2.809   9.633  0.1265  1.1061 -0.6573
   57DOPE   C25 7266   1.088   2.764   9.706 -0.1273  0.2556 -0.1510
   57DOPE   H5R 7267   1.017   2.686   9.670  1.5568 -0.4273 -2.1925
   57DOPE   H5S 7268   1.028   2.854   9.729  0.8303  0.4960  1.5417
   57DOPE   C26 7269   1.161   2.717   9.833 -0.1658 -0.3873  0.0969
   57DOPE   H6R 7270   1.209   2.811   9.868 -1.8229  0.3128  0.5730
   57DOPE   H6S 7271   1.230   2.631   9.823 -0.7524 -0.8125 -0.3278
   57DOPE   C27 7272   1.049   2.674   9.937 -0.2620  0.6089  1.0397
   57DOPE   H7R 7273   1.001   2.585   9.892  0.6753 -0.8577  2.7977
   57DOPE   H7S 7274   0.977   2.757   9.952 -1.0569  0.3291 -1.0307
   57DOPE   C28 7275   1.110   2.619  10.063 -0.1201 -0.6879 -0.0234
   57DOPE   H8R 7276   1.193   2.549  10.041 -1.5163 -1.8176 -2.1057
   57DOPE   H8S 7277   1.033   2.550  10.104  1.8543 -1.5895  2.3378
   57DOPE   C29 7278   1.154   2.739  10.145 -0.0102  0.1062  0.0591
   57DOPE   H9R 7279   1.201   2.818  10.085  0.9555 -1.1412 -0.8985
   57DOPE  C210 7280   1.142   2.762  10.275  0.0188 -0.0064  1.5783
   57DOPE  H10R 7281   1.185   2.856  10.314  1.3891  0.2904 -0.5070
   57DOPE  C211 7282   1.072   2.674  10.379  0.2056 -0.1606  0.1861
   57DOPE  H11R 7283   1.080   2.565  10.359  0.4237 -0.4010  1.4754
   57DOPE  H11S 7284   0.963   2.694  10.375  0.2983  0.2006 -0.9169
   57DOPE  C212 7285   1.131   2.695  10.517  0.0993 -0.2000 -0.1844
   57DOPE  H12R 7286   1.125   2.801  10.550  0.5484 -0.9402  2.5030
   57DOPE  H12S 7287   1.233   2.652  10.526  0.1837  0.0612  0.1474
   57DOPE  C213 7288   1.048   2.628  10.630  0.5747  0.5519 -0.6065
   57DOPE  H13R 7289   1.065   2.519  10.621  0.6649  0.5555 -0.4805
   57DOPE  H13S 7290   0.941   2.654  10.616  0.0560 -1.5696 -0.8159
   57DOPE  C214 7291   1.087   2.668  10.768 -0.4766  0.1881 -0.3035
   57DOPE  H14R 7292   1.058   2.774  10.785  0.9094  0.7967 -1.5368
   57DOPE  H14S 7293   1.197   2.653  10.774 -0.3361  1.3599  0.1838
   57DOPE  C215 7294   1.031   2.579  10.883  0.3534  0.2827  0.3169
   57DOPE  H15R 7295   1.057   2.473  10.864  0.0961 -0.0227  1.6004
   57DOPE  H15S 7296   0.920   2.589  10.877  0.3085  0.4374  1.2366
   57DOPE  C216 7297   1.071   2.625  11.025  0.2712 -0.3195  0.3266
   57DOPE  H16R 7298   1.032   2.726  11.049  0.4946 -0.0013 -0.6278
   57DOPE  H16S 7299   1.180   2.639  11.043  0.0527  1.1287  0.6330
   57DOPE  C217 7300   1.033   2.523  11.138  0.4715 -0.5751 -0.2330
   57DOPE  H17R 7301   1.106   2.439  11.133 -0.9344 -1.9022  0.7627
   57DOPE  H17S 7302   0.929   2.487  11.119  0.5999 -0.8862 -0.3507
   57DOPE  C218 7303   1.039   2.583  11.281 -0.3917  0.2510 -0.3370
   57DOPE  H18R 7304   1.140   2.625  11.300 -0.5132 -0.4136  2.0967
   57DOPE  H18S 7305   1.009   2.510  11.359 -0.5474  0.4513 -0.2092
   57DOPE  H18T 7306   0.970   2.669  11.290  0.7101  1.1108  0.0786
   57DOPE   C33 7307   1.534   1.993   9.463  0.6684  0.5356  0.4034
   57DOPE   H3X 7308   1.622   1.964   9.402  0.4674 -0.2540  0.4837
   57DOPE   H3Y 7309   1.448   1.929   9.433  0.6742  0.5996  0.2478
   57DOPE   C34 7310   1.568   1.970   9.611 -0.4093 -0.3007  0.3252
   57DOPE   H4X 7311   1.619   1.871   9.618 -1.7258 -0.9036  2.1232
   57DOPE   H4Y 7312   1.645   2.045   9.638  0.8271 -1.7751  1.1020
   57DOPE   C35 7313   1.456   1.947   9.710  0.5524  0.3072 -0.3053
   57DOPE   H5X 7314   1.383   1.878   9.663  0.3997  0.5788 -0.4762
   57DOPE   H5Y 7315   1.399   2.042   9.719 -0.8308 -0.3873 -1.2973
   57DOPE   C36 7316   1.490   1.895   9.847  0.5880 -0.2197 -0.0125
   57DOPE   H6X 7317   1.545   1.801   9.825  0.3735 -0.0386 -1.3725
   57DOPE   H6Y 7318   1.397   1.879   9.905 -0.8356  0.8680 -1.9098
   57DOPE   C37 7319   1.595   1.984   9.921 -0.3957  0.5497 -0.4253
   57DOPE   H7X 7320   1.684   2.018   9.865  0.0653  1.4355  0.7981
   57DOPE   H7Y 7321   1.550   2.084   9.938 -0.0604  0.8486 -1.2365
   57DOPE   C38 7322   1.633   1.923  10.060 -0.1187  0.2737  0.0269
   57DOPE   H8X 7323   1.688   1.828  10.044  0.3881  1.0009 -3.3110
   57DOPE   H8Y 7324   1.536   1.894  10.106 -0.3373 -0.9514 -1.1463
   57DOPE   C39 7325   1.706   2.023  10.144  0.2866 -1.0142 -0.8888
   57DOPE   H9X 7326   1.780   2.086  10.093 -0.4057  0.0251 -0.6547
   57DOPE  C310 7327   1.671   2.055  10.274  0.6172  0.1112  0.6087
   57DOPE  H10X 7328   1.711   2.144  10.325 -0.2077 -0.3905  2.2118
   57DOPE  C311 7329   1.563   1.983  10.358 -0.1597  0.2464 -0.1148
   57DOPE  H11X 7330   1.466   2.035  10.372 -1.2316 -2.1545  2.5275
   57DOPE  H11Y 7331   1.550   1.876  10.330 -0.4806 -0.3982  2.2573
   57DOPE  C312 7332   1.623   1.964  10.508  0.3023  0.4753 -0.7086
   57DOPE  H12X 7333   1.639   2.059  10.563  1.3393 -0.8168  1.3413
   57DOPE  H12Y 7334   1.722   1.915  10.521 -0.4042 -0.2344  3.0370
   57DOPE  C313 7335   1.514   1.888  10.581  0.6073 -1.0118 -0.1019
   57DOPE  H13X 7336   1.427   1.957  10.572  2.6279  1.4837 -2.2671
   57DOPE  H13Y 7337   1.482   1.794  10.532  2.9537 -0.8558 -2.1048
   57DOPE  C314 7338   1.563   1.845  10.721  0.3314  0.2780 -0.4281
   57DOPE  H14X 7339   1.644   1.769  10.717  0.8989  0.5952  2.4838
   57DOPE  H14Y 7340   1.480   1.791  10.773  1.5089  0.6718  2.0119
   57DOPE  C315 7341   1.620   1.954  10.812  0.1676 -0.1920 -0.4666
   57DOPE  H15X 7342   1.549   2.038  10.793  2.0448  1.4295 -0.6791
   57DOPE  H15Y 7343   1.721   1.978  10.772  1.5512 -1.3154  2.1432
   57DOPE  C316 7344   1.640   1.911  10.961 -0.5267 -0.3165  0.4569
   57DOPE  H16X 7345   1.674   2.005  11.009 -1.1269  0.2380 -0.1740
   57DOPE  H16Y 7346   1.727   1.843  10.966 -0.0351  0.3032  0.5368
   57DOPE  C317 7347   1.518   1.854  11.039 -0.1025 -0.1331 -0.2290
   57DOPE  H17X 7348   1.478   1.765  10.985  4.3724 -2.3428 -0.4665
   57DOPE  H17Y 7349   1.556   1.816  11.136 -0.9415  0.1407  0.2112
   57DOPE  C318 7350   1.408   1.956  11.049 -0.5960  0.1019  0.0574
   57DOPE  H18X 7351   1.328   1.914  11.113  0.8594 -2.4529  0.3456
   57DOPE  H18Y 7352   1.453   2.043  11.103  3.6917 -1.9572  0.2324
   57DOPE  H18Z 7353   1.370   1.991  10.950 -0.6157  1.5554  0.5504
   58DOPE     N 7354   1.830   4.281   8.762  0.0913  0.3926  0.7303
   58DOPE   HN1 7355   1.811   4.222   8.678  2.2302 -1.7117  1.5904
   58DOPE   HN2 7356   1.753   4.349   8.773  0.1734  0.3644  1.4889
   58DOPE   HN3 7357   1.917   4.333   8.737  0.5438 -0.2580  0.9124
   58DOPE   C12 7358   1.824   4.196   8.887  0.4132 -0.4124  0.2646
   58DOPE  H12A 7359   1.859   4.257   8.972 -0.9415  2.0076 -0.8138
   58DOPE  H12B 7360   1.890   4.108   8.869 -0.6119 -0.7715 -2.1149
   58DOPE   C11 7361   1.676   4.157   8.900 -0.3688 -0.5686  0.1650
   58DOPE  H11A 7362   1.672   4.120   9.005  0.2698 -2.1588 -0.3483
   58DOPE  H11B 7363   1.671   4.081   8.819  2.1447  0.3534 -0.9355
   58DOPE     P 7364   1.473   4.317   8.979 -0.2313 -0.1805 -0.4145
   58DOPE   O13 7365   1.422   4.192   9.045  0.0818  0.1198 -0.2726
   58DOPE   O14 7366   1.377   4.402   8.901  0.3543  0.9321  0.4318
   58DOPE   O11 7367   1.560   4.403   9.074 -0.0634 -0.0068  0.0335
   58DOPE   O12 7368   1.581   4.274   8.874 -0.5095 -0.1056  0.5449
   58DOPE    C1 7369   1.622   4.333   9.197  0.1957  0.1528 -0.1965
   58DOPE    HA 7370   1.711   4.389   9.233  1.5540 -2.5279  0.8736
   58DOPE    HB 7371   1.652   4.229   9.173 -1.8648 -0.1140 -1.9309
   58DOPE    C2 7372   1.528   4.330   9.322 -0.7497 -0.4832  0.4030
   58DOPE    HS 7373   1.463   4.239   9.324 -0.5152 -0.6393  0.8686
   58DOPE   O21 7374   1.445   4.449   9.341  0.2815  0.8381 -0.2821
   58DOPE   C21 7375   1.341   4.432   9.421  0.5646  0.1360 -0.7252
   58DOPE   O22 7376   1.295   4.325   9.461  0.7892 -0.0605 -0.0606
   58DOPE   C22 7377   1.276   4.567   9.453 -0.0900  0.6442 -0.0314
   58DOPE   H2R 7378   1.189   4.538   9.515  0.4530 -0.1686  0.3713
   58DOPE   H2S 7379   1.233   4.616   9.363 -0.3736  2.1796  0.9131
   58DOPE    C3 7380   1.630   4.311   9.438 -0.4590 -0.5287 -0.6421
   58DOPE    HX 7381   1.691   4.404   9.432  0.1708 -0.9582 -0.9451
   58DOPE    HY 7382   1.709   4.234   9.426  0.4413  0.6416 -2.6887
   58DOPE   O31 7383   1.571   4.316   9.571  0.2941  0.5183  0.3521
   58DOPE   C31 7384   1.522   4.197   9.611  0.1314 -0.6426  0.6094
   58DOPE   O32 7385   1.541   4.091   9.545 -0.2253 -0.5972  0.3867
   58DOPE   C32 7386   1.438   4.211   9.734  0.0526  0.0200  0.0370
   58DOPE   H2X 7387   1.439   4.319   9.759  2.2693  0.1924 -0.5463
   58DOPE   H2Y 7388   1.334   4.179   9.715 -0.2342  1.9977 -2.1150
   58DOPE   C23 7389   1.369   4.662   9.534  0.2253  0.4740 -0.1562
   58DOPE   H3R 7390   1.314   4.758   9.546  0.0629  0.1193  2.6625
   58DOPE   H3S 7391   1.454   4.683   9.467  0.7884 -0.5486  0.2185
   58DOPE   C24 7392   1.428   4.611   9.664  0.4723 -0.6843 -0.1867
   58DOPE   H4R 7393   1.491   4.694   9.702 -2.6502  1.7180  0.1583
   58DOPE   H4S 7394   1.495   4.523   9.656  2.4934  0.7001  0.6658
   58DOPE   C25 7395   1.322   4.592   9.777  0.1779 -0.1043  0.0702
   58DOPE   H5R 7396   1.262   4.504   9.746  0.6944 -0.3874 -0.1455
   58DOPE   H5S 7397   1.255   4.681   9.779  1.0022  0.6463 -2.2278
   58DOPE   C26 7398   1.392   4.565   9.913 -0.0037  0.4713  0.2161
   58DOPE   H6R 7399   1.430   4.663   9.948  2.0588 -0.7398  1.5911
   58DOPE   H6S 7400   1.473   4.490   9.900 -0.2791  0.1906  0.1025
   58DOPE   C27 7401   1.286   4.519  10.011  0.1096 -0.2353  0.7751
   58DOPE   H7R 7402   1.247   4.424   9.967  0.4891  0.9989 -2.4797
   58DOPE   H7S 7403   1.205   4.595  10.010 -2.0227 -2.3919 -0.1224
   58DOPE   C28 7404   1.334   4.498  10.152 -0.4285  0.3576 -0.9972
   58DOPE   H8R 7405   1.426   4.436  10.144 -0.8345 -0.2184 -1.1901
   58DOPE   H8S 7406   1.263   4.443  10.217 -0.4921  1.1171 -0.4149
   58DOPE   C29 7407   1.354   4.635  10.210 -0.4408  0.5261  0.9494
   58DOPE   H9R 7408   1.274   4.709  10.198 -2.3001 -1.3313  1.3479
   58DOPE  C210 7409   1.455   4.667  10.290  0.3396  0.0279  0.7628
   58DOPE  H10R 7410   1.466   4.774  10.317 -0.8707  0.2207  0.5296
   58DOPE  C211 7411   1.575   4.586  10.340 -1.0331 -0.5562  0.1092
   58DOPE  H11R 7412   1.664   4.630  10.288  1.4133 -2.3335  2.5027
   58DOPE  H11S 7413   1.570   4.481  10.304  0.9512 -0.5698 -0.2630
   58DOPE  C212 7414   1.615   4.604  10.484  0.7289  0.5017 -0.2642
   58DOPE  H12R 7415   1.603   4.709  10.518 -0.5643 -0.2997  1.9716
   58DOPE  H12S 7416   1.721   4.573  10.500 -0.0593 -1.6771  1.1957
   58DOPE  C213 7417   1.523   4.524  10.572  0.3223  0.2250  0.1277
   58DOPE  H13R 7418   1.527   4.418  10.541  2.0124  0.4848 -0.6746
   58DOPE  H13S 7419   1.423   4.572  10.564  0.5859  0.7422 -0.1174
   58DOPE  C214 7420   1.547   4.536  10.723  0.0625 -0.6616  0.2771
   58DOPE  H14R 7421   1.512   4.638  10.748 -0.8291 -0.4471 -1.6750
   58DOPE  H14S 7422   1.655   4.533  10.747 -0.3848  0.5633  2.8018
   58DOPE  C215 7423   1.463   4.448  10.807  0.6061  1.0779 -0.0103
   58DOPE  H15R 7424   1.469   4.339  10.784 -1.2465  0.9681 -0.1107
   58DOPE  H15S 7425   1.359   4.487  10.800  0.1229  0.5301  2.6530
   58DOPE  C216 7426   1.505   4.460  10.957 -0.4892 -0.0553  0.7281
   58DOPE  H16R 7427   1.514   4.568  10.984  0.2863  0.3590 -1.0652
   58DOPE  H16S 7428   1.601   4.407  10.970  0.5155  1.4391 -0.2620
   58DOPE  C217 7429   1.395   4.400  11.044  0.0697 -0.1422  0.1908
   58DOPE  H17R 7430   1.299   4.439  11.004 -0.4241 -1.2782  0.2409
   58DOPE  H17S 7431   1.411   4.436  11.148  0.7028 -3.3281  1.3182
   58DOPE  C218 7432   1.401   4.249  11.051 -0.5940 -0.7216 -0.1729
   58DOPE  H18R 7433   1.497   4.223  11.100 -0.0140  1.1839 -0.2212
   58DOPE  H18S 7434   1.391   4.206  10.948 -1.1441 -0.0302 -0.4166
   58DOPE  H18T 7435   1.323   4.204  11.116 -0.1732 -0.8811  0.2294
   58DOPE   C33 7436   1.496   4.123   9.843  0.6803  0.6207  0.3424
   58DOPE   H3X 7437   1.607   4.119   9.839  0.6413 -0.7679 -0.2058
   58DOPE   H3Y 7438   1.475   4.016   9.821  0.6226  0.5486  0.7485
   58DOPE   C34 7439   1.432   4.161   9.975  0.0353  0.6300 -0.2343
   58DOPE   H4X 7440   1.466   4.266   9.989  0.1611  0.3311  1.9989
   58DOPE   H4Y 7441   1.322   4.163   9.962 -0.0950  0.4229  0.7659
   58DOPE   C35 7442   1.442   4.076  10.101  0.0509 -0.5374 -0.3117
   58DOPE   H5X 7443   1.371   3.991  10.091  0.6586 -1.2788  1.3134
   58DOPE   H5Y 7444   1.398   4.141  10.180  1.5164 -0.6208  0.6071
   58DOPE   C36 7445   1.574   4.023  10.150 -0.1778 -0.3090 -0.1648
   58DOPE   H6X 7446   1.646   4.107  10.152 -0.3776  0.0285 -3.0781
   58DOPE   H6Y 7447   1.605   3.949  10.074 -3.3803 -1.5968 -0.3839
   58DOPE   C37 7448   1.570   3.951  10.285 -0.1930  0.2294  0.3511
   58DOPE   H7X 7449   1.494   3.872  10.271  0.5570 -0.2105 -1.5417
   58DOPE   H7Y 7450   1.667   3.903  10.310  1.3881  1.6335 -2.5122
   58DOPE   C38 7451   1.521   4.038  10.398 -0.5383  0.4491 -0.4506
   58DOPE   H8X 7452   1.487   3.976  10.484 -1.2476  1.0789 -0.2668
   58DOPE   H8Y 7453   1.426   4.094  10.384 -1.7587 -1.4749 -0.2739
   58DOPE   C39 7454   1.617   4.152  10.433  0.0965 -0.0425  0.9575
   58DOPE   H9X 7455   1.605   4.238  10.366  0.5843 -0.2670  0.5815
   58DOPE  C310 7456   1.701   4.165  10.539  0.3811 -0.1741  0.8978
   58DOPE  H10X 7457   1.741   4.265  10.562 -0.9231  1.2093 -2.2076
   58DOPE  C311 7458   1.720   4.055  10.640  0.2511  0.2765 -0.2511
   58DOPE  H11X 7459   1.698   3.953  10.600  0.6969  0.7301 -1.7387
   58DOPE  H11Y 7460   1.828   4.039  10.661  0.0348 -2.6331 -0.9921
   58DOPE  C312 7461   1.635   4.061  10.772 -0.0160  0.0865 -0.1998
   58DOPE  H12X 7462   1.528   4.049  10.743 -0.1820 -0.2170  0.5312
   58DOPE  H12Y 7463   1.653   4.157  10.823  2.6353 -0.9859  1.0473
   58DOPE  C313 7464   1.687   3.954  10.864 -0.1117 -0.1830 -0.1895
   58DOPE  H13X 7465   1.680   3.854  10.816 -0.8364 -2.0471  3.3915
   58DOPE  H13Y 7466   1.792   3.977  10.893 -0.7921  1.2364  1.3309
   58DOPE  C314 7467   1.600   3.956  10.991  0.1141  0.0913 -0.1820
   58DOPE  H14X 7468   1.490   3.957  10.977 -0.0509  0.1327  0.9752
   58DOPE  H14Y 7469   1.619   4.056  11.036  0.6187 -0.5299  1.0279
   58DOPE  C315 7470   1.627   3.843  11.089  0.0788  0.2315 -0.2515
   58DOPE  H15X 7471   1.737   3.852  11.103 -0.1624  1.1457  1.2811
   58DOPE  H15Y 7472   1.595   3.742  11.053 -0.2096  1.0531 -2.4629
   58DOPE  C316 7473   1.563   3.871  11.219 -0.4118  0.3403 -0.5933
   58DOPE  H16X 7474   1.453   3.853  11.218 -0.3756  0.0091 -3.3019
   58DOPE  H16Y 7475   1.581   3.977  11.249  1.4247 -0.1381  0.0857
   58DOPE  C317 7476   1.625   3.784  11.343  0.1036 -0.9926 -0.1379
   58DOPE  H17X 7477   1.735   3.788  11.331  0.2182 -1.0498  0.8155
   58DOPE  H17Y 7478   1.593   3.831  11.439 -1.1140 -0.7218 -0.6597
   58DOPE  C318 7479   1.582   3.643  11.340 -0.4551  0.2542  0.4032
   58DOPE  H18X 7480   1.636   3.588  11.419 -1.5454  0.9007  1.6309
   58DOPE  H18Y 7481   1.471   3.641  11.336 -0.5744  2.6145  1.1547
   58DOPE  H18Z 7482   1.616   3.608  11.239  1.1624 -1.4901  1.4805
   59DOPE     N 7483   0.499   0.842   8.978  0.1939 -0.2272 -0.0457
   59DOPE   HN1 7484   0.576   0.781   9.012 -1.1939 -1.8848  0.2276
   59DOPE   HN2 7485   0.414   0.788   9.001  0.3435 -0.9832 -1.1966
   59DOPE   HN3 7486   0.512   0.851   8.875 -2.3730  1.4978 -0.3233
   59DOPE   C12 7487   0.510   0.981   9.041 -0.3892  0.1388  0.6162
   59DOPE  H12A 7488   0.456   0.979   9.138 -1.7948  2.2315 -0.0441
   59DOPE  H12B 7489   0.463   1.050   8.967  0.0302 -1.4705 -1.2552
   59DOPE   C11 7490   0.654   1.015   9.063 -0.1473  0.1685 -0.5572
   59DOPE  H11A 7491   0.705   0.944   9.131 -0.8409 -1.6744 -1.8649
   59DOPE  H11B 7492   0.653   1.113   9.114 -0.2429 -0.5352  0.8364
   59DOPE     P 7493   0.760   1.162   8.882 -0.5356 -0.2320  0.0607
   59DOPE   O13 7494   0.654   1.264   8.874 -0.1434 -0.4913  0.4144
   59DOPE   O14 7495   0.833   1.135   8.756 -0.1100  0.7183  0.4259
   59DOPE   O11 7496   0.872   1.190   8.990 -0.2195 -0.3419  0.0151
   59DOPE   O12 7497   0.708   1.023   8.932  0.1921  0.3356 -0.6024
   59DOPE    C1 7498   0.962   1.297   8.961 -0.5098 -0.0216  0.5232
   59DOPE    HA 7499   0.917   1.372   8.892  0.5792  0.6554  0.5309
   59DOPE    HB 7500   1.049   1.263   8.902 -1.8361  0.2726 -1.7406
   59DOPE    C2 7501   0.998   1.379   9.089  0.1524 -0.0265  0.2260
   59DOPE    HS 7502   1.059   1.464   9.052  0.3746 -0.2668  0.0372
   59DOPE   O21 7503   1.071   1.299   9.187  0.1465 -0.7085  0.4298
   59DOPE   C21 7504   1.200   1.276   9.158 -0.2326 -0.3675  0.0111
   59DOPE   O22 7505   1.256   1.297   9.053  0.0780  0.7980  0.3516
   59DOPE   C22 7506   1.266   1.228   9.291  0.3630 -0.4221  0.3501
   59DOPE   H2R 7507   1.221   1.128   9.310 -0.9427  0.2563  0.9721
   59DOPE   H2S 7508   1.233   1.295   9.373  1.7816 -0.3645  0.8921
   59DOPE    C3 7509   0.862   1.437   9.150 -0.4796  0.3721  0.0789
   59DOPE    HX 7510   0.816   1.347   9.196  1.7518 -0.6674  0.4257
   59DOPE    HY 7511   0.808   1.470   9.059  2.2228  1.2915 -1.2745
   59DOPE   O31 7512   0.891   1.544   9.246 -0.0922 -0.0868 -0.2649
   59DOPE   C31 7513   0.901   1.500   9.372  0.2083  0.0676  0.3381
   59DOPE   O32 7514   0.887   1.393   9.422  0.7426  0.9794 -0.0553
   59DOPE   C32 7515   0.947   1.620   9.450 -0.6563 -0.3292 -0.0928
   59DOPE   H2X 7516   1.045   1.650   9.407  0.8934 -3.6775  0.7339
   59DOPE   H2Y 7517   0.872   1.701   9.438  1.2537  1.2196 -2.7750
   59DOPE   C23 7518   1.414   1.210   9.279 -0.1646 -0.0456 -0.2784
   59DOPE   H3R 7519   1.470   1.299   9.242  1.8768 -0.7919  0.8662
   59DOPE   H3S 7520   1.444   1.127   9.211  1.9923 -0.5390  1.1766
   59DOPE   C24 7521   1.463   1.154   9.411 -0.3779  0.2335  0.6218
   59DOPE   H4R 7522   1.417   1.058   9.441  0.2701 -0.1584  0.3889
   59DOPE   H4S 7523   1.425   1.222   9.491  0.2553  0.6698  0.5627
   59DOPE   C25 7524   1.616   1.133   9.422  0.0612  0.1231 -0.1369
   59DOPE   H5R 7525   1.668   1.228   9.396  1.3273 -0.5501 -0.1843
   59DOPE   H5S 7526   1.660   1.057   9.353  1.9332  0.0062  1.0802
   59DOPE   C26 7527   1.659   1.081   9.562 -0.2740  0.2265  0.1934
   59DOPE   H6R 7528   1.620   0.977   9.563  1.3291 -0.4036  1.1840
   59DOPE   H6S 7529   1.600   1.138   9.636  1.4658 -0.8965  2.5599
   59DOPE   C27 7530   1.808   1.102   9.602  0.6689  0.5049 -0.0129
   59DOPE   H7R 7531   1.830   1.205   9.567  2.7974 -0.6372 -2.4288
   59DOPE   H7S 7532   1.877   1.032   9.550  2.6301  2.3293 -0.0427
   59DOPE   C28 7533   1.834   1.101   9.756  0.1653 -0.3079  0.2875
   59DOPE   H8R 7534   1.806   0.999   9.789  0.2882 -0.5857 -0.4577
   59DOPE   H8S 7535   1.757   1.171   9.796  1.4639  0.5998  1.2939
   59DOPE   C29 7536   1.970   1.155   9.789  0.3330  0.2418  0.0167
   59DOPE   H9R 7537   2.001   1.235   9.720 -1.4937  0.0499 -1.1081
   59DOPE  C210 7538   2.041   1.119   9.897 -0.2071  0.2594  0.5555
   59DOPE  H10R 7539   2.135   1.176   9.908 -0.8292  1.5983 -0.8139
   59DOPE  C211 7540   2.000   1.028  10.008  0.9654  1.0055 -0.4073
   59DOPE  H11R 7541   2.039   0.924   9.997  1.9858  1.2991  0.3457
   59DOPE  H11S 7542   1.890   1.024  10.021  1.2500  2.0028  3.2555
   59DOPE  C212 7543   2.063   1.080  10.145  0.2038  0.2670  0.4961
   59DOPE  H12R 7544   2.040   1.189  10.155 -1.6526 -0.3022  4.5504
   59DOPE  H12S 7545   2.173   1.068  10.150  0.1545 -0.5681 -0.2967
   59DOPE  C213 7546   2.001   1.020  10.270  0.3915  0.1632  0.6264
   59DOPE  H13R 7547   2.005   0.910  10.258 -0.1650  0.3147 -1.2029
   59DOPE  H13S 7548   1.893   1.045  10.271  0.2952 -0.2476  0.8805
   59DOPE  C214 7549   2.055   1.059  10.407  0.1759  0.4052  0.1078
   59DOPE  H14R 7550   2.038   1.168  10.421  0.1409  0.3965  0.1322
   59DOPE  H14S 7551   2.163   1.035  10.416  0.6267  2.2728  0.2159
   59DOPE  C215 7552   1.975   0.991  10.517 -0.2282  0.5360  0.1676
   59DOPE  H15R 7553   1.980   0.880  10.505  0.3676  0.2735  2.4372
   59DOPE  H15S 7554   1.871   1.028  10.504 -0.1626  0.0188 -2.5778
   59DOPE  C216 7555   2.028   1.032  10.653  0.0523 -0.0251 -0.6339
   59DOPE  H16R 7556   1.998   1.136  10.677  0.8845 -0.0814  0.8072
   59DOPE  H16S 7557   2.138   1.029  10.665  0.0466 -0.6083 -0.6676
   59DOPE  C217 7558   1.977   0.924  10.758 -0.2652  0.4215 -0.0086
   59DOPE  H17R 7559   2.000   0.831  10.702  0.5321  0.6708 -0.1138
   59DOPE  H17S 7560   1.867   0.926  10.771 -0.2860 -0.9443  0.1482
   59DOPE  C218 7561   2.056   0.928  10.888  0.1272  0.1494  0.6343
   59DOPE  H18R 7562   2.048   1.023  10.944 -1.5814  0.3210  0.1520
   59DOPE  H18S 7563   2.160   0.900  10.860  0.6454  0.1092  2.4369
   59DOPE  H18T 7564   2.013   0.849  10.954 -0.0257  1.8634  2.7163
   59DOPE   C33 7565   0.964   1.583   9.605  0.3640 -0.5625  0.2798
   59DOPE   H3X 7566   1.019   1.488   9.619  0.5240 -1.0533 -2.9476
   59DOPE   H3Y 7567   0.864   1.564   9.650  0.3749  0.2997  0.6781
   59DOPE   C34 7568   1.039   1.689   9.682  0.4182 -0.2627  0.2012
   59DOPE   H4X 7569   1.131   1.712   9.624 -0.2531  0.5456 -0.5744
   59DOPE   H4Y 7570   0.978   1.782   9.674  0.0485 -0.4365  0.8617
   59DOPE   C35 7571   1.066   1.639   9.823 -0.3080 -1.2189 -0.4900
   59DOPE   H5X 7572   1.103   1.534   9.816  0.6580 -0.9383  0.1798
   59DOPE   H5Y 7573   0.971   1.643   9.880  0.5915 -0.8850  1.0799
   59DOPE   C36 7574   1.158   1.714   9.919  0.5783 -0.3196 -0.0558
   59DOPE   H6X 7575   1.120   1.818   9.925 -0.0284 -0.5589  0.4106
   59DOPE   H6Y 7576   1.263   1.717   9.882 -0.0332 -1.4829 -2.0810
   59DOPE   C37 7577   1.157   1.660  10.066 -0.0633  0.2016 -0.0767
   59DOPE   H7X 7578   1.054   1.624  10.088 -1.2432  4.0464  1.6875
   59DOPE   H7Y 7579   1.225   1.573  10.074 -0.5257 -0.0916  0.7848
   59DOPE   C38 7580   1.194   1.770  10.164 -0.2942 -0.5716 -0.5218
   59DOPE   H8X 7581   1.109   1.840  10.177  0.4653  0.1332  0.8346
   59DOPE   H8Y 7582   1.282   1.823  10.122  0.1792 -0.7798  0.1858
   59DOPE   C39 7583   1.241   1.715  10.297 -0.3221  0.8143 -0.6608
   59DOPE   H9X 7584   1.350   1.715  10.314 -0.5900  0.4883  1.2740
   59DOPE  C310 7585   1.159   1.695  10.404 -0.3694  0.3417  0.6460
   59DOPE  H10X 7586   1.207   1.671  10.500  0.5427 -0.6471 -0.0328
   59DOPE  C311 7587   1.007   1.698  10.396 -0.1947  0.0035  0.0436
   59DOPE  H11X 7588   0.970   1.800  10.415 -0.4676  0.3344 -2.0475
   59DOPE  H11Y 7589   0.974   1.676  10.292 -1.1111 -2.6457  0.7951
   59DOPE  C312 7590   0.944   1.595  10.491 -0.5366 -0.0747 -1.0211
   59DOPE  H12X 7591   0.984   1.493  10.471 -0.1257 -0.4725  1.4868
   59DOPE  H12Y 7592   0.833   1.597  10.480 -0.7156  0.1093  0.6536
   59DOPE  C313 7593   0.978   1.630  10.637  0.3404 -0.9900 -0.0803
   59DOPE  H13X 7594   1.083   1.617  10.671  0.7886 -0.8549 -1.3375
   59DOPE  H13Y 7595   0.959   1.739  10.650  0.3104 -0.7923 -1.6085
   59DOPE  C314 7596   0.883   1.549  10.723  0.0374 -0.3449 -0.0405
   59DOPE  H14X 7597   0.879   1.448  10.679  0.5218  0.5215 -2.2092
   59DOPE  H14Y 7598   0.781   1.585  10.700 -0.5143 -2.4773 -1.1550
   59DOPE  C315 7599   0.933   1.531  10.872  0.0627  0.3511  0.8135
   59DOPE  H15X 7600   1.042   1.544  10.890  0.6617 -1.0055 -1.4007
   59DOPE  H15Y 7601   0.899   1.429  10.900  2.2008 -1.1717 -1.6908
   59DOPE  C316 7602   0.854   1.633  10.958  0.2968  0.5645 -0.0128
   59DOPE  H16X 7603   0.752   1.591  10.969  1.3562 -2.6782 -1.3718
   59DOPE  H16Y 7604   0.861   1.730  10.905  0.1573  1.0206  0.7798
   59DOPE  C317 7605   0.927   1.652  11.093  0.6567 -0.7219  0.4215
   59DOPE  H17X 7606   1.031   1.687  11.076 -0.1586  1.1182 -1.1642
   59DOPE  H17Y 7607   0.884   1.733  11.157 -1.6426 -1.2149 -0.4111
   59DOPE  C318 7608   0.944   1.526  11.186  0.4024 -0.2612 -0.2673
   59DOPE  H18X 7609   0.997   1.557  11.279  0.7539 -1.4620 -0.0484
   59DOPE  H18Y 7610   0.840   1.502  11.215 -0.4917  1.8412 -1.5118
   59DOPE  H18Z 7611   1.000   1.440  11.141 -0.3187 -1.7111  1.4631
   60DOPE     N 7612   0.304   0.293   9.348  0.2856 -0.5849 -0.9887
   60DOPE   HN1 7613   0.299   0.212   9.283  0.9590 -2.1054  0.7700
   60DOPE   HN2 7614   0.215   0.294   9.401  1.7427 -2.0453  1.6790
   60DOPE   HN3 7615   0.329   0.386   9.307  0.7011  0.1462  0.7902
   60DOPE   C12 7616   0.413   0.255   9.450 -0.6780  0.1226  0.2237
   60DOPE  H12A 7617   0.356   0.187   9.517 -0.1973  0.6783  1.2214
   60DOPE  H12B 7618   0.457   0.345   9.498 -0.8361 -0.3830  1.3582
   60DOPE   C11 7619   0.522   0.167   9.381  0.5220  0.3461  0.5893
   60DOPE  H11A 7620   0.481   0.064   9.368 -3.1639  1.7160  0.1256
   60DOPE  H11B 7621   0.604   0.154   9.456 -1.5036 -4.3723  2.3961
   60DOPE     P 7622   0.680   0.310   9.254  0.1747 -0.0047  0.2375
   60DOPE   O13 7623   0.667   0.393   9.132  0.3184  0.1218 -0.1801
   60DOPE   O14 7624   0.801   0.226   9.276 -0.2958 -0.2464  1.0465
   60DOPE   O11 7625   0.664   0.401   9.383 -0.9288  0.9935  0.5040
   60DOPE   O12 7626   0.559   0.213   9.251  0.3080  0.4405  0.3094
   60DOPE    C1 7627   0.757   0.497   9.425  0.0306 -0.2326  0.2525
   60DOPE    HA 7628   0.725   0.603   9.417  0.3305 -0.1858 -0.3667
   60DOPE    HB 7629   0.850   0.490   9.366 -0.8573  1.1724 -1.4074
   60DOPE    C2 7630   0.791   0.486   9.576  0.3964  0.0962  0.6690
   60DOPE    HS 7631   0.828   0.383   9.595 -0.1861 -0.4580 -1.0152
   60DOPE   O21 7632   0.675   0.528   9.653 -0.4812 -0.8763  0.6325
   60DOPE   C21 7633   0.671   0.480   9.773  0.4689  0.3164 -0.3545
   60DOPE   O22 7634   0.744   0.397   9.824 -0.3538  0.0439  0.5447
   60DOPE   C22 7635   0.571   0.565   9.850  0.5602 -0.0593  0.1466
   60DOPE   H2R 7636   0.468   0.554   9.808 -0.1911  0.4185  1.7682
   60DOPE   H2S 7637   0.594   0.673   9.837  0.3544 -0.0059  0.2205
   60DOPE    C3 7638   0.917   0.588   9.598  0.5982  0.5904  0.1322
   60DOPE    HX 7639   0.905   0.697   9.578  2.4476  0.6862 -0.7172
   60DOPE    HY 7640   0.990   0.565   9.517  1.2552 -2.3616  1.4178
   60DOPE   O31 7641   0.977   0.561   9.723 -0.0444 -0.2526 -0.2270
   60DOPE   C31 7642   0.994   0.665   9.799  0.3027  0.0263  0.2575
   60DOPE   O32 7643   0.964   0.783   9.776  0.1390 -0.2536  0.3804
   60DOPE   C32 7644   1.067   0.615   9.926  0.5066 -0.2528 -0.0736
   60DOPE   H2X 7645   1.007   0.536   9.977  1.3069  1.2988  3.5859
   60DOPE   H2Y 7646   1.167   0.572   9.902  0.8837 -0.2641  1.4042
   60DOPE   C23 7647   0.562   0.542  10.001 -0.0256 -0.4395 -0.5659
   60DOPE   H3R 7648   0.540   0.438  10.032 -3.1346 -0.0339 -1.1174
   60DOPE   H3S 7649   0.474   0.602  10.032 -1.5225 -1.9760 -1.6812
   60DOPE   C24 7650   0.678   0.607  10.076  0.1705  0.4350 -0.4264
   60DOPE   H4R 7651   0.692   0.705  10.026 -3.1207  1.0871 -0.3066
   60DOPE   H4S 7652   0.763   0.536  10.067 -1.8769 -1.9202 -4.4209
   60DOPE   C25 7653   0.659   0.620  10.230  0.4247 -0.2369  0.3087
   60DOPE   H5R 7654   0.620   0.522  10.264  0.9475 -0.5958 -0.1099
   60DOPE   H5S 7655   0.586   0.702  10.245  1.5826  1.0839 -0.8917
   60DOPE   C26 7656   0.781   0.673  10.312  0.1577  0.1630  0.2642
   60DOPE   H6R 7657   0.836   0.761  10.273 -1.3315  1.0288  0.0298
   60DOPE   H6S 7658   0.846   0.584  10.322 -1.8668 -1.2796  1.3170
   60DOPE   C27 7659   0.746   0.720  10.453 -0.1747  0.1961 -0.5428
   60DOPE   H7R 7660   0.682   0.644  10.503  0.2924  0.1082 -0.0654
   60DOPE   H7S 7661   0.689   0.815  10.445 -0.0244  0.3556  0.2313
   60DOPE   C28 7662   0.868   0.753  10.539  0.1808 -0.5113 -0.1679
   60DOPE   H8R 7663   0.836   0.816  10.625  1.8414 -2.3598  1.9376
   60DOPE   H8S 7664   0.943   0.806  10.477  0.2294 -0.7055 -0.2748
   60DOPE   C29 7665   0.937   0.627  10.586 -0.7485  0.2917  0.5839
   60DOPE   H9R 7666   1.001   0.577  10.511  1.0927  2.6312  0.4693
   60DOPE  C210 7667   0.950   0.588  10.712  0.4057 -0.0156 -0.6553
   60DOPE  H10R 7668   1.029   0.519  10.745 -0.9690 -1.2616  0.1498
   60DOPE  C211 7669   0.879   0.644  10.831  0.5042 -0.0188  0.1363
   60DOPE  H11R 7670   0.828   0.559  10.881 -1.2009  0.9606  0.1450
   60DOPE  H11S 7671   0.797   0.713  10.803  0.4203  0.1513  0.7873
   60DOPE  C212 7672   0.959   0.723  10.936 -0.0127  0.9133 -0.4742
   60DOPE  H12R 7673   0.954   0.833  10.925 -0.3564  1.0087  0.5432
   60DOPE  H12S 7674   1.070   0.714  10.937  0.0899  1.9802  1.2520
   60DOPE  C213 7675   0.920   0.678  11.078  0.0389  0.3671 -0.3217
   60DOPE  H13R 7676   0.973   0.583  11.099 -0.3631  0.4216  1.1191
   60DOPE  H13S 7677   0.810   0.661  11.081  0.1492 -0.3370  0.1378
   60DOPE  C214 7678   0.977   0.776  11.181  0.0057 -0.2867 -0.2493
   60DOPE  H14R 7679   0.931   0.875  11.159 -1.0682 -0.5317  0.8028
   60DOPE  H14S 7680   1.087   0.787  11.179 -0.0176 -0.0187 -0.1528
   60DOPE  C215 7681   0.939   0.739  11.330  0.6801 -0.3180 -0.1325
   60DOPE  H15R 7682   0.976   0.637  11.353  2.0254  0.4577  1.3372
   60DOPE  H15S 7683   0.829   0.725  11.330  0.3506  1.8580  0.9772
   60DOPE  C216 7684   0.983   0.835  11.446  0.3810  0.2844 -0.4421
   60DOPE  H16R 7685   1.094   0.823  11.450  0.3983  0.6206  1.3731
   60DOPE  H16S 7686   0.946   0.793  11.543  1.9449  0.2628  0.1764
   60DOPE  C217 7687   0.926   0.974  11.424 -0.3831 -0.0997 -1.1520
   60DOPE  H17R 7688   0.938   1.002  11.317  2.7445 -0.6097 -1.0526
   60DOPE  H17S 7689   0.987   1.047  11.482  2.0953 -1.1914 -2.2000
   60DOPE  C218 7690   0.780   0.990  11.478  0.1319  0.4435  0.1817
   60DOPE  H18R 7691   0.767   0.983  11.588 -2.0385 -2.2057 -0.1445
   60DOPE  H18S 7692   0.712   0.926  11.418 -1.1994  1.5808  0.4067
   60DOPE  H18T 7693   0.752   1.096  11.457 -0.1556  0.1130 -1.2197
   60DOPE   C33 7694   1.087   0.727  10.029 -0.5013 -0.2673 -0.0630
   60DOPE   H3X 7695   0.987   0.771  10.051  0.4197  1.2105  1.3278
   60DOPE   H3Y 7696   1.139   0.813   9.983 -0.5017 -0.5521 -0.6075
   60DOPE   C34 7697   1.156   0.677  10.160  0.1384 -0.4492 -0.3166
   60DOPE   H4X 7698   1.094   0.600  10.211  1.0999  0.7442  2.9515
   60DOPE   H4Y 7699   1.259   0.649  10.129  1.8869  2.0574  2.6142
   60DOPE   C35 7700   1.164   0.798  10.259 -0.5604 -0.4960 -0.2038
   60DOPE   H5X 7701   1.074   0.829  10.316  1.5549  2.6073  1.7617
   60DOPE   H5Y 7702   1.203   0.882  10.199  0.3105  0.5461  1.7160
   60DOPE   C36 7703   1.276   0.761  10.358  0.6008 -0.1061 -0.4718
   60DOPE   H6X 7704   1.368   0.733  10.303  1.2252  1.9555 -0.5773
   60DOPE   H6Y 7705   1.246   0.669  10.412 -0.0064  0.4698  0.1933
   60DOPE   C37 7706   1.306   0.873  10.462 -0.4768  0.0672  0.4315
   60DOPE   H7X 7707   1.320   0.968  10.406 -2.6929  0.9202  1.2502
   60DOPE   H7Y 7708   1.210   0.889  10.514 -0.6281  1.3285 -0.1972
   60DOPE   C38 7709   1.426   0.855  10.565 -0.5252  0.6594 -0.3228
   60DOPE   H8X 7710   1.513   0.843  10.498  0.5724  1.3759  0.9289
   60DOPE   H8Y 7711   1.400   0.765  10.625  0.6945 -1.7625 -3.1571
   60DOPE   C39 7712   1.436   0.980  10.641 -0.6776 -0.2035  0.3538
   60DOPE   H9X 7713   1.494   1.056  10.587 -4.1397  1.2176 -1.6617
   60DOPE  C310 7714   1.390   0.997  10.767  0.0503 -0.3480 -0.3594
   60DOPE  H10X 7715   1.399   1.096  10.813 -1.5295 -0.6442  0.6697
   60DOPE  C311 7716   1.288   0.909  10.836 -0.9556 -0.5887  0.7190
   60DOPE  H11X 7717   1.187   0.955  10.834 -1.3345 -1.4134 -0.7476
   60DOPE  H11Y 7718   1.276   0.814  10.779 -2.9189  0.3385 -0.5320
   60DOPE  C312 7719   1.323   0.878  10.982  0.2134 -0.3421  0.4845
   60DOPE  H12X 7720   1.424   0.832  10.989  0.2014 -0.1148  3.0042
   60DOPE  H12Y 7721   1.245   0.808  11.018 -0.9604  1.1242  0.8834
   60DOPE  C313 7722   1.338   0.995  11.070 -0.1356  0.1925 -0.2255
   60DOPE  H13X 7723   1.371   0.952  11.168 -2.3329  1.1725  1.0072
   60DOPE  H13Y 7724   1.418   1.062  11.032 -0.1998 -0.1466 -0.9755
   60DOPE  C314 7725   1.205   1.067  11.094 -0.8753 -0.0373 -0.4279
   60DOPE  H14X 7726   1.137   0.982  11.072  2.5753 -3.3257  0.4991
   60DOPE  H14Y 7727   1.185   1.150  11.022 -3.1857 -1.1267 -1.1431
   60DOPE  C315 7728   1.192   1.127  11.234 -0.4339  0.2554 -0.9524
   60DOPE  H15X 7729   1.203   1.041  11.303 -2.3236  0.7510  0.0535
   60DOPE  H15Y 7730   1.086   1.159  11.248 -1.0780 -1.1575 -2.3392
   60DOPE  C316 7731   1.294   1.238  11.280 -0.3846  0.2191  0.4524
   60DOPE  H16X 7732   1.397   1.201  11.261 -0.2812  0.3949  0.6709
   60DOPE  H16Y 7733   1.280   1.248  11.389  0.4108 -1.1103  0.6988
   60DOPE  C317 7734   1.288   1.383  11.218  0.2210  0.0521  1.0316
   60DOPE  H17X 7735   1.224   1.380  11.128  0.7137 -2.1438  0.6947
   60DOPE  H17Y 7736   1.248   1.459  11.289 -1.7415  0.6045 -0.5859
   60DOPE  C318 7737   1.422   1.431  11.162 -0.1507 -0.2397 -0.1050
   60DOPE  H18X 7738   1.412   1.532  11.116 -0.0458  0.1858  0.7835
   60DOPE  H18Y 7739   1.495   1.452  11.243 -1.6918 -0.3810  1.3621
   60DOPE  H18Z 7740   1.456   1.362  11.082 -1.6358  0.9308 -1.8075
   6123SM     N 7741   4.289   4.937  14.494 -0.9414 -0.4193  0.1754
   6123SM   C15 7742   4.351   5.009  14.613  0.5265  0.1523  0.2799
   6123SM  H15A 7743   4.296   5.097  14.642  2.1394  0.4618  2.7540
   6123SM  H15B 7744   4.442   5.058  14.580  0.9876  0.3207  1.7111
   6123SM  H15C 7745   4.366   4.934  14.689  1.2059 -1.4565 -1.3813
   6123SM   C14 7746   4.174   4.860  14.533  0.6781 -0.5752  0.1419
   6123SM  H14A 7747   4.096   4.930  14.559  2.0461  0.0423  2.9479
   6123SM  H14B 7748   4.185   4.799  14.622 -2.8879 -0.2211  0.9732
   6123SM  H14C 7749   4.135   4.799  14.453  0.2410  0.7717 -0.7055
   6123SM   C13 7750   4.235   5.043  14.406  0.8358 -0.2727  0.6541
   6123SM  H13A 7751   4.198   5.133  14.455  0.3386 -0.0356 -0.1364
   6123SM  H13B 7752   4.147   4.997  14.363  0.4446 -1.1090  2.2675
   6123SM  H13C 7753   4.308   5.084  14.339 -2.6412 -0.9932 -4.1148
   6123SM   C12 7754   4.393   4.853  14.428  0.0942  1.3193  0.3486
   6123SM  H12A 7755   4.446   4.786  14.494  1.5818  1.8847 -0.2340
   6123SM  H12B 7756   4.475   4.920  14.407  1.7995 -0.1139  2.1105
   6123SM   C11 7757   4.334   4.759  14.316 -0.4005 -0.7940  0.0392
   6123SM  H11A 7758   4.248   4.695  14.346  0.3664 -1.2412  1.4151
   6123SM  H11B 7759   4.414   4.685  14.294  1.4859  0.2334  2.8252
   6123SM     P 7760   4.394   4.895  14.091 -0.1147 -0.1846  0.1326
   6123SM   O13 7761   4.480   5.003  14.151  0.3332 -0.2886  0.4636
   6123SM   O14 7762   4.467   4.778  14.043 -1.2952 -0.4186  0.1704
   6123SM   O11 7763   4.307   4.945  13.979  0.3880 -0.8457  0.0512
   6123SM   O12 7764   4.290   4.847  14.204 -0.0542  0.3592 -0.2650
   6123SM   C1S 7765   4.227   5.068  13.975  0.3723  0.1371  0.3786
   6123SM   H1S 7766   4.296   5.150  14.004  1.6203 -0.5396 -0.6252
   6123SM   H1T 7767   4.140   5.065  14.045 -0.1256 -3.7732 -0.1731
   6123SM    NF 7768   4.131   5.241  13.817 -0.4346 -0.6212  1.0711
   6123SM   HNF 7769   4.033   5.259  13.828 -1.0260 -1.6717 -1.7087
   6123SM   C2S 7770   4.171   5.103  13.826 -0.7126  0.2342 -0.3863
   6123SM   H2S 7771   4.264   5.089  13.767  0.5072 -1.1924  1.7393
   6123SM   C3S 7772   4.071   4.999  13.780  0.1393 -0.1034  0.0254
   6123SM   H3S 7773   3.975   5.014  13.835  0.0358 -0.9674  0.0835
   6123SM    O3 7774   4.106   4.864  13.804  0.1155 -0.2047  0.5777
   6123SM   HO3 7775   4.186   4.870  13.856 -1.0851 -1.3771  2.7131
   6123SM   C4S 7776   4.057   5.013  13.632 -1.1177  0.8229 -0.0223
   6123SM   H4S 7777   4.145   4.988  13.571 -0.5244  3.8546 -0.5400
   6123SM   C5S 7778   3.950   5.070  13.577  0.4561  0.7718 -0.0721
   6123SM   H5S 7779   3.868   5.112  13.637 -0.0837  1.3949 -1.2017
   6123SM   C6S 7780   3.927   5.095  13.433 -0.2013  0.4811  0.6713
   6123SM   H6S 7781   3.864   5.186  13.428 -1.1857 -0.2198 -2.7129
   6123SM   H6T 7782   3.871   5.009  13.391  0.5880 -0.6593  1.9032
   6123SM   C7S 7783   4.049   5.128  13.350 -0.4015  0.0517 -0.1706
   6123SM   H7S 7784   4.122   5.045  13.351  0.9078  1.1461 -1.1389
   6123SM   H7T 7785   4.098   5.213  13.403 -0.9130 -1.1244  2.3243
   6123SM   C8S 7786   4.013   5.168  13.207 -0.0380  0.8080  0.3169
   6123SM   H8S 7787   3.957   5.264  13.201 -0.5558  0.4333 -1.6271
   6123SM   H8T 7788   3.958   5.083  13.162  2.5123  0.1283 -1.7824
   6123SM   C9S 7789   4.131   5.157  13.115 -0.3891 -0.3773  0.1992
   6123SM   H9S 7790   4.170   5.053  13.120 -0.4143 -0.5310 -1.8838
   6123SM   H9T 7791   4.214   5.222  13.149 -0.1797 -0.8452  0.6008
   6123SM  C10S 7792   4.101   5.177  12.966 -0.2656  0.4334  0.3658
   6123SM  H10S 7793   4.200   5.151  12.922 -1.7563 -0.9399 -2.4917
   6123SM  H10T 7794   4.080   5.285  12.953 -0.9860  0.2973  0.3772
   6123SM  C11S 7795   3.988   5.086  12.905 -0.0280  0.0802 -0.2182
   6123SM  H11S 7796   3.890   5.114  12.950 -0.2287 -0.5147 -0.2840
   6123SM  H11T 7797   4.017   4.982  12.932 -0.3329 -0.4583 -1.9157
   6123SM  C12S 7798   3.968   5.107  12.749  0.0638  0.2178 -0.3285
   6123SM  H12S 7799   3.912   5.202  12.739  0.7449  0.3828 -3.7234
   6123SM  H12T 7800   3.901   5.024  12.718  2.5321 -1.7499 -0.7339
   6123SM  C13S 7801   4.099   5.112  12.674  1.0597  0.3657  0.0106
   6123SM  H13S 7802   4.151   5.015  12.694  0.4391 -0.4666 -2.0819
   6123SM  H13T 7803   4.169   5.190  12.709  1.4627 -0.2257  0.5502
   6123SM  C14S 7804   4.082   5.126  12.525  0.3791  0.2644  0.6916
   6123SM  H14S 7805   4.176   5.159  12.475 -0.3625  4.2090  1.4955
   6123SM  H14T 7806   4.009   5.208  12.504  0.3748 -0.2700 -1.5452
   6123SM  C15S 7807   4.034   4.990  12.465  0.5068  0.0049 -0.0010
   6123SM  H15S 7808   3.941   4.946  12.507 -0.9055  0.9859 -1.9200
   6123SM  H15T 7809   4.121   4.921  12.470  0.6546  0.0618 -1.4398
   6123SM  C16S 7810   4.002   4.995  12.316  0.0624  0.3029 -0.0308
   6123SM  H16S 7811   3.903   5.043  12.304 -0.5021 -0.6134  0.7895
   6123SM  H16T 7812   3.990   4.889  12.286 -2.1418 -0.8019  3.9848
   6123SM  C17S 7813   4.100   5.071  12.216  0.0658  0.2717  0.5083
   6123SM  H17S 7814   4.200   5.027  12.237 -0.5771 -1.0098  1.0474
   6123SM  H17T 7815   4.090   5.181  12.227 -0.9430  0.3152 -0.6574
   6123SM  C18S 7816   4.061   5.035  12.071 -0.0712 -0.5975  0.2634
   6123SM  H18S 7817   3.967   5.082  12.035  0.8459 -1.0414 -3.0218
   6123SM  H18T 7818   4.057   4.925  12.056  0.7121 -0.4288 -1.3357
   6123SM  H18U 7819   4.150   5.067  12.012  1.3981 -1.0068  2.1597
   6123SM   C1F 7820   4.217   5.340  13.817 -0.4692 -1.1524  0.6053
   6123SM    OF 7821   4.335   5.313  13.796  0.3866 -0.3719 -0.0722
   6123SM   C2F 7822   4.166   5.480  13.841 -0.0542  0.8827 -0.3786
   6123SM   H2F 7823   4.206   5.512  13.940 -0.1281 -3.1340  1.1396
   6123SM   H2G 7824   4.055   5.470  13.848 -0.0197 -1.0204 -1.9129
   6123SM   C3F 7825   4.201   5.581  13.731  0.8787  0.1261  0.3352
   6123SM   H3F 7826   4.311   5.572  13.716  1.0598  1.7819  0.4442
   6123SM   H3G 7827   4.183   5.689  13.754  2.6927  0.3290  1.0172
   6123SM   C4F 7828   4.140   5.556  13.592  0.6672  0.1114 -0.1289
   6123SM   H4F 7829   4.162   5.452  13.558 -0.7397 -0.1231 -0.3798
   6123SM   H4G 7830   4.196   5.623  13.524  1.1597  0.9449  1.0651
   6123SM   C5F 7831   3.987   5.587  13.582 -0.3825 -0.3857 -1.0260
   6123SM   H5F 7832   3.975   5.698  13.585  1.2141 -0.1780  2.7158
   6123SM   H5G 7833   3.931   5.531  13.660  0.4027 -0.8879 -0.8085
   6123SM   C6F 7834   3.931   5.529  13.456 -0.2218 -0.2161 -0.4639
   6123SM   H6F 7835   3.919   5.419  13.456  0.1966 -0.2660  0.3667
   6123SM   H6G 7836   4.002   5.559  13.376 -0.7575 -0.7052 -1.1318
   6123SM   C7F 7837   3.791   5.581  13.430 -0.0529 -0.1696 -0.0829
   6123SM   H7F 7838   3.789   5.691  13.416 -1.9024 -0.2865 -0.9704
   6123SM   H7G 7839   3.717   5.555  13.508 -0.3078 -1.8984 -0.8518
   6123SM   C8F 7840   3.724   5.513  13.306 -0.2990 -0.0473  0.1852
   6123SM   H8F 7841   3.672   5.417  13.326  1.1343 -1.2710 -1.6871
   6123SM   H8G 7842   3.810   5.492  13.240  0.6211  0.3253  1.2198
   6123SM   C9F 7843   3.613   5.601  13.241  0.0652 -0.5621  0.3393
   6123SM   H9F 7844   3.631   5.710  13.255 -1.0117 -0.4292  0.7440
   6123SM   H9G 7845   3.516   5.577  13.290  1.6494 -2.0372  3.0164
   6123SM  C10F 7846   3.607   5.583  13.096 -0.0976  0.1981  0.9389
   6123SM  H10F 7847   3.574   5.481  13.067  2.5177 -0.7438  1.0279
   6123SM  H10G 7848   3.707   5.595  13.049 -0.2373 -3.3713 -0.5935
   6123SM  C11F 7849   3.503   5.683  13.039 -0.4191 -0.0454  0.5374
   6123SM  H11F 7850   3.540   5.785  13.058 -3.4272  1.1400  0.6783
   6123SM  H11G 7851   3.408   5.670  13.096 -1.2507  0.3770 -0.6909
   6123SM  C12F 7852   3.482   5.673  12.889  0.1721 -0.3730  0.1062
   6123SM  H12F 7853   3.407   5.751  12.862 -1.8731 -2.4276 -0.5025
   6123SM  H12G 7854   3.439   5.575  12.858 -0.6139  0.1270 -0.4343
   6123SM  C13F 7855   3.611   5.701  12.806 -0.1362 -0.3378  0.4575
   6123SM  H13F 7856   3.689   5.628  12.838  0.6721 -0.3712 -1.4314
   6123SM  H13G 7857   3.655   5.802  12.822  0.7848 -1.0329  2.6357
   6123SM  C14F 7858   3.588   5.678  12.655 -0.6302  0.3828 -0.7073
   6123SM  H14F 7859   3.532   5.582  12.650  0.6497 -0.5296  1.3340
   6123SM  H14G 7860   3.691   5.666  12.613 -0.4398 -1.0339  0.1025
   6123SM  C15F 7861   3.518   5.790  12.581  0.1442  0.3592  0.3164
   6123SM  H15F 7862   3.587   5.876  12.577  0.7773 -0.1702 -0.4406
   6123SM  H15G 7863   3.423   5.811  12.635  0.9544 -1.2141  2.5030
   6123SM  C16F 7864   3.483   5.746  12.434  0.0304 -0.7413  0.3491
   6123SM  H16F 7865   3.398   5.806  12.397 -0.8580 -1.5332  1.0535
   6123SM  H16G 7866   3.433   5.647  12.438 -1.7371 -0.0525 -2.1301
   6123SM  C17F 7867   3.608   5.745  12.336 -0.4556 -0.1116 -0.5556
   6123SM  H17F 7868   3.646   5.649  12.378 -1.5046  1.3492  4.3781
   6123SM  H17G 7869   3.683   5.825  12.353 -0.9535  0.2972 -0.2738
   6123SM  C18F 7870   3.583   5.738  12.187  0.1389  0.3284 -0.1659
   6123SM  H18F 7871   3.557   5.841  12.155  3.0617  0.8703 -1.0993
   6123SM  H18G 7872   3.495   5.678  12.158  0.2990  0.7364 -1.5429
   6123SM  C19F 7873   3.700   5.712  12.093 -0.6839  0.3612 -0.4889
   6123SM  H19F 7874   3.731   5.607  12.111 -2.5741 -0.2447 -0.5549
   6123SM  H19G 7875   3.786   5.780  12.105 -0.3169 -0.0548 -0.7339
   6123SM  C20F 7876   3.669   5.720  11.937  0.7335 -0.0244 -0.3929
   6123SM  H20F 7877   3.651   5.829  11.935  0.7177  0.1378  2.8380
   6123SM  H20G 7878   3.571   5.669  11.922  0.7364 -0.1116 -0.1307
   6123SM  C21F 7879   3.790   5.706  11.838 -0.0209 -0.1960  0.3505
   6123SM  H21F 7880   3.793   5.601  11.802 -0.3580  0.2061 -0.8984
   6123SM  H21G 7881   3.888   5.731  11.885  0.3791  0.7435 -0.9356
   6123SM  C22F 7882   3.778   5.787  11.705 -0.2741  0.4488  0.6033
   6123SM  H22F 7883   3.850   5.745  11.632 -0.3478  1.1934  0.0920
   6123SM  H22G 7884   3.821   5.888  11.723  2.1296 -0.3759 -0.0982
   6123SM  C23F 7885   3.636   5.790  11.640 -0.4275  0.2476 -0.6418
   6123SM  H23F 7886   3.565   5.829  11.716  0.8728  0.7287  0.3473
   6123SM  H23G 7887   3.601   5.687  11.615 -0.7504  0.4328 -0.9693
   6123SM  H23H 7888   3.625   5.851  11.548  0.7677  0.5934 -0.5712
   6223SM     N 7889   3.452   5.055  14.169 -0.2160  0.8427  0.0720
   6223SM   C15 7890   3.503   5.072  14.302  0.1570  0.8267 -0.9081
   6223SM  H15A 7891   3.559   5.163  14.317 -1.3362  1.8448 -1.3160
   6223SM  H15B 7892   3.574   4.996  14.331 -0.3775  0.7010  0.0997
   6223SM  H15C 7893   3.421   5.091  14.369 -0.2065  1.9289 -1.6397
   6223SM   C14 7894   3.365   4.931  14.171  0.1940 -0.4021 -0.1727
   6223SM  H14A 7895   3.264   4.951  14.203 -1.2015 -2.7753 -2.6332
   6223SM  H14B 7896   3.419   4.851  14.219  1.4664 -0.0864 -1.0231
   6223SM  H14C 7897   3.356   4.902  14.067  1.6429  3.3613 -1.5317
   6223SM   C13 7898   3.375   5.182  14.137  0.2527 -0.4893 -0.6318
   6223SM  H13A 7899   3.418   5.272  14.179 -2.7937  1.1237 -0.7229
   6223SM  H13B 7900   3.270   5.176  14.162 -0.0116 -0.1616 -1.6151
   6223SM  H13C 7901   3.368   5.200  14.031 -0.5537 -1.1638 -0.7015
   6223SM   C12 7902   3.570   5.041  14.069  0.2008  0.3866 -0.4753
   6223SM  H12A 7903   3.620   4.948  14.093 -0.0416 -0.0751 -1.7035
   6223SM  H12B 7904   3.630   5.131  14.076 -0.4120  0.7495  0.2536
   6223SM   C11 7905   3.547   5.015  13.919 -0.8546 -0.3034  0.6151
   6223SM  H11A 7906   3.647   5.005  13.872 -0.4249 -3.1582  1.9325
   6223SM  H11B 7907   3.503   5.112  13.886 -0.4235  1.4207  4.4915
   6223SM     P 7908   3.512   4.763  13.888 -0.3819 -0.1307  0.1067
   6223SM   O13 7909   3.598   4.744  14.006 -0.2281 -0.4441  0.2837
   6223SM   O14 7910   3.387   4.695  13.882  0.4123  0.2011  0.0744
   6223SM   O11 7911   3.598   4.768  13.758 -0.2774  0.8410 -0.1727
   6223SM   O12 7912   3.456   4.911  13.902  0.6178  0.0436 -0.0411
   6223SM   C1S 7913   3.549   4.830  13.634 -0.3789 -0.1502  0.8024
   6223SM   H1S 7914   3.519   4.937  13.645  2.0235  0.7202 -0.4762
   6223SM   H1T 7915   3.464   4.771  13.594  0.3144 -0.4569 -0.2504
   6223SM    NF 7916   3.588   4.896  13.395 -0.3499  0.3384  0.9967
   6223SM   HNF 7917   3.548   4.830  13.331  0.5387  0.3020  0.4546
   6223SM   C2S 7918   3.650   4.841  13.510 -0.1474  0.4321  0.1226
   6223SM   H2S 7919   3.731   4.906  13.549 -0.3007  0.6975  0.0022
   6223SM   C3S 7920   3.719   4.701  13.484 -0.1024 -0.6198  0.9668
   6223SM   H3S 7921   3.645   4.641  13.427  1.0895 -0.3513 -0.9472
   6223SM    O3 7922   3.761   4.632  13.602  0.9906 -0.4271  0.4709
   6223SM   HO3 7923   3.728   4.687  13.673  1.4421 -1.4417  1.4949
   6223SM   C4S 7924   3.827   4.727  13.379  0.4150 -0.6207 -0.3652
   6223SM   H4S 7925   3.776   4.746  13.284 -3.2696 -1.2495  1.3161
   6223SM   C5S 7926   3.958   4.738  13.396 -0.2445  0.2471  0.2713
   6223SM   H5S 7927   3.997   4.720  13.497 -0.8889  0.4495  0.5629
   6223SM   C6S 7928   4.075   4.764  13.294  0.4596 -0.1311 -0.0530
   6223SM   H6S 7929   4.167   4.734  13.347 -0.1987 -0.7669  0.7640
   6223SM   H6T 7930   4.078   4.872  13.266  0.0565 -0.1470 -0.1678
   6223SM   C7S 7931   4.070   4.695  13.157 -0.0086  0.0442 -0.1178
   6223SM   H7S 7932   3.967   4.701  13.116  0.7874  1.7432 -2.0437
   6223SM   H7T 7933   4.095   4.588  13.172 -3.0021 -0.6006  0.9503
   6223SM   C8S 7934   4.152   4.757  13.044 -0.6497 -0.4052  0.3699
   6223SM   H8S 7935   4.162   4.867  13.051  2.6437 -0.5079 -0.9146
   6223SM   H8T 7936   4.103   4.743  12.945  1.4653 -1.1327 -0.6554
   6223SM   C9S 7937   4.295   4.700  13.033 -0.4559  0.0177 -0.0329
   6223SM   H9S 7938   4.282   4.591  13.015  0.2798  0.1313 -1.3961
   6223SM   H9T 7939   4.360   4.717  13.122 -1.9725 -0.0175  1.1376
   6223SM  C10S 7940   4.376   4.766  12.918 -0.2570  0.1535 -0.5092
   6223SM  H10S 7941   4.473   4.712  12.924 -0.4766 -0.0895  1.2418
   6223SM  H10T 7942   4.403   4.871  12.941 -1.1215  0.2691  0.0045
   6223SM  C11S 7943   4.317   4.736  12.783  0.1417  0.0807  0.3630
   6223SM  H11S 7944   4.244   4.816  12.758  0.6706  1.0085  1.6693
   6223SM  H11T 7945   4.263   4.638  12.782 -2.3489  1.3609 -0.2641
   6223SM  C12S 7946   4.425   4.737  12.685  0.1259 -0.2688  0.1526
   6223SM  H12S 7947   4.487   4.645  12.683  1.2112  0.4615 -0.3578
   6223SM  H12T 7948   4.500   4.815  12.709  0.9063 -1.1512  0.6901
   6223SM  C13S 7949   4.373   4.775  12.546 -0.2745 -0.5111 -0.4497
   6223SM  H13S 7950   4.326   4.876  12.550  0.9186  0.1574 -2.3973
   6223SM  H13T 7951   4.293   4.703  12.518 -0.4306  0.2384 -2.0611
   6223SM  C14S 7952   4.485   4.773  12.440  0.7072  0.4327  0.0668
   6223SM  H14S 7953   4.509   4.665  12.437 -0.3136  0.2042 -0.1160
   6223SM  H14T 7954   4.572   4.840  12.460  0.2418  0.9647  0.3238
   6223SM  C15S 7955   4.436   4.816  12.305 -0.0369 -0.5708 -0.3694
   6223SM  H15S 7956   4.420   4.926  12.303 -0.6323 -0.6522 -0.0473
   6223SM  H15T 7957   4.342   4.766  12.274  0.5394 -1.2239 -1.1156
   6223SM  C16S 7958   4.540   4.790  12.204 -0.9378  0.5606 -1.0879
   6223SM  H16S 7959   4.559   4.681  12.207  1.1354  0.8719 -1.6653
   6223SM  H16T 7960   4.629   4.838  12.250 -1.2319  0.1141 -0.0275
   6223SM  C17S 7961   4.515   4.842  12.066  0.1278 -0.3627 -0.2323
   6223SM  H17S 7962   4.586   4.815  11.986  0.2111  2.9263 -1.4339
   6223SM  H17T 7963   4.506   4.952  12.054 -2.5966 -0.8565 -4.8679
   6223SM  C18S 7964   4.373   4.804  12.014 -1.3027  0.4274  0.4576
   6223SM  H18S 7965   4.375   4.811  11.903 -3.0384  0.8032  0.4320
   6223SM  H18T 7966   4.290   4.866  12.054 -0.0331  1.4579  1.5890
   6223SM  H18U 7967   4.347   4.701  12.046 -0.6430  0.1637  0.1752
   6223SM   C1F 7968   3.549   5.021  13.385  0.2621 -0.1474  0.6411
   6223SM    OF 7969   3.549   5.099  13.477 -0.4875  0.4013 -0.0323
   6223SM   C2F 7970   3.476   5.060  13.257 -0.8920  0.1091 -0.1733
   6223SM   H2F 7971   3.392   5.129  13.281  0.4389  1.5179  0.6046
   6223SM   H2G 7972   3.434   4.967  13.213 -1.4978 -0.1736  0.9751
   6223SM   C3F 7973   3.571   5.132  13.156 -0.0850 -0.0590  0.7195
   6223SM   H3F 7974   3.648   5.063  13.116  2.2935  2.7650  0.0826
   6223SM   H3G 7975   3.630   5.211  13.207 -0.0006  0.4545 -0.1551
   6223SM   C4F 7976   3.502   5.209  13.042 -0.5815 -0.1345 -0.1982
   6223SM   H4F 7977   3.509   5.313  13.079  2.8835  0.2028 -1.4481
   6223SM   H4G 7978   3.401   5.171  13.015 -0.3712 -0.5896 -0.3567
   6223SM   C5F 7979   3.592   5.203  12.918 -0.6010 -0.3786  0.0941
   6223SM   H5F 7980   3.622   5.098  12.898  1.2706  0.1291  0.0206
   6223SM   H5G 7981   3.687   5.259  12.934  0.1315 -1.2902 -0.9188
   6223SM   C6F 7982   3.530   5.253  12.785  0.4407 -0.3774 -0.2502
   6223SM   H6F 7983   3.493   5.352  12.820  1.6457  0.5516 -1.5118
   6223SM   H6G 7984   3.444   5.193  12.748 -1.3561  1.9090 -0.0253
   6223SM   C7F 7985   3.639   5.267  12.672  0.2044 -0.2915  0.1159
   6223SM   H7F 7986   3.672   5.161  12.671 -0.3625 -0.4781  0.4434
   6223SM   H7G 7987   3.724   5.337  12.684  0.6783 -0.5545 -1.4771
   6223SM   C8F 7988   3.574   5.287  12.533  0.4216  0.3950 -0.9014
   6223SM   H8F 7989   3.510   5.378  12.532  0.0276  0.1202 -1.1726
   6223SM   H8G 7990   3.516   5.195  12.512  0.9021  0.2250 -1.5351
   6223SM   C9F 7991   3.680   5.295  12.426 -0.3358  0.4869  0.4585
   6223SM   H9F 7992   3.728   5.195  12.416 -0.4293  0.5819 -1.3090
   6223SM   H9G 7993   3.759   5.367  12.455 -0.3160  1.6917 -2.2955
   6223SM  C10F 7994   3.639   5.338  12.286  0.6236 -0.3109  0.1914
   6223SM  H10F 7995   3.704   5.424  12.259  2.7397 -0.8917  2.9269
   6223SM  H10G 7996   3.537   5.383  12.288  0.6653 -0.1932 -0.3334
   6223SM  C11F 7997   3.619   5.227  12.187 -0.4711 -0.0213  0.5141
   6223SM  H11F 7998   3.530   5.170  12.220 -0.2739 -0.9661 -0.5300
   6223SM  H11G 7999   3.711   5.164  12.185  1.3673  2.5053  0.6355
   6223SM  C12F 8000   3.587   5.274  12.043 -1.0785  0.3350 -0.1511
   6223SM  H12F 8001   3.573   5.383  12.025  0.2023  0.7930  1.3974
   6223SM  H12G 8002   3.491   5.226  12.016 -0.7238  0.0201 -0.8723
   6223SM  C13F 8003   3.695   5.229  11.941  0.6680 -0.1750  0.1537
   6223SM  H13F 8004   3.707   5.118  11.942 -0.2794 -0.3332 -1.3119
   6223SM  H13G 8005   3.789   5.279  11.970  1.6066 -1.2956 -0.8468
   6223SM  C14F 8006   3.649   5.270  11.796  0.6724  0.2278 -0.0740
   6223SM  H14F 8007   3.626   5.378  11.808  0.0924  0.1622 -0.5551
   6223SM  H14G 8008   3.554   5.224  11.761 -0.0705  2.3266 -0.9774
   6223SM  C15F 8009   3.766   5.257  11.704 -0.3138 -0.4843 -0.1302
   6223SM  H15F 8010   3.783   5.147  11.697 -1.9429 -0.7874  0.1771
   6223SM  H15G 8011   3.857   5.300  11.750 -0.5655 -0.5592  0.4389
   6223SM  C16F 8012   3.748   5.311  11.561  0.1141  0.2831 -0.2919
   6223SM  H16F 8013   3.841   5.286  11.506 -0.3079 -1.0032 -0.4795
   6223SM  H16G 8014   3.743   5.421  11.564  0.9908  0.4918 -3.1189
   6223SM  C17F 8015   3.633   5.248  11.481 -0.0560 -0.4005 -0.7735
   6223SM  H17F 8016   3.539   5.289  11.525  0.1508  1.0715 -1.6402
   6223SM  H17G 8017   3.628   5.139  11.502 -3.4589  0.3122  3.5239
   6223SM  C18F 8018   3.633   5.284  11.328  0.3906  0.1783  0.7319
   6223SM  H18F 8019   3.733   5.261  11.287  0.4651  1.0255  0.4207
   6223SM  H18G 8020   3.625   5.395  11.327 -2.2488  0.0553  1.2348
   6223SM  C19F 8021   3.530   5.223  11.237  0.1279  0.7839  1.2974
   6223SM  H19F 8022   3.427   5.235  11.279  0.0214  0.1873  1.2222
   6223SM  H19G 8023   3.551   5.114  11.234  2.4061  1.1944 -1.9711
   6223SM  C20F 8024   3.523   5.276  11.095  0.1412 -0.5253  0.8751
   6223SM  H20F 8025   3.514   5.386  11.093  2.1047 -0.2601  3.2186
   6223SM  H20G 8026   3.435   5.226  11.048  0.7248 -0.5162 -0.2613
   6223SM  C21F 8027   3.649   5.244  11.006  0.2739  0.2058  0.2605
   6223SM  H21F 8028   3.674   5.136  11.013  0.3002  0.2435  0.7467
   6223SM  H21G 8029   3.739   5.296  11.045 -0.3224 -0.3511  2.5486
   6223SM  C22F 8030   3.633   5.292  10.860 -0.1949  0.9648  0.6043
   6223SM  H22F 8031   3.541   5.243  10.821  0.5803 -0.6989  0.7657
   6223SM  H22G 8032   3.720   5.251  10.803  0.7436  2.5174  0.8631
   6223SM  C23F 8033   3.624   5.443  10.836  0.2405 -0.3416 -0.1688
   6223SM  H23F 8034   3.532   5.488  10.877 -0.1105 -0.4137 -0.8580
   6223SM  H23G 8035   3.633   5.476  10.730  0.1237  1.8424  0.4658
   6223SM  H23H 8036   3.717   5.491  10.874  0.8963 -2.5200  1.1953
   6323SM     N 8037   5.226   5.886  14.100 -0.0623  0.4732  0.3746
   6323SM   C15 8038   5.254   6.035  14.098  0.1648  0.2525  0.2343
   6323SM  H15A 8039   5.162   6.090  14.110  0.1667 -0.1640  2.5184
   6323SM  H15B 8040   5.311   6.060  14.009 -2.3778 -0.6337 -1.7598
   6323SM  H15C 8041   5.317   6.055  14.184  1.8330  1.8918 -1.2734
   6323SM   C14 8042   5.136   5.829  13.989  0.6695  0.0283 -0.5011
   6323SM  H14A 8043   5.142   5.721  13.994  1.0652  0.1174  2.1560
   6323SM  H14B 8044   5.156   5.866  13.890 -0.3432 -0.1333 -0.7831
   6323SM  H14C 8045   5.036   5.855  14.020  1.2988  1.0050  0.7907
   6323SM   C13 8046   5.352   5.814  14.098  0.7689  0.3849  0.3850
   6323SM  H13A 8047   5.423   5.860  14.031 -0.5689  1.8197 -0.1211
   6323SM  H13B 8048   5.347   5.710  14.070  1.4262  0.5279 -0.3126
   6323SM  H13C 8049   5.403   5.805  14.193  0.6242 -2.5606  0.2777
   6323SM   C12 8050   5.149   5.843  14.228 -0.0267 -0.1160  0.1674
   6323SM  H12A 8051   5.208   5.888  14.307 -0.0239  0.0836  0.0539
   6323SM  H12B 8052   5.132   5.737  14.234 -4.0188  0.1723 -2.3924
   6323SM   C11 8053   5.009   5.912  14.257 -0.2887 -0.4303  0.2221
   6323SM  H11A 8054   4.980   5.892  14.362  1.1846  1.5203  1.0623
   6323SM  H11B 8055   4.938   5.855  14.193  0.2375 -0.1855 -0.5942
   6323SM     P 8056   4.857   6.105  14.163 -0.4971  0.1764 -0.0469
   6323SM   O13 8057   4.744   6.062  14.254 -0.5361  0.6515 -0.2161
   6323SM   O14 8058   4.868   6.256  14.145 -0.0838 -0.2302  0.5818
   6323SM   O11 8059   4.843   6.024  14.027  0.2367  0.7702 -0.1035
   6323SM   O12 8060   4.996   6.055  14.223 -0.4047  0.3033 -0.4884
   6323SM   C1S 8061   4.865   6.091  13.897 -0.5339 -0.3793  0.1866
   6323SM   H1S 8062   4.972   6.117  13.881 -1.0953  1.2742 -1.1209
   6323SM   H1T 8063   4.813   6.188  13.882  0.8657  1.0680  3.5505
   6323SM    NF 8064   4.871   6.037  13.667 -1.4161 -0.5410  0.4083
   6323SM   HNF 8065   4.804   6.075  13.605  0.8838  1.7754 -0.8406
   6323SM   C2S 8066   4.828   5.988  13.786  0.1132  0.5653  0.1997
   6323SM   H2S 8067   4.878   5.891  13.806 -0.5201  0.8149  3.5633
   6323SM   C3S 8068   4.672   5.944  13.801 -0.2017 -0.1830 -0.3935
   6323SM   H3S 8069   4.606   6.031  13.782 -0.3967  0.2288  1.9145
   6323SM    O3 8070   4.629   5.893  13.927 -0.3299 -0.1270  0.2387
   6323SM   HO3 8071   4.701   5.914  13.986 -1.3273  1.4100  0.9527
   6323SM   C4S 8072   4.644   5.842  13.699 -0.3315  0.1548 -0.0282
   6323SM   H4S 8073   4.702   5.751  13.718 -0.6915 -0.0422  0.1311
   6323SM   C5S 8074   4.545   5.853  13.614  0.1043  0.2269 -1.0557
   6323SM   H5S 8075   4.480   5.941  13.622 -0.6138 -0.3665 -0.0574
   6323SM   C6S 8076   4.502   5.762  13.496 -0.1980 -0.8326 -0.4422
   6323SM   H6S 8077   4.392   5.764  13.479 -0.0641  1.5169 -1.4489
   6323SM   H6T 8078   4.527   5.654  13.506 -0.6529 -0.7172  3.0252
   6323SM   C7S 8079   4.555   5.813  13.358  0.6781 -0.2554  0.7265
   6323SM   H7S 8080   4.515   5.744  13.281  1.7237  2.5021 -2.5659
   6323SM   H7T 8081   4.666   5.802  13.356  0.5913 -1.3731  1.0897
   6323SM   C8S 8082   4.524   5.964  13.329 -0.3751  0.3404 -1.0379
   6323SM   H8S 8083   4.575   6.023  13.407  0.6077 -1.4943 -0.2257
   6323SM   H8T 8084   4.415   5.984  13.330 -0.8769 -2.0795 -1.5895
   6323SM   C9S 8085   4.583   6.004  13.196 -0.0117 -0.1312 -0.6136
   6323SM   H9S 8086   4.686   5.962  13.205  0.0839  0.1020 -0.6141
   6323SM   H9T 8087   4.585   6.115  13.193 -0.2214 -0.0684  0.7837
   6323SM  C10S 8088   4.498   5.950  13.075  0.2445  1.2065  0.1106
   6323SM  H10S 8089   4.404   6.008  13.083 -0.9255 -0.5013 -0.5951
   6323SM  H10T 8090   4.476   5.842  13.091  2.2579  0.8501  0.7439
   6323SM  C11S 8091   4.567   5.977  12.946  0.6899 -0.2716 -0.1452
   6323SM  H11S 8092   4.657   5.913  12.957  1.7848  1.3832  1.0582
   6323SM  H11T 8093   4.597   6.084  12.940  1.1944 -0.2114  2.2569
   6323SM  C12S 8094   4.483   5.942  12.819  0.0062 -0.5556 -0.7483
   6323SM  H12S 8095   4.395   6.009  12.811  1.0895  1.0107 -0.0070
   6323SM  H12T 8096   4.444   5.838  12.828 -1.6694  0.1112  0.1448
   6323SM  C13S 8097   4.563   5.946  12.687  0.6503  0.7817 -0.2960
   6323SM  H13S 8098   4.640   5.867  12.701 -2.7128 -2.3801  2.1461
   6323SM  H13T 8099   4.605   6.047  12.666  1.1455  0.6924  0.2293
   6323SM  C14S 8100   4.467   5.897  12.578  0.3971  0.0935 -1.2119
   6323SM  H14S 8101   4.428   5.990  12.532  2.4198  1.2548 -0.7206
   6323SM  H14T 8102   4.386   5.842  12.630  1.8511  0.3616  1.5037
   6323SM  C15S 8103   4.530   5.833  12.456 -0.1476  0.8015  0.1973
   6323SM  H15S 8104   4.576   5.741  12.498 -0.8975  0.6150  0.6309
   6323SM  H15T 8105   4.615   5.893  12.418  3.6531 -3.2475  1.3543
   6323SM  C16S 8106   4.441   5.796  12.338 -0.0875  0.1560  0.4128
   6323SM  H16S 8107   4.335   5.805  12.367 -0.4548  2.2858 -1.3703
   6323SM  H16T 8108   4.454   5.689  12.310 -0.3686 -0.3152  1.9384
   6323SM  C17S 8109   4.464   5.875  12.206 -0.5341  0.5897  0.8941
   6323SM  H17S 8110   4.562   5.839  12.168 -0.0188  1.4778  1.3398
   6323SM  H17T 8111   4.470   5.984  12.227 -0.5564  0.4513  1.6451
   6323SM  C18S 8112   4.364   5.847  12.091 -0.1015 -0.1062  0.1766
   6323SM  H18S 8113   4.411   5.899  12.004 -1.0417  0.5073  0.0277
   6323SM  H18T 8114   4.270   5.900  12.114  0.5703  0.7535  1.0144
   6323SM  H18U 8115   4.358   5.736  12.077  1.2660 -0.0727 -0.9401
   6323SM   C1F 8116   5.001   6.037  13.616  0.7914  0.8511  0.0644
   6323SM    OF 8117   5.101   6.014  13.687  0.5484  0.1937  0.3945
   6323SM   C2F 8118   5.014   6.061  13.470  0.1159  0.0944 -0.0454
   6323SM   H2F 8119   5.070   6.157  13.464  0.3089  0.3404  3.3215
   6323SM   H2G 8120   4.914   6.065  13.423  0.0794  0.3376  0.0501
   6323SM   C3F 8121   5.107   5.956  13.407 -0.2424  0.0205 -0.8058
   6323SM   H3F 8122   5.057   5.859  13.427  0.5698  0.0104  1.3805
   6323SM   H3G 8123   5.207   5.945  13.455 -0.7351  1.6257  0.6911
   6323SM   C4F 8124   5.126   5.971  13.257 -0.3372  0.8490 -0.3253
   6323SM   H4F 8125   5.188   5.890  13.211 -1.5211 -0.2280 -0.0965
   6323SM   H4G 8126   5.176   6.069  13.241 -0.0404  0.9622  1.1588
   6323SM   C5F 8127   4.988   5.977  13.184 -0.1861 -0.0982 -0.1131
   6323SM   H5F 8128   4.926   6.067  13.205 -0.6106  0.1768 -2.2571
   6323SM   H5G 8129   4.929   5.897  13.233 -0.0341 -0.8909 -1.1824
   6323SM   C6F 8130   4.993   5.969  13.035  0.2813 -0.1458  0.2080
   6323SM   H6F 8131   4.890   5.983  12.997 -0.0298 -3.0949 -0.2946
   6323SM   H6G 8132   5.032   5.871  13.000  1.3526  0.1957  0.4192
   6323SM   C7F 8133   5.081   6.081  12.973 -0.1736  0.2236  0.0692
   6323SM   H7F 8134   5.189   6.061  12.989 -0.3222 -2.3851 -1.5693
   6323SM   H7G 8135   5.052   6.180  13.015 -0.0937  0.9198 -1.4337
   6323SM   C8F 8136   5.077   6.071  12.816  0.2461  0.0974  0.5475
   6323SM   H8F 8137   5.123   5.974  12.786 -1.2138 -0.1329 -1.0680
   6323SM   H8G 8138   5.142   6.149  12.771 -0.0956 -0.5635 -1.1444
   6323SM   C9F 8139   4.946   6.082  12.737 -0.5911 -0.1204 -0.3038
   6323SM   H9F 8140   4.886   6.166  12.778  1.6440  0.7329  1.4121
   6323SM   H9G 8141   4.877   5.995  12.731 -2.1304  1.1902 -4.2965
   6323SM  C10F 8142   4.971   6.117  12.586 -0.5294  0.0630 -0.4228
   6323SM  H10F 8143   5.036   6.035  12.548 -1.7128 -1.0783 -0.0508
   6323SM  H10G 8144   5.027   6.213  12.588 -0.1694 -0.1361 -0.7356
   6323SM  C11F 8145   4.846   6.147  12.499  0.2369 -0.4096 -0.5387
   6323SM  H11F 8146   4.783   6.234  12.526 -2.4483 -2.1865 -0.7515
   6323SM  H11G 8147   4.771   6.066  12.502 -1.8053  1.4250  0.6769
   6323SM  C12F 8148   4.870   6.169  12.348 -0.0315  0.2994 -0.6266
   6323SM  H12F 8149   4.917   6.075  12.311  0.2330  0.1614  0.0441
   6323SM  H12G 8150   4.934   6.258  12.328 -2.0881  1.9181 -0.3332
   6323SM  C13F 8151   4.743   6.187  12.268 -0.1873 -0.3324  0.8755
   6323SM  H13F 8152   4.693   6.281  12.299  0.0805 -0.2439  1.0442
   6323SM  H13G 8153   4.675   6.102  12.289 -0.5834  0.2351  1.9524
   6323SM  C14F 8154   4.790   6.188  12.124  0.2840 -0.1503 -0.2680
   6323SM  H14F 8155   4.831   6.092  12.087 -0.0912  0.1557 -1.5608
   6323SM  H14G 8156   4.871   6.262  12.107  2.0873 -1.8509  0.6354
   6323SM  C15F 8157   4.668   6.219  12.037 -0.2667 -0.8402  0.1583
   6323SM  H15F 8158   4.621   6.313  12.071 -0.7999 -1.8520  2.4455
   6323SM  H15G 8159   4.593   6.138  12.052 -1.1796 -0.1311 -0.4668
   6323SM  C16F 8160   4.700   6.226  11.886 -0.5784 -0.2203 -0.0781
   6323SM  H16F 8161   4.610   6.200  11.826 -2.6122  2.4775  1.5355
   6323SM  H16G 8162   4.776   6.147  11.867 -0.8918 -0.4465 -0.3899
   6323SM  C17F 8163   4.746   6.362  11.849  0.0521 -0.3274  0.2944
   6323SM  H17F 8164   4.834   6.385  11.912 -1.0243  0.7005  1.4695
   6323SM  H17G 8165   4.673   6.440  11.879 -0.9415 -1.6478  1.4172
   6323SM  C18F 8166   4.780   6.383  11.698  0.6883  0.1675 -0.7069
   6323SM  H18F 8167   4.684   6.365  11.647  1.0073  1.0581 -1.6514
   6323SM  H18G 8168   4.851   6.305  11.663 -0.2574 -0.5816 -0.9699
   6323SM  C19F 8169   4.835   6.525  11.661 -0.1155 -0.6642  0.4032
   6323SM  H19F 8170   4.740   6.582  11.664 -0.0836 -0.6198  0.5603
   6323SM  H19G 8171   4.864   6.514  11.554 -0.5788  1.7600 -0.0178
   6323SM  C20F 8172   4.949   6.587  11.745  0.4772  0.3016 -0.3207
   6323SM  H20F 8173   5.050   6.543  11.733  0.5183  0.2371  0.2546
   6323SM  H20G 8174   4.923   6.583  11.853  0.6782 -0.2151 -0.2920
   6323SM  C21F 8175   4.960   6.738  11.723  0.2838 -0.6559  0.4356
   6323SM  H21F 8176   5.048   6.761  11.786  0.6992  0.1587 -0.4145
   6323SM  H21G 8177   4.869   6.786  11.766 -0.5299 -1.4031 -0.4119
   6323SM  C22F 8178   4.980   6.785  11.572  0.1172 -0.0078  0.1188
   6323SM  H22F 8179   5.017   6.889  11.582 -0.9740  0.3044  1.2060
   6323SM  H22G 8180   4.883   6.781  11.518  0.3585  2.0495 -0.5510
   6323SM  C23F 8181   5.090   6.712  11.493 -0.0593  0.4417 -0.0793
   6323SM  H23F 8182   5.188   6.742  11.537  0.1552 -0.2864 -0.0545
   6323SM  H23G 8183   5.084   6.745  11.387 -1.7688 -1.2364 -0.5598
   6323SM  H23H 8184   5.081   6.601  11.496 -0.6027  0.4923  0.4301
   6423SM     N 8185   5.832   5.457  13.945  0.1098  0.3715 -0.6680
   6423SM   C15 8186   5.878   5.591  13.896 -0.0857  0.7484  0.3086
   6423SM  H15A 8187   5.947   5.638  13.965 -1.1362 -0.1205  2.0337
   6423SM  H15B 8188   5.791   5.653  13.884 -1.2179 -0.6744  0.8496
   6423SM  H15C 8189   5.932   5.591  13.802  1.6529  1.7677  1.2419
   6423SM   C14 8190   5.934   5.353  13.907 -0.3030 -0.4177 -0.5902
   6423SM  H14A 8191   5.927   5.346  13.800  1.5686 -2.1519 -0.6767
   6423SM  H14B 8192   5.902   5.255  13.939 -0.1088  0.0581  1.1600
   6423SM  H14C 8193   6.030   5.384  13.946 -0.9414  1.3322 -0.3601
   6423SM   C13 8194   5.801   5.460  14.091  0.5391  0.0444  0.5431
   6423SM  H13A 8195   5.793   5.357  14.121 -1.0455  0.0997  0.3939
   6423SM  H13B 8196   5.717   5.517  14.127 -1.0023 -2.7545  1.7133
   6423SM  H13C 8197   5.891   5.495  14.140 -1.8981  2.2624  3.9294
   6423SM   C12 8198   5.711   5.406  13.871  0.6995  0.2108 -0.3358
   6423SM  H12A 8199   5.633   5.472  13.907 -0.2882 -1.4056  0.6056
   6423SM  H12B 8200   5.688   5.304  13.898 -1.3497  0.7333  0.0669
   6423SM   C11 8201   5.706   5.407  13.714  0.2723  0.4916 -0.0769
   6423SM  H11A 8202   5.746   5.508  13.690  1.0033  0.2071 -0.0509
   6423SM  H11B 8203   5.605   5.403  13.667  0.8787  0.9418 -1.4958
   6423SM     P 8204   5.737   5.164  13.650 -0.2327 -0.7688 -0.1032
   6423SM   O13 8205   5.852   5.073  13.630  0.1687  0.3222 -0.2449
   6423SM   O14 8206   5.658   5.146  13.770 -0.1925  0.1102 -0.2993
   6423SM   O11 8207   5.637   5.165  13.523 -0.0334 -0.4998  0.5366
   6423SM   O12 8208   5.795   5.310  13.657  0.6206 -0.0836  0.5278
   6423SM   C1S 8209   5.671   5.243  13.404  0.1463  0.0028 -0.0843
   6423SM   H1S 8210   5.776   5.276  13.390 -0.1146  0.8934  0.0246
   6423SM   H1T 8211   5.618   5.339  13.420  1.5647  1.2663 -2.4305
   6423SM    NF 8212   5.694   5.242  13.148  0.2966  0.2171 -0.2251
   6423SM   HNF 8213   5.647   5.311  13.094 -0.2673 -1.0750 -1.4486
   6423SM   C2S 8214   5.623   5.183  13.267  0.8234  0.4681 -0.3392
   6423SM   H2S 8215   5.645   5.074  13.263  2.9744  0.8968 -1.7152
   6423SM   C3S 8216   5.466   5.196  13.271 -0.2174  0.6452 -0.5041
   6423SM   H3S 8217   5.452   5.303  13.244 -1.1373  0.8418  0.6124
   6423SM    O3 8218   5.404   5.202  13.402  0.2018 -0.2317  0.4350
   6423SM   HO3 8219   5.475   5.193  13.467  0.5502  2.1155  0.4482
   6423SM   C4S 8220   5.379   5.126  13.171  0.1256  0.4279  0.2896
   6423SM   H4S 8221   5.373   5.179  13.075  0.7899  0.2127  0.1263
   6423SM   C5S 8222   5.323   5.000  13.174  0.5241 -0.0895  0.3445
   6423SM   H5S 8223   5.333   4.931  13.260 -0.0650 -0.5239  0.0705
   6423SM   C6S 8224   5.255   4.930  13.058  0.3994 -0.8087 -0.3193
   6423SM   H6S 8225   5.146   4.916  13.076  0.1172  0.1825 -1.1358
   6423SM   H6T 8226   5.301   4.832  13.034  1.8183 -1.3861  4.0120
   6423SM   C7S 8227   5.258   4.999  12.918  0.1001 -0.3672 -0.9077
   6423SM   H7S 8228   5.363   5.019  12.886 -0.0411  0.2636 -0.9684
   6423SM   H7T 8229   5.215   5.100  12.932  0.7462 -0.0924 -0.8737
   6423SM   C8S 8230   5.163   4.941  12.818 -0.0650  0.0702 -0.0412
   6423SM   H8S 8231   5.147   5.016  12.739  1.4100  1.6456  1.0877
   6423SM   H8T 8232   5.068   4.915  12.870  1.1177 -1.3642  1.5301
   6423SM   C9S 8233   5.212   4.803  12.761  0.0674 -0.8880 -0.1444
   6423SM   H9S 8234   5.205   4.728  12.842  4.9695 -0.2747  1.1674
   6423SM   H9T 8235   5.322   4.803  12.747 -0.0750  0.2134 -1.5079
   6423SM  C10S 8236   5.150   4.755  12.629  0.2402 -0.2940 -0.3321
   6423SM  H10S 8237   5.179   4.829  12.551 -0.5106 -0.5724 -0.8857
   6423SM  H10T 8238   5.040   4.769  12.627  0.2247 -0.2480  0.5588
   6423SM  C11S 8239   5.191   4.606  12.595  0.0329 -0.5350  0.3437
   6423SM  H11S 8240   5.117   4.544  12.649 -1.7110 -0.3587 -1.7346
   6423SM  H11T 8241   5.283   4.577  12.651 -0.8913 -1.9971  1.1621
   6423SM  C12S 8242   5.198   4.563  12.447 -0.4461  0.6938  0.2028
   6423SM  H12S 8243   5.100   4.576  12.396 -1.0572 -0.3917  1.0523
   6423SM  H12T 8244   5.214   4.453  12.443 -1.3546  0.5797 -1.9923
   6423SM  C13S 8245   5.305   4.640  12.367 -0.3552 -0.7289 -0.0561
   6423SM  H13S 8246   5.401   4.610  12.414 -0.9465 -0.8175  1.1157
   6423SM  H13T 8247   5.280   4.748  12.370 -0.7346 -0.7721 -1.2073
   6423SM  C14S 8248   5.303   4.595  12.213 -0.3624 -0.1580 -0.4483
   6423SM  H14S 8249   5.199   4.606  12.175 -1.0436 -2.2286  0.6309
   6423SM  H14T 8250   5.324   4.486  12.210  1.7944  0.1347  1.0940
   6423SM  C15S 8251   5.402   4.668  12.128 -0.5255  0.1570 -0.4715
   6423SM  H15S 8252   5.500   4.628  12.160 -1.5538 -1.1810  1.1970
   6423SM  H15T 8253   5.400   4.774  12.160  2.8708  0.4351 -0.7952
   6423SM  C16S 8254   5.374   4.656  11.973  0.5814 -0.1878 -0.5493
   6423SM  H16S 8255   5.354   4.548  11.961 -0.1210 -0.2969  1.2343
   6423SM  H16T 8256   5.464   4.680  11.912  2.2127 -0.0635  1.7637
   6423SM  C17S 8257   5.255   4.739  11.923 -0.4879  1.0576  0.2111
   6423SM  H17S 8258   5.283   4.846  11.935  3.1498  0.0720  1.8032
   6423SM  H17T 8259   5.159   4.719  11.976 -0.6021  1.9050  0.3352
   6423SM  C18S 8260   5.231   4.710  11.773  0.4286 -0.2079 -0.7006
   6423SM  H18S 8261   5.305   4.770  11.718  1.8533  1.1471  2.4562
   6423SM  H18T 8262   5.128   4.749  11.755  0.9783  1.4846 -0.3418
   6423SM  H18U 8263   5.236   4.601  11.753  2.8939 -0.0833 -0.9806
   6423SM   C1F 8264   5.817   5.209  13.119  0.2520 -0.5224  0.0104
   6423SM    OF 8265   5.890   5.149  13.194  0.1624 -0.2331 -0.5861
   6423SM   C2F 8266   5.873   5.274  13.000  0.2260  0.5368  0.2807
   6423SM   H2F 8267   5.952   5.345  13.031  0.9405  0.4979 -1.3367
   6423SM   H2G 8268   5.790   5.322  12.945 -0.6537 -0.9482  0.2486
   6423SM   C3F 8269   5.942   5.160  12.914 -0.6030 -0.5590  0.1814
   6423SM   H3F 8270   5.891   5.061  12.922 -1.1006 -0.4107 -0.8631
   6423SM   H3G 8271   6.038   5.162  12.971  0.9056  0.0614 -2.2202
   6423SM   C4F 8272   5.961   5.193  12.763 -0.2910 -0.7288  0.1372
   6423SM   H4F 8273   5.870   5.171  12.703 -0.2343  1.3213 -0.7958
   6423SM   H4G 8274   6.042   5.134  12.716  1.7784  1.6791  0.4758
   6423SM   C5F 8275   5.998   5.337  12.731 -0.2524 -0.0146 -0.0117
   6423SM   H5F 8276   6.081   5.356  12.802 -0.6680  0.5362  0.3260
   6423SM   H5G 8277   5.912   5.406  12.745  1.2491  1.9064  0.1791
   6423SM   C6F 8278   6.030   5.360  12.581 -0.1388  0.7508 -0.5035
   6423SM   H6F 8279   6.102   5.285  12.542  0.2200  0.8534 -0.0576
   6423SM   H6G 8280   6.078   5.459  12.570 -0.0338  0.8168  0.4251
   6423SM   C7F 8281   5.910   5.346  12.492  0.0396 -0.3482  1.5173
   6423SM   H7F 8282   5.846   5.433  12.516  0.1054  0.1110  0.1262
   6423SM   H7G 8283   5.848   5.257  12.520  0.8237 -0.8535  1.6632
   6423SM   C8F 8284   5.930   5.342  12.335  0.3846  0.1485 -0.8901
   6423SM   H8F 8285   5.985   5.247  12.319 -1.2022 -0.9723 -0.0405
   6423SM   H8G 8286   5.985   5.430  12.294 -2.4630  0.8446 -3.6819
   6423SM   C9F 8287   5.800   5.337  12.259 -0.2632 -0.7202 -0.4128
   6423SM   H9F 8288   5.732   5.415  12.299  0.9285 -1.4290  3.4560
   6423SM   H9G 8289   5.740   5.246  12.277  0.5280 -0.8345  2.0804
   6423SM  C10F 8290   5.805   5.379  12.110 -0.5986  0.1552 -0.4999
   6423SM  H10F 8291   5.877   5.462  12.103 -0.3602 -0.0290 -0.2551
   6423SM  H10G 8292   5.702   5.411  12.085 -0.5193  0.0581 -0.9588
   6423SM  C11F 8293   5.847   5.266  12.017  0.5689 -0.5912 -0.2826
   6423SM  H11F 8294   5.811   5.293  11.915  0.0976 -0.7717 -0.1695
   6423SM  H11G 8295   5.787   5.174  12.038 -3.4725  1.6281 -1.0004
   6423SM  C12F 8296   5.995   5.219  12.008 -0.4386 -0.2318  0.7657
   6423SM  H12F 8297   6.017   5.166  12.103  1.5101 -0.4536  0.2259
   6423SM  H12G 8298   6.057   5.310  11.992  0.1611 -0.7421  0.1343
   6423SM  C13F 8299   6.033   5.126  11.895 -0.2020 -0.1647 -0.1437
   6423SM  H13F 8300   6.007   5.167  11.795 -1.6836 -0.2771  0.1649
   6423SM  H13G 8301   5.979   5.031  11.916 -0.7780  0.8941  4.1314
   6423SM  C14F 8302   6.185   5.080  11.906  0.3716  0.7634  0.2923
   6423SM  H14F 8303   6.202   5.047  12.010 -0.1013  0.0273  0.1419
   6423SM  H14G 8304   6.240   5.175  11.886  0.6583  0.4773 -0.2875
   6423SM  C15F 8305   6.232   4.969  11.810  0.1874 -0.7602 -0.2370
   6423SM  H15F 8306   6.176   4.878  11.840  0.3593 -0.3202  1.4887
   6423SM  H15G 8307   6.340   4.961  11.833  0.7678  3.3677 -0.7533
   6423SM  C16F 8308   6.205   5.010  11.660 -0.0097 -0.2524 -0.2354
   6423SM  H16F 8309   6.252   5.107  11.634 -3.2237  1.3732 -0.5798
   6423SM  H16G 8310   6.096   5.021  11.639  0.3940  0.6599 -2.0528
   6423SM  C17F 8311   6.252   4.893  11.564  0.1014  0.4365 -0.5777
   6423SM  H17F 8312   6.186   4.810  11.595  2.9235 -0.8506  2.4995
   6423SM  H17G 8313   6.356   4.858  11.578 -1.0157 -2.3944  1.7089
   6423SM  C18F 8314   6.230   4.917  11.416 -0.8991  0.7934  1.1210
   6423SM  H18F 8315   6.181   5.015  11.398  0.5198  1.2461 -0.5211
   6423SM  H18G 8316   6.171   4.835  11.368  0.6135  0.9330 -1.1390
   6423SM  C19F 8317   6.365   4.916  11.340  0.9988 -0.5939  0.3606
   6423SM  H19F 8318   6.412   4.815  11.336  0.8386 -0.6933  0.9714
   6423SM  H19G 8319   6.424   4.994  11.393 -1.6335  2.6869 -1.1813
   6423SM  C20F 8320   6.354   4.969  11.189  0.3735  0.5305 -0.1840
   6423SM  H20F 8321   6.461   4.975  11.159  0.3183 -0.1924 -0.5365
   6423SM  H20G 8322   6.318   5.074  11.183  2.1261  1.0849 -2.6649
   6423SM  C21F 8323   6.275   4.877  11.098  0.4004 -0.1703 -0.2867
   6423SM  H21F 8324   6.171   4.863  11.133  0.6409  0.8784  0.9346
   6423SM  H21G 8325   6.322   4.777  11.094 -3.3168 -2.0386 -1.1479
   6423SM  C22F 8326   6.265   4.919  10.957  0.3596 -0.1623  0.2301
   6423SM  H22F 8327   6.195   4.854  10.900  0.9985  0.5576 -1.4257
   6423SM  H22G 8328   6.361   4.924  10.903  0.4271  0.9254  0.4412
   6423SM  C23F 8329   6.196   5.055  10.947 -0.0076  0.3458  0.2637
   6423SM  H23F 8330   6.269   5.138  10.953 -2.2360  2.5615 -1.2499
   6423SM  H23G 8331   6.115   5.077  11.019 -0.6493  1.6551 -0.8118
   6423SM  H23H 8332   6.146   5.070  10.849  0.9361  2.8155  0.0856
   6523SM     N 8333   5.562   0.382  13.716  0.2404 -0.1494  0.0266
   6523SM   C15 8334   5.688   0.331  13.659  0.0723 -0.8087  0.1494
   6523SM  H15A 8335   5.667   0.232  13.622  0.0568 -0.7459 -0.0096
   6523SM  H15B 8336   5.769   0.329  13.730  0.8755  0.6632 -0.6861
   6523SM  H15C 8337   5.735   0.392  13.583 -1.1160  0.4287  0.3722
   6523SM   C14 8338   5.524   0.290  13.838  0.1972  0.7935 -0.0194
   6523SM  H14A 8339   5.595   0.301  13.918 -0.4231  0.9736  0.5154
   6523SM  H14B 8340   5.504   0.191  13.802  2.4278  0.5064 -0.6589
   6523SM  H14C 8341   5.429   0.328  13.873 -0.2649  0.6068 -1.0289
   6523SM   C13 8342   5.579   0.524  13.769  0.2165 -0.4623 -0.2023
   6523SM  H13A 8343   5.494   0.559  13.826  0.2097  0.5567 -0.8200
   6523SM  H13B 8344   5.586   0.597  13.690  0.5046  1.2558  1.3228
   6523SM  H13C 8345   5.662   0.525  13.838 -2.0039 -0.4821  2.7035
   6523SM   C12 8346   5.454   0.388  13.601 -0.3579 -0.8276  0.2611
   6523SM  H12A 8347   5.433   0.285  13.574  1.2936 -1.0021 -0.4979
   6523SM  H12B 8348   5.490   0.436  13.511 -2.0447  0.9736  0.4810
   6523SM   C11 8349   5.315   0.448  13.627  0.2241 -0.6163 -0.3339
   6523SM  H11A 8350   5.245   0.459  13.542  1.1748  0.3221 -1.0073
   6523SM  H11B 8351   5.344   0.551  13.655  2.4783 -0.6979 -2.1159
   6523SM     P 8352   5.134   0.281  13.728 -0.1268  0.4187 -0.3824
   6523SM   O13 8353   5.172   0.157  13.810 -0.1241 -0.2228 -0.0162
   6523SM   O14 8354   5.003   0.339  13.763 -0.2701 -0.1822  0.2438
   6523SM   O11 8355   5.145   0.244  13.578 -0.0625  0.1210 -0.1764
   6523SM   O12 8356   5.252   0.389  13.742 -0.6601  0.6506 -0.0786
   6523SM   C1S 8357   5.044   0.156  13.529  0.5853  0.0004 -0.2198
   6523SM   H1S 8358   4.941   0.170  13.570 -0.2235 -1.0684 -1.8068
   6523SM   H1T 8359   5.073   0.051  13.554 -0.1887 -0.2545 -0.3681
   6523SM    NF 8360   4.899   0.075  13.341  0.0550  0.3865  0.1743
   6523SM   HNF 8361   4.910  -0.010  13.290  1.5650  0.2906  0.6113
   6523SM   C2S 8362   5.017   0.156  13.379  0.1618 -0.0828 -0.4746
   6523SM   H2S 8363   4.985   0.258  13.349 -1.0285 -0.6738 -1.2783
   6523SM   C3S 8364   5.145   0.117  13.294  0.1604 -0.2008  0.4951
   6523SM   H3S 8365   5.178   0.014  13.321  1.9510  1.0365  3.6905
   6523SM    O3 8366   5.259   0.190  13.334  0.1066  0.1108 -0.0253
   6523SM   HO3 8367   5.236   0.221  13.421  1.4188  0.2029  0.3140
   6523SM   C4S 8368   5.107   0.125  13.150  0.0578  0.1364  0.0789
   6523SM   H4S 8369   5.051   0.040  13.107 -0.7756  2.1669 -3.1874
   6523SM   C5S 8370   5.120   0.228  13.058 -0.9421  0.4198  0.3765
   6523SM   H5S 8371   5.175   0.322  13.076 -0.2330 -0.0721  0.8559
   6523SM   C6S 8372   5.067   0.211  12.915  0.5649 -0.1819  0.1490
   6523SM   H6S 8373   5.141   0.275  12.862  1.9839 -1.2182  0.7958
   6523SM   H6T 8374   4.967   0.258  12.912  0.5997 -0.1137  0.0221
   6523SM   C7S 8375   5.068   0.070  12.850 -0.2526 -0.1214 -0.6164
   6523SM   H7S 8376   4.999   0.005  12.908  0.9411 -0.3678  0.5860
   6523SM   H7T 8377   5.168   0.024  12.862 -0.1989  0.3116  0.7019
   6523SM   C8S 8378   5.014   0.082  12.708  0.2348 -0.7895  0.6622
   6523SM   H8S 8379   4.906   0.106  12.699  1.1275  3.3176 -3.0440
   6523SM   H8T 8380   5.023  -0.016  12.656 -1.4819  0.0107 -1.3000
   6523SM   C9S 8381   5.089   0.177  12.609  0.0589 -0.0196  0.3639
   6523SM   H9S 8382   5.197   0.160  12.631 -0.1523 -0.5744  1.0339
   6523SM   H9T 8383   5.056   0.280  12.634 -0.8912 -0.2153 -0.0292
   6523SM  C10S 8384   5.059   0.151  12.455 -0.0880 -0.1299 -0.0184
   6523SM  H10S 8385   4.949   0.150  12.437  0.2132 -0.7139 -2.0801
   6523SM  H10T 8386   5.081   0.045  12.430  3.5535  0.0062  1.9686
   6523SM  C11S 8387   5.127   0.242  12.350 -0.2722 -0.0210 -0.2266
   6523SM  H11S 8388   5.236   0.249  12.371  0.0310 -1.2916 -1.2580
   6523SM  H11T 8389   5.090   0.347  12.355  1.3575  0.6965 -2.0876
   6523SM  C12S 8390   5.098   0.188  12.207  0.0787  0.4504  0.6667
   6523SM  H12S 8391   4.993   0.208  12.177  0.8440  2.4868 -0.8780
   6523SM  H12T 8392   5.124   0.081  12.196  1.7888  1.0450 -1.9360
   6523SM  C13S 8393   5.180   0.263  12.099  0.1478  0.0594 -0.1809
   6523SM  H13S 8394   5.289   0.255  12.116  0.4148  1.2656 -1.2115
   6523SM  H13T 8395   5.140   0.366  12.103 -2.2013 -0.7497 -0.9163
   6523SM  C14S 8396   5.144   0.223  11.957 -0.0761 -0.0533  0.5109
   6523SM  H14S 8397   5.042   0.253  11.926  0.0905 -1.4476 -1.6296
   6523SM  H14T 8398   5.150   0.113  11.941  2.2562  0.3342 -2.1257
   6523SM  C15S 8399   5.251   0.276  11.855  0.2052 -0.4116 -0.3440
   6523SM  H15S 8400   5.215   0.272  11.750  0.8382  1.1997 -0.6571
   6523SM  H15T 8401   5.345   0.219  11.874  1.8762  1.3573 -2.6253
   6523SM  C16S 8402   5.291   0.419  11.880  0.3034  0.1830  0.3543
   6523SM  H16S 8403   5.320   0.433  11.986  2.8689 -2.6213  0.1959
   6523SM  H16T 8404   5.203   0.484  11.863 -0.6606 -1.4095 -1.0982
   6523SM  C17S 8405   5.414   0.461  11.799  0.0868  0.7448 -0.3508
   6523SM  H17S 8406   5.424   0.398  11.708 -2.2446 -0.8191  0.3914
   6523SM  H17T 8407   5.503   0.424  11.855 -0.3661 -0.3289 -0.3218
   6523SM  C18S 8408   5.429   0.606  11.768  0.7361 -0.6080  0.6334
   6523SM  H18S 8409   5.349   0.648  11.704  0.3509 -0.0476  1.4680
   6523SM  H18T 8410   5.520   0.615  11.706  0.0847  0.5567 -0.1819
   6523SM  H18U 8411   5.435   0.664  11.863  0.2187  1.3855 -0.5056
   6523SM   C1F 8412   4.777   0.112  13.383  0.0105  0.3463 -0.1817
   6523SM    OF 8413   4.761   0.223  13.426 -0.1672 -0.0192 -0.5444
   6523SM   C2F 8414   4.662   0.016  13.383 -0.3330  0.1275 -0.5612
   6523SM   H2F 8415   4.610   0.007  13.481  3.0555 -0.4093  1.3786
   6523SM   H2G 8416   4.699  -0.089  13.372 -1.6128 -0.3377 -0.5860
   6523SM   C3F 8417   4.551   0.043  13.276 -0.5812 -0.5358  0.8926
   6523SM   H3F 8418   4.495   0.136  13.301 -1.4696 -1.0982  1.0398
   6523SM   H3G 8419   4.475  -0.038  13.278  0.5624 -1.6748  0.0049
   6523SM   C4F 8420   4.608   0.030  13.129  0.3697  0.0079 -0.0151
   6523SM   H4F 8421   4.538  -0.034  13.072  0.6418  0.0927 -0.4490
   6523SM   H4G 8422   4.699  -0.035  13.135  2.1442  2.4401  1.0572
   6523SM   C5F 8423   4.638   0.167  13.067 -1.1490 -1.1122 -0.2371
   6523SM   H5F 8424   4.727   0.202  13.124 -0.3892 -3.1367 -0.0705
   6523SM   H5G 8425   4.545   0.223  13.088 -1.5625 -0.7803 -2.7050
   6523SM   C6F 8426   4.681   0.163  12.923  0.3184  0.0247 -0.5808
   6523SM   H6F 8427   4.727   0.065  12.896  3.1893  1.2884 -0.6189
   6523SM   H6G 8428   4.749   0.247  12.899 -0.4494  1.0260  0.6698
   6523SM   C7F 8429   4.568   0.197  12.828  0.7808 -0.1688  0.5509
   6523SM   H7F 8430   4.490   0.265  12.868 -1.5546 -0.7303 -2.6979
   6523SM   H7G 8431   4.519   0.098  12.814 -0.6434  0.9541 -4.6293
   6523SM   C8F 8432   4.620   0.237  12.691  0.1031  1.0132 -0.1068
   6523SM   H8F 8433   4.537   0.231  12.619 -0.5708  1.3732  0.6226
   6523SM   H8G 8434   4.706   0.172  12.664 -0.4943 -0.0362  0.4538
   6523SM   C9F 8435   4.679   0.375  12.684  0.4420 -0.6379  0.1103
   6523SM   H9F 8436   4.756   0.396  12.762 -0.9605 -1.8733  1.9055
   6523SM   H9G 8437   4.594   0.446  12.700  1.5712  0.3226  2.4226
   6523SM  C10F 8438   4.760   0.405  12.557  0.2163  0.0753 -0.3675
   6523SM  H10F 8439   4.827   0.320  12.534  1.2526  1.2622 -1.9973
   6523SM  H10G 8440   4.829   0.490  12.577  2.6328 -2.3338  2.5577
   6523SM  C11F 8441   4.685   0.448  12.437  1.1508 -0.0022  0.5581
   6523SM  H11F 8442   4.659   0.556  12.444  2.1279  0.2857 -0.0461
   6523SM  H11G 8443   4.590   0.392  12.426 -0.3534  2.4002  0.5349
   6523SM  C12F 8444   4.764   0.436  12.302 -0.5042 -0.4642  0.2195
   6523SM  H12F 8445   4.821   0.341  12.295  3.3717  1.6758 -0.2294
   6523SM  H12G 8446   4.837   0.520  12.296 -0.7902 -0.2559 -0.3955
   6523SM  C13F 8447   4.664   0.444  12.187  0.5459 -0.0508  0.3939
   6523SM  H13F 8448   4.615   0.543  12.200  1.7189  0.7571 -1.0268
   6523SM  H13G 8449   4.590   0.365  12.212  0.8703 -1.0639 -1.6253
   6523SM  C14F 8450   4.722   0.424  12.048 -0.1876  0.4108  0.3998
   6523SM  H14F 8451   4.640   0.422  11.974 -0.4817  0.2971  0.7267
   6523SM  H14G 8452   4.757   0.319  12.057  1.2965  0.6490 -1.8640
   6523SM  C15F 8453   4.830   0.520  12.002  0.6948 -0.6717 -0.4103
   6523SM  H15F 8454   4.920   0.497  12.062 -0.4302  1.9445  2.6098
   6523SM  H15G 8455   4.791   0.621  12.029  0.0587 -1.3203  1.2191
   6523SM  C16F 8456   4.847   0.508  11.853  0.7915  0.0682 -0.0480
   6523SM  H16F 8457   4.748   0.501  11.805 -0.7314 -2.0880  3.0275
   6523SM  H16G 8458   4.900   0.413  11.828 -0.9055 -0.8040 -0.4739
   6523SM  C17F 8459   4.931   0.618  11.796 -0.6607 -0.3743  0.1268
   6523SM  H17F 8460   5.031   0.616  11.844  0.2664 -1.6499 -1.7462
   6523SM  H17G 8461   4.893   0.722  11.805 -0.3140 -0.3095  0.9944
   6523SM  C18F 8462   4.955   0.607  11.648  0.2347  0.3349 -0.5370
   6523SM  H18F 8463   5.019   0.689  11.610  0.6163 -0.1058 -0.8675
   6523SM  H18G 8464   4.853   0.613  11.606 -0.9467  0.9246  2.1783
   6523SM  C19F 8465   5.016   0.470  11.594  0.8601  0.2685 -0.4196
   6523SM  H19F 8466   4.936   0.392  11.602  0.5692  0.2667 -2.7227
   6523SM  H19G 8467   5.109   0.450  11.651 -0.6901  1.2295  2.6643
   6523SM  C20F 8468   5.050   0.476  11.439 -0.2508  0.3680 -0.0693
   6523SM  H20F 8469   5.138   0.543  11.443 -0.9951  1.3059  1.0781
   6523SM  H20G 8470   4.977   0.543  11.388 -0.6018  1.5989  1.9267
   6523SM  C21F 8471   5.057   0.337  11.378  0.0607  0.2351 -0.6694
   6523SM  H21F 8472   4.967   0.273  11.368  0.4379 -0.0293 -2.6823
   6523SM  H21G 8473   5.140   0.284  11.428  2.6135  1.4509 -3.3155
   6523SM  C22F 8474   5.101   0.356  11.229 -0.4697 -0.8672 -0.5087
   6523SM  H22F 8475   5.197   0.412  11.225 -0.9907  0.0916 -0.0445
   6523SM  H22G 8476   5.031   0.417  11.169 -2.7079 -2.5065  0.3149
   6523SM  C23F 8477   5.101   0.213  11.163  0.6977 -0.9455  0.5023
   6523SM  H23F 8478   5.025   0.160  11.223 -1.7515 -0.5466 -2.0376
   6523SM  H23G 8479   5.196   0.159  11.181  0.6921 -1.0865  0.1253
   6523SM  H23H 8480   5.081   0.221  11.054 -1.6690 -1.0929  0.8815
   6623SM     N 8481   4.835   3.781  13.502  0.0098  0.2258  0.2519
   6623SM   C15 8482   4.945   3.864  13.567 -0.4323  0.1269 -0.3186
   6623SM  H15A 8483   5.041   3.815  13.580 -0.7748 -0.0067  2.1937
   6623SM  H15B 8484   4.905   3.898  13.661 -0.4274 -1.3209  0.2287
   6623SM  H15C 8485   4.968   3.952  13.507 -1.1102  1.5240  1.3853
   6623SM   C14 8486   4.824   3.661  13.589  0.2083 -0.0330 -0.3238
   6623SM  H14A 8487   4.910   3.596  13.586  0.5555  0.4088 -0.0769
   6623SM  H14B 8488   4.735   3.604  13.565  0.6826 -1.0645  0.3332
   6623SM  H14C 8489   4.801   3.690  13.690  0.6182 -0.4320 -0.1132
   6623SM   C13 8490   4.707   3.857  13.508  0.3869  0.2158  0.1173
   6623SM  H13A 8491   4.687   3.911  13.600 -3.2000  1.0033 -0.9541
   6623SM  H13B 8492   4.622   3.792  13.491  1.0836 -0.3972 -1.2327
   6623SM  H13C 8493   4.691   3.926  13.427 -0.1323  0.4592  0.4192
   6623SM   C12 8494   4.866   3.739  13.354  0.0463  0.0930 -0.6353
   6623SM  H12A 8495   4.963   3.692  13.357  0.1963  0.3593 -1.2279
   6623SM  H12B 8496   4.889   3.819  13.285 -1.0549 -0.7118 -1.9856
   6623SM   C11 8497   4.768   3.646  13.285  0.3237 -0.1882 -0.0316
   6623SM  H11A 8498   4.783   3.646  13.175  1.3655 -0.0485  0.0967
   6623SM  H11B 8499   4.665   3.676  13.313  0.6060 -0.6465  1.5814
   6623SM     P 8500   4.681   3.422  13.393 -0.7003 -0.0921 -0.3323
   6623SM   O13 8501   4.741   3.308  13.467  0.0490 -0.3805 -0.1843
   6623SM   O14 8502   4.584   3.494  13.471 -0.4186 -0.4834 -0.1554
   6623SM   O11 8503   4.614   3.370  13.261  0.3160  0.0625  0.6133
   6623SM   O12 8504   4.792   3.514  13.335 -0.0665 -0.2542  0.1140
   6623SM   C1S 8505   4.680   3.285  13.163 -0.5091  0.3248 -0.0642
   6623SM   H1S 8506   4.674   3.179  13.196  0.9412 -0.0815 -0.9789
   6623SM   H1T 8507   4.787   3.307  13.143 -0.2237 -0.5842  0.3892
   6623SM    NF 8508   4.647   3.176  12.945 -0.9071 -0.1738  0.0316
   6623SM   HNF 8509   4.717   3.193  12.877 -0.1393 -0.3192  0.7733
   6623SM   C2S 8510   4.606   3.295  13.025  0.6477  0.5904 -0.3455
   6623SM   H2S 8511   4.500   3.267  13.044  0.8567 -0.6347 -0.8908
   6623SM   C3S 8512   4.608   3.435  12.969 -0.2214 -0.2915 -0.1225
   6623SM   H3S 8513   4.716   3.461  12.967  0.0921 -1.5474 -0.3543
   6623SM    O3 8514   4.549   3.535  13.060 -0.2544  0.1143 -0.5674
   6623SM   HO3 8515   4.563   3.480  13.137  1.3972  0.1093 -0.8295
   6623SM   C4S 8516   4.530   3.444  12.838 -0.1454 -0.0134 -0.4798
   6623SM   H4S 8517   4.422   3.424  12.849 -0.3552  1.8857  1.4607
   6623SM   C5S 8518   4.571   3.493  12.721  0.5704 -0.4368  0.4854
   6623SM   H5S 8519   4.678   3.518  12.715  0.4415  0.1186  0.4685
   6623SM   C6S 8520   4.490   3.500  12.594  0.3073 -0.1467 -0.5410
   6623SM   H6S 8521   4.464   3.607  12.579  1.7166  0.4941  1.1996
   6623SM   H6T 8522   4.392   3.447  12.600 -1.7756  3.5335  1.2584
   6623SM   C7S 8523   4.554   3.463  12.466 -0.3263  0.1282  0.0330
   6623SM   H7S 8524   4.597   3.362  12.480  0.8029  0.7568  1.3922
   6623SM   H7T 8525   4.639   3.530  12.440  0.4420  0.3262  2.7411
   6623SM   C8S 8526   4.456   3.463  12.347  0.0932  0.3024 -0.2888
   6623SM   H8S 8527   4.399   3.559  12.342  0.6359  0.6218 -0.4087
   6623SM   H8T 8528   4.376   3.390  12.372 -1.0094  2.2933  2.6733
   6623SM   C9S 8529   4.525   3.442  12.205  0.1219 -0.2756 -0.3666
   6623SM   H9S 8530   4.550   3.334  12.202 -2.4163 -0.9786  0.6683
   6623SM   H9T 8531   4.619   3.501  12.206 -0.1508  0.2044  1.3928
   6623SM  C10S 8532   4.437   3.488  12.089 -0.2133 -0.2481  0.3687
   6623SM  H10S 8533   4.459   3.596  12.073  1.3029 -0.5454  0.2510
   6623SM  H10T 8534   4.327   3.478  12.099 -0.0781 -2.0081  0.2934
   6623SM  C11S 8535   4.473   3.423  11.951 -0.0640  0.0280 -0.1573
   6623SM  H11S 8536   4.474   3.313  11.964  0.9653 -0.0119 -0.4781
   6623SM  H11T 8537   4.568   3.460  11.906 -0.5037 -0.8724 -1.9113
   6623SM  C12S 8538   4.375   3.455  11.836 -0.8657  0.4945 -0.8674
   6623SM  H12S 8539   4.359   3.565  11.848  4.2617  1.3387  0.3369
   6623SM  H12T 8540   4.276   3.404  11.844 -0.2370 -0.6088  0.0875
   6623SM  C13S 8541   4.430   3.439  11.690  0.5888 -0.6448 -0.1388
   6623SM  H13S 8542   4.457   3.332  11.679  0.8037 -0.4309 -2.0455
   6623SM  H13T 8543   4.521   3.497  11.664  0.7469 -1.7115 -2.1931
   6623SM  C14S 8544   4.330   3.480  11.573 -0.3498  0.2751  0.0614
   6623SM  H14S 8545   4.346   3.587  11.546 -0.1221  0.2909  0.2644
   6623SM  H14T 8546   4.227   3.482  11.616  0.6092  0.2016  2.4550
   6623SM  C15S 8547   4.329   3.396  11.442  0.5326 -0.1913 -0.3442
   6623SM  H15S 8548   4.303   3.296  11.482 -0.8888  1.3834  3.1184
   6623SM  H15T 8549   4.428   3.399  11.391  0.5428  1.5907 -0.2992
   6623SM  C16S 8550   4.215   3.424  11.340 -0.4715  0.0096  0.2066
   6623SM  H16S 8551   4.246   3.511  11.278  0.2174 -0.7840 -0.5975
   6623SM  H16T 8552   4.123   3.457  11.393 -0.1344  0.1704  0.6953
   6623SM  C17S 8553   4.191   3.299  11.260 -0.2788  0.5369 -0.0329
   6623SM  H17S 8554   4.155   3.217  11.326  2.1719 -0.0184  0.6990
   6623SM  H17T 8555   4.292   3.260  11.235 -0.7056 -1.2298  0.8202
   6623SM  C18S 8556   4.111   3.327  11.136  0.3523  0.5028 -0.0190
   6623SM  H18S 8557   4.153   3.410  11.077 -0.4399  2.0883  1.5603
   6623SM  H18T 8558   4.003   3.332  11.164  0.4557 -0.9612  0.7470
   6623SM  H18U 8559   4.119   3.240  11.067  2.2659  0.8190 -0.2329
   6623SM   C1F 8560   4.607   3.051  12.954  0.1623 -0.1515  0.3465
   6623SM    OF 8561   4.537   3.006  13.042  0.8357  0.5575  0.2385
   6623SM   C2F 8562   4.653   2.965  12.839 -0.5245 -0.4097 -0.2606
   6623SM   H2F 8563   4.742   2.904  12.865 -0.7415 -1.4517 -1.8360
   6623SM   H2G 8564   4.693   3.022  12.753  0.9844 -0.7793  0.1529
   6623SM   C3F 8565   4.548   2.858  12.809  0.1686 -0.4453  0.2590
   6623SM   H3F 8566   4.455   2.918  12.794  1.8896  2.2489 -0.4588
   6623SM   H3G 8567   4.538   2.790  12.896  0.6660 -0.2023  0.5079
   6623SM   C4F 8568   4.586   2.777  12.678  0.8775  0.0154  0.0186
   6623SM   H4F 8569   4.516   2.691  12.678  1.2750 -0.3336 -1.1782
   6623SM   H4G 8570   4.682   2.723  12.697  0.0238 -1.6896 -0.3622
   6623SM   C5F 8571   4.584   2.847  12.542 -0.1621 -0.4195  0.0359
   6623SM   H5F 8572   4.613   2.953  12.561  1.9067 -1.3171  2.2475
   6623SM   H5G 8573   4.480   2.858  12.505  0.2953 -0.7329 -1.4100
   6623SM   C6F 8574   4.664   2.774  12.439  0.0438  0.0986  0.5080
   6623SM   H6F 8575   4.629   2.669  12.437 -0.8390  0.3871  0.2703
   6623SM   H6G 8576   4.773   2.790  12.432 -0.0964  0.4261 -1.8341
   6623SM   C7F 8577   4.628   2.834  12.296 -0.4539  0.0043  0.0571
   6623SM   H7F 8578   4.634   2.945  12.299  2.5132 -0.0466 -0.4816
   6623SM   H7G 8579   4.523   2.818  12.265 -0.2817 -1.0992  0.0017
   6623SM   C8F 8580   4.717   2.762  12.194  0.1370 -0.2899 -0.2997
   6623SM   H8F 8581   4.685   2.656  12.188 -1.9860  0.3590 -1.1289
   6623SM   H8G 8582   4.826   2.782  12.209  0.3700 -0.3213 -1.8489
   6623SM   C9F 8583   4.685   2.815  12.052 -0.5872 -0.6133 -0.5973
   6623SM   H9F 8584   4.730   2.915  12.035 -2.1639  0.0764 -0.9031
   6623SM   H9G 8585   4.574   2.826  12.042 -1.0189 -1.9959  1.8719
   6623SM  C10F 8586   4.743   2.735  11.934 -0.3995  0.5689 -0.2199
   6623SM  H10F 8587   4.726   2.631  11.969 -2.1956  1.0805  0.5996
   6623SM  H10G 8588   4.852   2.756  11.931  0.2634 -2.3866  0.5109
   6623SM  C11F 8589   4.681   2.774  11.796  0.3891 -0.4218 -0.1327
   6623SM  H11F 8590   4.669   2.885  11.794  0.4730 -0.3790  1.0594
   6623SM  H11G 8591   4.582   2.733  11.770  0.8606 -0.8725 -1.3023
   6623SM  C12F 8592   4.777   2.740  11.679  0.2053  0.5888  0.0021
   6623SM  H12F 8593   4.812   2.635  11.688  2.7616  1.3870  0.4132
   6623SM  H12G 8594   4.865   2.807  11.666  0.0749  0.3954 -2.1339
   6623SM  C13F 8595   4.687   2.745  11.557  0.2244  0.9378  0.0203
   6623SM  H13F 8596   4.662   2.849  11.529 -3.2846  0.3129  0.3742
   6623SM  H13G 8597   4.591   2.692  11.576  1.8798 -1.6436  1.9618
   6623SM  C14F 8598   4.747   2.672  11.432  0.1314 -0.3605 -0.3603
   6623SM  H14F 8599   4.789   2.573  11.461 -0.3307 -0.6152 -0.5669
   6623SM  H14G 8600   4.828   2.744  11.407 -0.7612  0.5577 -0.6549
   6623SM  C15F 8601   4.650   2.664  11.313  0.0471  0.6063 -0.4353
   6623SM  H15F 8602   4.592   2.758  11.308 -1.2602 -0.1354  0.3050
   6623SM  H15G 8603   4.576   2.586  11.340  2.2222 -1.7400 -0.8400
   6623SM  C16F 8604   4.717   2.650  11.182  0.2080  0.2500 -0.8428
   6623SM  H16F 8605   4.784   2.562  11.174  0.6351  0.6136 -1.3134
   6623SM  H16G 8606   4.785   2.735  11.160  0.5396  0.0642 -0.5552
   6623SM  C17F 8607   4.604   2.649  11.081  0.0400  0.3768  1.2484
   6623SM  H17F 8608   4.548   2.742  11.103 -0.0470  0.7364 -0.3386
   6623SM  H17G 8609   4.540   2.560  11.094  0.5680 -0.5964 -1.8383
   6623SM  C18F 8610   4.661   2.656  10.939 -0.3100  0.3529 -0.9034
   6623SM  H18F 8611   4.762   2.704  10.938  0.0574 -0.3332  0.4030
   6623SM  H18G 8612   4.598   2.722  10.876  2.1036  4.0902  0.2412
   6623SM  C19F 8613   4.675   2.522  10.866  0.6793  0.1964  0.1900
   6623SM  H19F 8614   4.746   2.463  10.928  2.8464  2.1509 -0.2661
   6623SM  H19G 8615   4.736   2.554  10.779  0.8781  0.0433  0.2716
   6623SM  C20F 8616   4.545   2.445  10.840  0.0912 -0.6515 -0.1968
   6623SM  H20F 8617   4.485   2.498  10.763 -0.1393  1.6741  1.5063
   6623SM  H20G 8618   4.489   2.447  10.936 -0.7693  2.1250 -0.6879
   6623SM  C21F 8619   4.571   2.300  10.800 -0.3997  0.0886  0.5651
   6623SM  H21F 8620   4.617   2.282  10.701 -1.0576  1.2709  0.0070
   6623SM  H21G 8621   4.471   2.252  10.792 -0.2975  0.0229 -0.4507
   6623SM  C22F 8622   4.653   2.221  10.902 -0.1619  0.9522 -0.0060
   6623SM  H22F 8623   4.632   2.251  11.007 -1.7008 -2.3087  0.7570
   6623SM  H22G 8624   4.762   2.242  10.896  0.2131 -0.0849  2.2052
   6623SM  C23F 8625   4.641   2.072  10.910 -0.3938 -0.0097 -0.4083
   6623SM  H23F 8626   4.723   2.035  10.974 -0.2373  2.2679  0.8275
   6623SM  H23G 8627   4.649   2.029  10.807  0.9597 -1.3842  0.2429
   6623SM  H23H 8628   4.541   2.047  10.952 -0.0254  1.9764  1.8706
   6723SM     N 8629   2.895   0.488  14.013  0.3749  0.7288  0.1754
   6723SM   C15 8630   2.978   0.535  14.131 -0.2095 -0.4876  0.1044
   6723SM  H15A 8631   2.929   0.621  14.174  2.3290  1.9660 -1.5407
   6723SM  H15B 8632   3.074   0.577  14.104 -0.6787  0.2562 -0.4487
   6723SM  H15C 8633   2.995   0.453  14.199  0.9545  0.7287  1.3325
   6723SM   C14 8634   2.750   0.477  14.053  0.3769 -0.1046  0.4219
   6723SM  H14A 8635   2.705   0.574  14.069 -0.0825 -0.8709  5.5948
   6723SM  H14B 8636   2.738   0.413  14.139  3.5730 -0.9484  0.3670
   6723SM  H14C 8637   2.695   0.443  13.967 -0.0606  0.6658  0.3881
   6723SM   C13 8638   2.897   0.583  13.905 -0.2242 -0.1124 -0.1109
   6723SM  H13A 8639   2.831   0.556  13.824  0.0023 -1.7791  0.2211
   6723SM  H13B 8640   2.996   0.600  13.866 -0.6852  1.2767 -0.7374
   6723SM  H13C 8641   2.871   0.677  13.952  0.3357 -1.2158  2.6177
   6723SM   C12 8642   2.946   0.351  13.977 -0.0602 -0.3757  0.5275
   6723SM  H12A 8643   2.925   0.271  14.048  0.4265 -1.1635 -0.1940
   6723SM  H12B 8644   3.053   0.353  13.969  0.1544  0.7869  2.7953
   6723SM   C11 8645   2.879   0.294  13.845  0.1031  0.6502  0.3476
   6723SM  H11A 8646   2.926   0.195  13.829  0.6490  0.9785 -0.1170
   6723SM  H11B 8647   2.902   0.350  13.751 -0.5553  0.5554  0.1216
   6723SM     P 8648   2.682   0.137  13.928  0.3323  0.1447  0.2891
   6723SM   O13 8649   2.778   0.086  14.030 -0.5844 -0.8550  1.1706
   6723SM   O14 8650   2.537   0.147  13.977  0.5549  0.2630  0.0514
   6723SM   O11 8651   2.690   0.040  13.810 -0.2990  0.1345 -0.6320
   6723SM   O12 8652   2.742   0.269  13.855  0.1433 -0.5854 -0.4118
   6723SM   C1S 8653   2.609   0.052  13.692  0.4331  0.1829  0.0518
   6723SM   H1S 8654   2.525   0.122  13.711 -1.0218 -1.2701 -0.7533
   6723SM   H1T 8655   2.551  -0.041  13.672  0.2262  0.0858  1.0642
   6723SM    NF 8656   2.602   0.117  13.465 -0.5209 -0.9983 -0.0350
   6723SM   HNF 8657   2.588   0.049  13.393 -3.3929  0.4192 -0.9993
   6723SM   C2S 8658   2.691   0.102  13.575  0.2600 -0.2922  0.1234
   6723SM   H2S 8659   2.737   0.200  13.600 -3.2055  0.7245  3.4098
   6723SM   C3S 8660   2.808   0.003  13.550 -0.2325  0.2586  0.3119
   6723SM   H3S 8661   2.765  -0.095  13.519  2.5333 -0.2762 -2.3119
   6723SM    O3 8662   2.891  -0.020  13.669 -0.6041 -0.0940  0.1551
   6723SM   HO3 8663   2.839  -0.002  13.747 -0.6543  1.4382 -0.2133
   6723SM   C4S 8664   2.889   0.049  13.432 -0.5511  0.0746 -0.5009
   6723SM   H4S 8665   2.871  -0.006  13.338  1.3233 -0.7292 -0.4499
   6723SM   C5S 8666   2.978   0.155  13.427  0.0890  0.0478 -0.3421
   6723SM   H5S 8667   2.990   0.213  13.520 -0.1168 -0.9744  0.3355
   6723SM   C6S 8668   3.045   0.215  13.299  0.4593  0.0999  0.4048
   6723SM   H6S 8669   3.156   0.211  13.310  0.5365  2.6267  1.2428
   6723SM   H6T 8670   3.034   0.326  13.301  1.3751  0.2289 -0.5785
   6723SM   C7S 8671   2.983   0.164  13.168 -0.7116 -0.3605 -0.3753
   6723SM   H7S 8672   2.873   0.175  13.179 -0.7199  0.3456 -1.0696
   6723SM   H7T 8673   3.015   0.058  13.160 -0.8381 -0.3488 -1.2263
   6723SM   C8S 8674   3.011   0.237  13.038  0.8327 -0.1453  0.4046
   6723SM   H8S 8675   3.119   0.241  13.014  0.8383 -1.3065  0.1779
   6723SM   H8T 8676   2.976   0.339  13.065  1.5878  0.0766  0.5475
   6723SM   C9S 8677   2.930   0.174  12.919 -0.0242 -0.4368 -0.5036
   6723SM   H9S 8678   2.822   0.165  12.944  0.2331 -2.7473 -0.0401
   6723SM   H9T 8679   2.973   0.074  12.899 -0.2327 -0.8213  0.8309
   6723SM  C10S 8680   2.947   0.260  12.788  0.2911 -0.2099  0.2897
   6723SM  H10S 8681   3.055   0.251  12.763  0.5103 -2.6141  1.7979
   6723SM  H10T 8682   2.926   0.368  12.799  1.5991  0.1750 -0.7385
   6723SM  C11S 8683   2.874   0.192  12.673 -0.1296  0.3557  0.2471
   6723SM  H11S 8684   2.765   0.177  12.687 -0.4659 -1.0329 -2.9776
   6723SM  H11T 8685   2.930   0.097  12.656  0.8860  0.9901 -0.0312
   6723SM  C12S 8686   2.885   0.275  12.540  0.7740  0.5524 -0.3221
   6723SM  H12S 8687   2.980   0.332  12.541  0.2760  1.3963  0.0075
   6723SM  H12T 8688   2.804   0.350  12.528 -0.6699 -0.6263  1.4394
   6723SM  C13S 8689   2.869   0.180  12.410  0.0927  0.3321 -0.4464
   6723SM  H13S 8690   2.769   0.131  12.415 -0.1259  0.7223 -0.7985
   6723SM  H13T 8691   2.942   0.098  12.417  1.2137  1.4077  1.0499
   6723SM  C14S 8692   2.864   0.260  12.285 -0.3543  0.7350  0.2749
   6723SM  H14S 8693   2.963   0.308  12.270 -0.0584  0.0908  0.1324
   6723SM  H14T 8694   2.787   0.340  12.282  0.0448  1.1233  0.2125
   6723SM  C15S 8695   2.851   0.178  12.156 -0.1012 -0.6755 -0.0308
   6723SM  H15S 8696   2.797   0.085  12.182  0.3677 -1.2063 -0.8897
   6723SM  H15T 8697   2.960   0.164  12.139  0.2272 -0.1740  1.5397
   6723SM  C16S 8698   2.792   0.263  12.043  0.3071 -0.5277  0.3674
   6723SM  H16S 8699   2.834   0.365  12.049 -0.7874 -0.1259  1.6409
   6723SM  H16T 8700   2.682   0.271  12.053  0.1101 -0.5346 -1.4234
   6723SM  C17S 8701   2.817   0.207  11.896 -0.4269  0.6650 -0.0800
   6723SM  H17S 8702   2.808   0.096  11.902 -5.7004  0.6810 -1.9780
   6723SM  H17T 8703   2.923   0.231  11.873 -0.0616  1.1156  1.9335
   6723SM  C18S 8704   2.728   0.261  11.783  0.3101  0.2456  0.3186
   6723SM  H18S 8705   2.622   0.231  11.803  0.9302 -1.1992  1.6835
   6723SM  H18T 8706   2.755   0.228  11.681  2.0052 -1.0980  1.1489
   6723SM  H18U 8707   2.729   0.372  11.796 -3.1318  0.3567  0.8320
   6723SM   C1F 8708   2.522   0.224  13.448  0.5136 -0.2091 -0.2765
   6723SM    OF 8709   2.524   0.321  13.524  0.3214 -0.0016 -0.4017
   6723SM   C2F 8710   2.433   0.220  13.329  0.1053 -0.0336  0.6977
   6723SM   H2F 8711   2.354   0.150  13.363  0.2526 -0.2042  0.6935
   6723SM   H2G 8712   2.481   0.159  13.250 -0.0733 -0.4630  0.9174
   6723SM   C3F 8713   2.381   0.352  13.271  0.1647 -0.7061 -0.0126
   6723SM   H3F 8714   2.337   0.409  13.355  4.0133  1.0054  1.0606
   6723SM   H3G 8715   2.308   0.328  13.191  2.1150 -1.4860 -1.6453
   6723SM   C4F 8716   2.479   0.445  13.200 -0.7038  0.2917  0.1835
   6723SM   H4F 8717   2.543   0.506  13.267 -0.4418 -0.2621  0.4414
   6723SM   H4G 8718   2.421   0.525  13.149 -3.1925 -1.9056 -0.6658
   6723SM   C5F 8719   2.554   0.367  13.082 -0.5468 -0.0260 -0.3855
   6723SM   H5F 8720   2.486   0.304  13.021 -0.1627 -1.3573  0.4958
   6723SM   H5G 8721   2.619   0.297  13.139 -2.3204 -0.2393  1.4708
   6723SM   C6F 8722   2.634   0.449  12.986  0.6975 -0.2032  0.1276
   6723SM   H6F 8723   2.721   0.394  12.947 -0.3915 -0.5786 -1.9193
   6723SM   H6G 8724   2.682   0.531  13.043  2.6338 -2.1128  1.3890
   6723SM   C7F 8725   2.561   0.508  12.863  0.3335  0.2020 -0.3237
   6723SM   H7F 8726   2.611   0.599  12.824  1.4058 -1.3602 -2.8941
   6723SM   H7G 8727   2.460   0.545  12.889  0.5325 -1.3574  3.2668
   6723SM   C8F 8728   2.564   0.410  12.746 -0.6752 -0.6899  0.6081
   6723SM   H8F 8729   2.520   0.314  12.781 -1.0710 -0.3825  0.9571
   6723SM   H8G 8730   2.669   0.387  12.718 -0.9171 -2.4822  1.0084
   6723SM   C9F 8731   2.499   0.466  12.617  0.2758  0.0186  0.3991
   6723SM   H9F 8732   2.545   0.567  12.610  1.5662 -0.6128 -0.7714
   6723SM   H9G 8733   2.390   0.478  12.635  0.4277  1.5602  0.4549
   6723SM  C10F 8734   2.522   0.391  12.488  0.2689 -0.0346  0.3490
   6723SM  H10F 8735   2.488   0.288  12.509 -4.6862  1.5195  1.4042
   6723SM  H10G 8736   2.628   0.380  12.456  0.0228 -0.8082 -0.2426
   6723SM  C11F 8737   2.427   0.433  12.372  0.0639  0.0595 -0.6296
   6723SM  H11F 8738   2.432   0.543  12.356 -2.6751  0.2741 -0.5032
   6723SM  H11G 8739   2.326   0.405  12.409  0.6084 -0.9824  0.1071
   6723SM  C12F 8740   2.458   0.363  12.236  0.9299 -0.0998 -0.6751
   6723SM  H12F 8741   2.438   0.256  12.255  0.1071  0.0244 -0.8071
   6723SM  H12G 8742   2.567   0.374  12.216  1.7230 -2.1411  1.8795
   6723SM  C13F 8743   2.373   0.418  12.119  0.0253  0.1884  0.3503
   6723SM  H13F 8744   2.407   0.521  12.096 -1.6032  0.6403 -0.1920
   6723SM  H13G 8745   2.269   0.426  12.157  0.3228  3.1000  0.7592
   6723SM  C14F 8746   2.387   0.329  11.993  0.0265 -0.3961 -0.3829
   6723SM  H14F 8747   2.384   0.225  12.031 -1.1089  0.0640  0.8932
   6723SM  H14G 8748   2.485   0.342  11.943  0.8452  2.6406  1.7494
   6723SM  C15F 8749   2.277   0.365  11.897 -0.1219  0.3216  0.2893
   6723SM  H15F 8750   2.282   0.471  11.864 -1.0182  1.0453  2.2786
   6723SM  H15G 8751   2.184   0.354  11.956  0.2966  4.0893  1.9345
   6723SM  C16F 8752   2.268   0.285  11.765 -0.3084 -0.0700 -0.8694
   6723SM  H16F 8753   2.244   0.185  11.806  0.9175 -0.1320 -0.2442
   6723SM  H16G 8754   2.366   0.285  11.714 -0.4070 -2.4647 -1.1979
   6723SM  C17F 8755   2.171   0.342  11.665  0.6584 -0.0355 -0.0422
   6723SM  H17F 8756   2.070   0.369  11.704 -0.4546 -2.1288 -1.2817
   6723SM  H17G 8757   2.160   0.258  11.593  1.0979  0.0643 -0.2295
   6723SM  C18F 8758   2.227   0.450  11.578 -0.6072  0.1503 -0.4552
   6723SM  H18F 8759   2.336   0.429  11.564 -0.4313  1.1628 -0.6809
   6723SM  H18G 8760   2.230   0.541  11.642  0.0003  0.7052 -1.2477
   6723SM  C19F 8761   2.151   0.491  11.448  0.3657  0.5341  0.8526
   6723SM  H19F 8762   2.044   0.502  11.475  0.0638 -0.4669  0.1047
   6723SM  H19G 8763   2.160   0.406  11.378 -1.2190  0.6432  0.4772
   6723SM  C20F 8764   2.204   0.615  11.374  0.6127 -0.0712 -0.3530
   6723SM  H20F 8765   2.191   0.698  11.447 -1.4118 -0.9352  0.3345
   6723SM  H20G 8766   2.137   0.653  11.294 -2.1316 -1.3900  1.1949
   6723SM  C21F 8767   2.347   0.597  11.331 -0.2904 -0.4468  0.5866
   6723SM  H21F 8768   2.340   0.539  11.236  1.3337 -2.2273  1.4882
   6723SM  H21G 8769   2.407   0.532  11.397  0.8332  0.5458  0.5873
   6723SM  C22F 8770   2.421   0.728  11.294  0.1136  0.2333 -0.5497
   6723SM  H22F 8771   2.504   0.699  11.226 -1.6608 -0.1940 -2.6316
   6723SM  H22G 8772   2.466   0.772  11.386  0.4808 -0.2047 -0.5177
   6723SM  C23F 8773   2.329   0.833  11.241 -0.1441 -0.3509 -0.0028
   6723SM  H23F 8774   2.257   0.870  11.317  0.4194 -0.9811  0.8729
   6723SM  H23G 8775   2.274   0.814  11.147 -1.9029  1.2334  0.6477
   6723SM  H23H 8776   2.389   0.926  11.229  0.8740 -1.0202 -0.2508
   6823SM     N 8777   4.249   2.220  13.785 -0.4819  0.1546 -0.3726
   6823SM   C15 8778   4.228   2.115  13.682  0.3047  0.7240  0.2697
   6823SM  H15A 8779   4.262   2.016  13.711  0.4317  0.3512 -1.0879
   6823SM  H15B 8780   4.283   2.149  13.595  2.3180  1.5935  1.7937
   6823SM  H15C 8781   4.127   2.103  13.647  0.0716 -0.9708  1.4097
   6823SM   C14 8782   4.204   2.355  13.739  0.0093 -1.0106  0.0630
   6823SM  H14A 8783   4.099   2.351  13.713 -0.3300 -4.4998  1.4361
   6823SM  H14B 8784   4.251   2.388  13.647 -1.6186  0.8044 -0.1838
   6823SM  H14C 8785   4.221   2.427  13.818 -0.3707  0.1397 -0.8702
   6823SM   C13 8786   4.176   2.184  13.911 -0.2514 -0.1250  0.1443
   6823SM  H13A 8787   4.200   2.258  13.986  2.1675  0.4025 -1.0691
   6823SM  H13B 8788   4.204   2.085  13.944 -0.6837 -0.9384 -1.7545
   6823SM  H13C 8789   4.070   2.178  13.889 -0.1314  0.8439 -0.8082
   6823SM   C12 8790   4.403   2.234  13.824 -0.3874 -0.0881  0.0583
   6823SM  H12A 8791   4.431   2.135  13.855 -3.7095 -1.0066  0.4641
   6823SM  H12B 8792   4.418   2.310  13.899  0.4872 -0.7612  0.5910
   6823SM   C11 8793   4.500   2.283  13.711 -0.4729 -0.1982 -0.8653
   6823SM  H11A 8794   4.471   2.218  13.626  2.2263 -1.8292 -0.6644
   6823SM  H11B 8795   4.609   2.265  13.720 -0.8003 -1.3065  1.8946
   6823SM     P 8796   4.489   2.474  13.542 -0.6260  0.1782  0.1075
   6823SM   O13 8797   4.464   2.620  13.550 -0.2798 -0.3985 -0.1827
   6823SM   O14 8798   4.615   2.425  13.484 -0.3866 -0.1663  0.1754
   6823SM   O11 8799   4.369   2.403  13.466 -0.5385  0.2183 -0.5697
   6823SM   O12 8800   4.485   2.422  13.688  0.0096  0.1331  0.0481
   6823SM   C1S 8801   4.320   2.477  13.352 -0.4138  0.2735 -0.2180
   6823SM   H1S 8802   4.388   2.559  13.320  0.7397 -0.4286  0.3535
   6823SM   H1T 8803   4.217   2.513  13.374 -0.2620  0.1924  0.6531
   6823SM    NF 8804   4.226   2.447  13.119 -0.0430  0.4856  0.1960
   6823SM   HNF 8805   4.132   2.412  13.118  0.5618 -1.1973 -0.1479
   6823SM   C2S 8806   4.313   2.385  13.224 -1.0358 -0.6033  0.0757
   6823SM   H2S 8807   4.415   2.366  13.185 -0.6415 -1.4684  1.4516
   6823SM   C3S 8808   4.275   2.240  13.271  0.6132  0.3350 -0.2263
   6823SM   H3S 8809   4.176   2.242  13.322  0.1771  1.2915 -1.0752
   6823SM    O3 8810   4.374   2.181  13.359  0.2999  0.5378 -0.3526
   6823SM   HO3 8811   4.405   2.256  13.410 -1.8905  1.0039  0.4004
   6823SM   C4S 8812   4.264   2.147  13.161 -0.4131  0.3734  0.2704
   6823SM   H4S 8813   4.364   2.123  13.120  0.8452  2.5180  1.8481
   6823SM   C5S 8814   4.153   2.081  13.122  0.5991 -0.8989  0.3405
   6823SM   H5S 8815   4.057   2.103  13.172  0.7031  1.5940 -0.4366
   6823SM   C6S 8816   4.152   1.990  13.002  0.2114 -0.1739  0.7111
   6823SM   H6S 8817   4.075   1.913  13.020 -0.6215  0.1528 -1.2144
   6823SM   H6T 8818   4.246   1.944  12.966 -0.0415 -0.3413  0.2605
   6823SM   C7S 8819   4.094   2.069  12.880  0.4029 -0.0252  0.1928
   6823SM   H7S 8820   3.997   2.121  12.899  0.9428  0.3829  2.1050
   6823SM   H7T 8821   4.078   1.989  12.805 -0.4360 -0.5115  0.8718
   6823SM   C8S 8822   4.194   2.169  12.817  0.0215 -0.0106  0.1017
   6823SM   H8S 8823   4.298   2.130  12.820  1.0106  2.4790  0.6624
   6823SM   H8T 8824   4.200   2.255  12.888  1.5267 -1.0237  1.2784
   6823SM   C9S 8825   4.158   2.225  12.680  0.2478  0.1320  0.1282
   6823SM   H9S 8826   4.221   2.315  12.660  0.0378  0.3673  0.5324
   6823SM   H9T 8827   4.053   2.260  12.666 -0.0561 -1.4692 -2.1424
   6823SM  C10S 8828   4.189   2.126  12.569 -0.5510 -0.0648  0.4900
   6823SM  H10S 8829   4.128   2.037  12.598  0.5996 -0.8353  0.6250
   6823SM  H10T 8830   4.297   2.098  12.566 -1.0574 -2.2863  0.8511
   6823SM  C11S 8831   4.153   2.177  12.426  0.3129  0.0798 -0.6558
   6823SM  H11S 8832   4.196   2.280  12.428 -0.5402  0.4408  0.8784
   6823SM  H11T 8833   4.043   2.192  12.422  0.0644 -1.2912  0.3839
   6823SM  C12S 8834   4.207   2.098  12.309 -0.3607 -0.0993 -0.8123
   6823SM  H12S 8835   4.187   1.989  12.314  0.8501 -0.2847  0.6693
   6823SM  H12T 8836   4.314   2.123  12.295 -0.5465  1.4921  0.4147
   6823SM  C13S 8837   4.153   2.157  12.179  0.5878 -0.1471  0.1314
   6823SM  H13S 8838   4.201   2.254  12.156  0.0844  0.0797  0.0182
   6823SM  H13T 8839   4.044   2.177  12.179  0.4417 -0.6788  2.6902
   6823SM  C14S 8840   4.179   2.065  12.053  0.1018  0.1173  0.3995
   6823SM  H14S 8841   4.103   1.986  12.070  2.1652 -1.8171  1.1644
   6823SM  H14T 8842   4.272   2.005  12.068  0.0282 -0.4617 -1.2487
   6823SM  C15S 8843   4.161   2.142  11.925  0.4082 -0.5085 -0.6681
   6823SM  H15S 8844   4.200   2.246  11.933 -0.9814  0.0728 -1.0811
   6823SM  H15T 8845   4.052   2.163  11.916  0.7491  0.9581 -1.6089
   6823SM  C16S 8846   4.217   2.070  11.805  0.4117  0.1066  0.1192
   6823SM  H16S 8847   4.191   1.963  11.816  0.8116  0.0372  0.4435
   6823SM  H16T 8848   4.327   2.083  11.811  0.3910  0.6316 -0.5337
   6823SM  C17S 8849   4.170   2.110  11.664  0.4276 -0.9489 -0.4210
   6823SM  H17S 8850   4.164   2.219  11.644  2.7109 -0.5857  0.5034
   6823SM  H17T 8851   4.066   2.075  11.647 -0.6454  0.8809  1.7337
   6823SM  C18S 8852   4.257   2.056  11.550  0.3097  0.2053  0.3262
   6823SM  H18S 8853   4.351   2.111  11.532  0.1546  0.1263 -0.7570
   6823SM  H18T 8854   4.202   2.062  11.454  0.2492  0.4635  0.3752
   6823SM  H18U 8855   4.280   1.949  11.571  1.2940  0.3208 -0.0976
   6823SM   C1F 8856   4.254   2.551  13.043 -0.0525 -0.8933  0.0695
   6823SM    OF 8857   4.341   2.625  13.081 -0.3155 -0.0439 -0.2108
   6823SM   C2F 8858   4.168   2.575  12.918 -0.1438 -0.6215 -0.1717
   6823SM   H2F 8859   4.084   2.641  12.947  1.5988  1.8482 -0.3519
   6823SM   H2G 8860   4.134   2.472  12.897  0.3732 -0.5600 -1.3946
   6823SM   C3F 8861   4.242   2.617  12.790 -0.5676  0.4551  0.0424
   6823SM   H3F 8862   4.336   2.565  12.764  0.5076  3.3680 -2.4051
   6823SM   H3G 8863   4.287   2.716  12.814  1.4755 -0.6380  1.0215
   6823SM   C4F 8864   4.148   2.625  12.676 -0.0998  0.1733 -0.1487
   6823SM   H4F 8865   4.058   2.687  12.695  0.5680  2.1989 -2.8574
   6823SM   H4G 8866   4.115   2.528  12.635 -1.4030  0.3519  0.4496
   6823SM   C5F 8867   4.228   2.689  12.557  0.3609 -0.2871 -0.7876
   6823SM   H5F 8868   4.329   2.644  12.551  1.6937  2.3980 -0.1156
   6823SM   H5G 8869   4.246   2.797  12.576  1.5053 -0.9556  2.6562
   6823SM   C6F 8870   4.156   2.658  12.422 -0.4404 -0.2617 -0.8019
   6823SM   H6F 8871   4.098   2.747  12.389 -0.1023  0.7867  1.2792
   6823SM   H6G 8872   4.089   2.570  12.435 -1.5773  0.5513 -0.9919
   6823SM   C7F 8873   4.256   2.623  12.306 -0.2189 -0.0868  0.0910
   6823SM   H7F 8874   4.322   2.538  12.335  0.4655  0.6423  0.7028
   6823SM   H7G 8875   4.320   2.711  12.284  1.0301 -1.4757 -2.3058
   6823SM   C8F 8876   4.173   2.587  12.179  0.3616 -0.1401 -0.0762
   6823SM   H8F 8877   4.094   2.662  12.156  1.1840  0.5649 -0.6687
   6823SM   H8G 8878   4.117   2.495  12.204  0.9404 -0.0491  1.6877
   6823SM   C9F 8879   4.259   2.577  12.050  0.6502 -0.4586  0.1643
   6823SM   H9F 8880   4.325   2.488  12.049  0.5148 -0.5656  0.6069
   6823SM   H9G 8881   4.328   2.664  12.063  2.0157 -1.1748 -1.7778
   6823SM  C10F 8882   4.170   2.586  11.919 -0.2356  0.4739 -0.2152
   6823SM  H10F 8883   4.112   2.680  11.922  0.7068  1.0414  1.1535
   6823SM  H10G 8884   4.092   2.507  11.915 -0.2487  0.4720  0.0935
   6823SM  C11F 8885   4.255   2.579  11.797  0.0321 -0.4075  0.0351
   6823SM  H11F 8886   4.288   2.476  11.774  0.7869 -0.0979 -0.2978
   6823SM  H11G 8887   4.341   2.649  11.802 -0.6660  0.4788  0.1004
   6823SM  C12F 8888   4.173   2.609  11.674  0.0604 -0.1153  0.5089
   6823SM  H12F 8889   4.107   2.697  11.691 -0.5165 -0.2392 -0.8963
   6823SM  H12G 8890   4.099   2.526  11.680 -1.0370  0.8740  0.9216
   6823SM  C13F 8891   4.245   2.610  11.530  0.6567 -0.1596  0.5857
   6823SM  H13F 8892   4.294   2.513  11.512 -1.3120 -1.8299  3.4241
   6823SM  H13G 8893   4.324   2.689  11.524  0.5434  0.0030  1.1960
   6823SM  C14F 8894   4.140   2.628  11.426 -0.6620 -0.3220 -0.5005
   6823SM  H14F 8895   4.083   2.724  11.429  0.1492  0.1639 -0.3449
   6823SM  H14G 8896   4.071   2.541  11.427 -0.3999 -0.5743 -2.2160
   6823SM  C15F 8897   4.199   2.629  11.282 -0.1171  0.4215 -0.3092
   6823SM  H15F 8898   4.243   2.529  11.265 -2.6943 -1.3609  2.5678
   6823SM  H15G 8899   4.280   2.705  11.273 -0.2363  0.5294 -0.4918
   6823SM  C16F 8900   4.091   2.656  11.177  0.6774 -0.9393 -0.0369
   6823SM  H16F 8901   3.994   2.611  11.205  0.4118  0.8648  2.2659
   6823SM  H16G 8902   4.135   2.625  11.080  0.7431  2.6324 -1.2844
   6823SM  C17F 8903   4.065   2.808  11.167  0.1134 -0.0268 -0.0915
   6823SM  H17F 8904   4.154   2.874  11.166  0.4749 -0.4847 -1.7607
   6823SM  H17G 8905   4.001   2.831  11.255  0.5743  0.3213  0.1491
   6823SM  C18F 8906   3.975   2.830  11.043 -0.7717 -0.4045 -0.1898
   6823SM  H18F 8907   3.890   2.760  11.030 -1.2016  0.1213 -0.2570
   6823SM  H18G 8908   4.043   2.824  10.956  1.2587  0.6992  1.2375
   6823SM  C19F 8909   3.910   2.966  11.041 -0.1910  0.3850 -0.5259
   6823SM  H19F 8910   3.884   2.984  10.935 -0.5469  3.5562  0.0146
   6823SM  H19G 8911   3.986   3.045  11.060  1.0595 -1.2434  1.8038
   6823SM  C20F 8912   3.787   2.980  11.134 -0.0388 -0.1966  0.1729
   6823SM  H20F 8913   3.828   2.967  11.236 -2.4126 -2.9003  0.9197
   6823SM  H20G 8914   3.720   2.893  11.117  1.3924 -1.3951  0.3575
   6823SM  C21F 8915   3.713   3.111  11.136  0.3465  0.2283  0.1695
   6823SM  H21F 8916   3.664   3.144  11.042 -0.7681 -3.2502 -0.6199
   6823SM  H21G 8917   3.786   3.186  11.173  0.0198 -0.7135  3.0227
   6823SM  C22F 8918   3.611   3.110  11.257 -0.3755  0.1763 -0.1183
   6823SM  H22F 8919   3.645   3.060  11.350 -1.5127 -0.2851  0.0673
   6823SM  H22G 8920   3.523   3.046  11.231  0.1418 -0.1579 -1.1189
   6823SM  C23F 8921   3.577   3.252  11.296  0.2414  0.1396  0.2533
   6823SM  H23F 8922   3.475   3.265  11.338  0.6541  0.4662  1.1770
   6823SM  H23G 8923   3.573   3.312  11.202  1.4197  0.0841  0.1442
   6823SM  H23H 8924   3.659   3.296  11.357  0.2866  1.2629 -0.5708
   6923SM     N 8925   4.981   3.459  14.054 -0.5400 -0.7066 -0.5314
   6923SM   C15 8926   5.079   3.571  14.081 -0.7080  0.3409 -0.1828
   6923SM  H15A 8927   5.038   3.668  14.060  1.5183  1.7986  1.7328
   6923SM  H15B 8928   5.161   3.548  14.014  0.7682  2.2380  0.8897
   6923SM  H15C 8929   5.117   3.563  14.181  1.0581 -1.8801 -0.9193
   6923SM   C14 8930   5.042   3.334  14.105 -1.1784 -0.2857  0.1366
   6923SM  H14A 8931   5.067   3.343  14.209 -0.7152  1.4560 -0.0994
   6923SM  H14B 8932   5.131   3.324  14.044 -2.3973  1.0536 -1.9665
   6923SM  H14C 8933   4.985   3.245  14.084  1.4507 -1.5943 -2.2178
   6923SM   C13 8934   4.864   3.486  14.148 -0.1152  0.2513  1.0184
   6923SM  H13A 8935   4.788   3.413  14.122  0.6162 -0.0173 -0.5105
   6923SM  H13B 8936   4.812   3.577  14.122 -1.5208 -0.2737  1.8580
   6923SM  H13C 8937   4.898   3.486  14.251 -0.8500 -0.7724  1.2762
   6923SM   C12 8938   4.943   3.453  13.908 -0.4533 -0.3815  0.2751
   6923SM  H12A 8939   4.876   3.537  13.894 -1.3962 -1.1513  0.0225
   6923SM  H12B 8940   4.883   3.364  13.896 -0.2785 -0.3499 -1.0850
   6923SM   C11 8941   5.055   3.447  13.807 -0.2394 -0.5722 -0.0929
   6923SM  H11A 8942   5.004   3.428  13.710  0.9184  1.1604 -1.0998
   6923SM  H11B 8943   5.122   3.359  13.819  1.0040  0.2059 -1.0943
   6923SM     P 8944   5.258   3.601  13.755  0.1320  0.1887  0.1158
   6923SM   O13 8945   5.269   3.743  13.715 -0.4459  0.2361  0.0253
   6923SM   O14 8946   5.327   3.559  13.876  0.2007 -0.5397 -0.0724
   6923SM   O11 8947   5.296   3.512  13.627  0.1823  0.2019 -0.2798
   6923SM   O12 8948   5.105   3.577  13.786 -0.0643 -0.1443  0.4573
   6923SM   C1S 8949   5.220   3.525  13.513 -0.4463 -0.7666  0.8452
   6923SM   H1S 8950   5.224   3.630  13.478  1.6039 -0.3998  2.0264
   6923SM   H1T 8951   5.114   3.499  13.533 -0.3691 -0.9081  1.0681
   6923SM    NF 8952   5.164   3.426  13.293  0.1824 -0.3793  0.4176
   6923SM   HNF 8953   5.115   3.340  13.277 -0.9650  0.1890  0.7262
   6923SM   C2S 8954   5.265   3.436  13.398 -0.1400 -0.2031  0.3188
   6923SM   H2S 8955   5.358   3.483  13.359 -0.0143  0.9804  1.9124
   6923SM   C3S 8956   5.322   3.294  13.441 -0.0956  0.8352 -0.7948
   6923SM   H3S 8957   5.237   3.225  13.461  1.3489 -0.7389  0.1465
   6923SM    O3 8958   5.406   3.289  13.563  0.3127 -0.6662 -0.2683
   6923SM   HO3 8959   5.359   3.361  13.606 -1.1881 -0.3949 -2.2020
   6923SM   C4S 8960   5.391   3.239  13.321 -0.1235 -0.7695  0.1224
   6923SM   H4S 8961   5.324   3.206  13.241  0.1251  1.4016 -1.0555
   6923SM   C5S 8962   5.529   3.234  13.308  0.3262 -0.2779  0.1676
   6923SM   H5S 8963   5.592   3.259  13.395 -2.4143  0.8960  1.9727
   6923SM   C6S 8964   5.599   3.167  13.194  0.6228  0.2572  0.3036
   6923SM   H6S 8965   5.618   3.064  13.230 -2.6122 -0.6541 -0.2190
   6923SM   H6T 8966   5.694   3.218  13.170  0.6589  0.4800  0.8996
   6923SM   C7S 8967   5.520   3.135  13.066  0.5748 -1.1026  1.3513
   6923SM   H7S 8968   5.494   3.221  12.999  1.0602 -1.3464  0.8503
   6923SM   H7T 8969   5.423   3.092  13.099  0.2395 -0.5950  1.0540
   6923SM   C8S 8970   5.596   3.031  12.981 -0.1919 -0.0011  0.0830
   6923SM   H8S 8971   5.615   2.937  13.037 -0.9391 -1.6873 -2.3382
   6923SM   H8T 8972   5.694   3.068  12.941  1.2861 -3.0845  0.5484
   6923SM   C9S 8973   5.531   3.000  12.854 -0.4157  0.1247 -0.2567
   6923SM   H9S 8974   5.446   3.072  12.849 -0.8823 -0.1153  2.5649
   6923SM   H9T 8975   5.493   2.896  12.865  5.6230 -2.3618  0.5394
   6923SM  C10S 8976   5.624   3.003  12.738  0.7757  0.1244  0.2995
   6923SM  H10S 8977   5.709   2.935  12.759 -0.2774 -2.2288 -2.3245
   6923SM  H10T 8978   5.657   3.107  12.716  1.6674  0.0958  1.4127
   6923SM  C11S 8979   5.555   2.942  12.607  0.5788 -0.6091 -0.2179
   6923SM  H11S 8980   5.461   2.996  12.585 -0.0354 -1.0340  1.2210
   6923SM  H11T 8981   5.525   2.836  12.621 -1.2584 -0.3290 -1.7030
   6923SM  C12S 8982   5.650   2.951  12.491  0.3437  0.2267 -0.0790
   6923SM  H12S 8983   5.743   2.891  12.502  0.1128 -0.0233  0.5397
   6923SM  H12T 8984   5.681   3.054  12.463 -0.9166  0.3487 -1.1560
   6923SM  C13S 8985   5.594   2.897  12.359 -0.2448 -0.4070  0.2936
   6923SM  H13S 8986   5.525   2.969  12.310 -1.2881  0.2631  2.6470
   6923SM  H13T 8987   5.555   2.796  12.383  2.0086 -0.6316  3.5805
   6923SM  C14S 8988   5.708   2.876  12.257  0.2172  0.2633  0.7245
   6923SM  H14S 8989   5.791   2.816  12.301  0.3831  0.5291  0.7744
   6923SM  H14T 8990   5.748   2.974  12.222 -0.1003  0.4718  0.9497
   6923SM  C15S 8991   5.645   2.797  12.128 -0.2765 -0.3313 -0.1784
   6923SM  H15S 8992   5.546   2.845  12.111 -1.1112 -1.6418  0.7337
   6923SM  H15T 8993   5.621   2.692  12.155  0.8072 -0.7439 -0.7963
   6923SM  C16S 8994   5.740   2.801  12.007  0.2368 -0.2246  0.1988
   6923SM  H16S 8995   5.726   2.702  11.958 -1.7763 -0.7216  1.5845
   6923SM  H16T 8996   5.845   2.794  12.040  1.0376  2.4640 -1.4655
   6923SM  C17S 8997   5.722   2.922  11.927 -0.3314 -0.2494 -0.3928
   6923SM  H17S 8998   5.733   3.005  12.000  0.2577 -1.5637  1.0701
   6923SM  H17T 8999   5.619   2.930  11.887 -0.2966  0.1849 -0.4046
   6923SM  C18S 9000   5.819   2.934  11.806 -0.3555 -0.3046  0.0598
   6923SM  H18S 9001   5.782   2.881  11.715  1.6036 -0.0770 -0.9205
   6923SM  H18T 9002   5.920   2.895  11.830 -0.2219  0.1067  0.1679
   6923SM  H18U 9003   5.834   3.043  11.788  0.8472 -0.4708 -0.0027
   6923SM   C1F 9004   5.115   3.518  13.221 -0.4496  0.1686  0.6921
   6923SM    OF 9005   5.149   3.633  13.245  0.2596  0.1792 -0.6105
   6923SM   C2F 9006   5.022   3.486  13.097 -0.3032 -0.0128 -0.7281
   6923SM   H2F 9007   4.915   3.491  13.127  0.3308 -0.9820  2.0365
   6923SM   H2G 9008   5.046   3.380  13.073 -0.5562  0.2713 -2.2974
   6923SM   C3F 9009   5.075   3.562  12.972  0.5402 -0.0188 -0.2324
   6923SM   H3F 9010   5.168   3.517  12.931  0.7761  0.9670 -0.7965
   6923SM   H3G 9011   5.117   3.661  12.998  0.9782  0.1552 -1.5043
   6923SM   C4F 9012   4.967   3.600  12.873  0.3515  0.3020 -0.2208
   6923SM   H4F 9013   4.887   3.650  12.931  0.3622 -0.1456  0.1778
   6923SM   H4G 9014   4.927   3.507  12.827  0.4474  1.0471 -1.8756
   6923SM   C5F 9015   5.013   3.685  12.750 -0.1640  0.0714 -0.6465
   6923SM   H5F 9016   5.116   3.725  12.758 -1.1702  2.4630  1.9657
   6923SM   H5G 9017   4.943   3.771  12.748 -0.4216 -0.1360 -0.6216
   6923SM   C6F 9018   5.004   3.615  12.613  0.3603 -0.2646 -0.3035
   6923SM   H6F 9019   4.904   3.566  12.614  0.0206  0.4181  0.0247
   6923SM   H6G 9020   5.087   3.545  12.594  0.1303 -0.3167 -1.1963
   6923SM   C7F 9021   5.028   3.712  12.499  0.5391 -0.7735 -0.7817
   6923SM   H7F 9022   5.126   3.764  12.504  0.6188 -0.9407 -0.5668
   6923SM   H7G 9023   4.949   3.789  12.506  0.6545 -0.7740  0.9450
   6923SM   C8F 9024   5.031   3.643  12.365  0.5071  0.6930 -0.0630
   6923SM   H8F 9025   4.933   3.595  12.345 -1.0201  3.2186  0.7841
   6923SM   H8G 9026   5.112   3.570  12.385  0.5263  1.0930  1.4551
   6923SM   C9F 9027   5.078   3.735  12.253  0.0844  0.1571 -0.1881
   6923SM   H9F 9028   5.148   3.804  12.305 -0.6591  1.9863 -1.4969
   6923SM   H9G 9029   4.998   3.805  12.222  0.2239  0.2980 -0.2312
   6923SM  C10F 9030   5.141   3.666  12.132  0.6405 -0.0238 -0.0298
   6923SM  H10F 9031   5.068   3.590  12.097  1.4118 -0.6995 -0.2101
   6923SM  H10G 9032   5.232   3.614  12.168  0.6561 -0.6937 -0.9927
   6923SM  C11F 9033   5.183   3.755  12.019 -1.1584  0.0744  0.3581
   6923SM  H11F 9034   5.252   3.834  12.055 -0.4230 -1.1616  1.7844
   6923SM  H11G 9035   5.106   3.819  11.972  1.1576  1.4494 -1.8010
   6923SM  C12F 9036   5.257   3.672  11.907 -0.3376 -0.2915 -0.3946
   6923SM  H12F 9037   5.185   3.598  11.865 -2.1153  0.8604  0.5102
   6923SM  H12G 9038   5.349   3.628  11.952 -1.6303 -1.1056  1.5935
   6923SM  C13F 9039   5.303   3.762  11.784 -0.4448 -0.0523  0.3120
   6923SM  H13F 9040   5.386   3.829  11.814 -0.2202 -1.3697  2.9677
   6923SM  H13G 9041   5.223   3.828  11.744 -0.2480 -0.5639 -0.9826
   6923SM  C14F 9042   5.347   3.674  11.669 -0.2429  0.5227 -0.1259
   6923SM  H14F 9043   5.290   3.578  11.666  1.5877 -0.6057 -1.3258
   6923SM  H14G 9044   5.456   3.653  11.674 -0.6151 -1.3592  0.8617
   6923SM  C15F 9045   5.317   3.749  11.534 -1.0173 -0.6099  0.0425
   6923SM  H15F 9046   5.384   3.837  11.530 -2.6259  0.6265 -2.7774
   6923SM  H15G 9047   5.212   3.784  11.518 -1.0584 -0.7385  0.0342
   6923SM  C16F 9048   5.351   3.670  11.409  0.1045 -0.0295  0.1763
   6923SM  H16F 9049   5.285   3.581  11.420 -1.0165  0.8201  0.5537
   6923SM  H16G 9050   5.459   3.645  11.417  0.2001  0.8920  2.9523
   6923SM  C17F 9051   5.337   3.746  11.284  0.2069 -0.3418  0.5987
   6923SM  H17F 9052   5.408   3.699  11.212 -2.7267 -2.3119 -1.2000
   6923SM  H17G 9053   5.372   3.851  11.294 -0.3842 -0.2361  1.6060
   6923SM  C18F 9054   5.201   3.739  11.215  0.3240  0.2466  0.7962
   6923SM  H18F 9055   5.122   3.790  11.274 -1.3479 -1.3039 -0.0036
   6923SM  H18G 9056   5.168   3.633  11.219 -0.1368  0.4060  3.2595
   6923SM  C19F 9057   5.194   3.795  11.074 -0.2979 -0.4797 -0.2689
   6923SM  H19F 9058   5.258   3.739  11.003  1.0228  0.5626  0.0626
   6923SM  H19G 9059   5.230   3.900  11.065 -3.0040  0.4602 -1.1944
   6923SM  C20F 9060   5.055   3.781  11.019  0.3300  0.1711 -0.0469
   6923SM  H20F 9061   4.985   3.855  11.064 -0.0204  0.0531 -0.3881
   6923SM  H20G 9062   5.017   3.682  11.052 -0.8756  0.2247 -1.1783
   6923SM  C21F 9063   5.053   3.772  10.863  0.1519  0.0369  0.0479
   6923SM  H21F 9064   5.091   3.671  10.837 -2.0411 -0.4799 -1.4592
   6923SM  H21G 9065   5.106   3.847  10.801 -0.1512 -1.9403 -2.7770
   6923SM  C22F 9066   4.908   3.773  10.815 -0.4407  0.0832  0.4192
   6923SM  H22F 9067   4.920   3.770  10.704  2.2505  2.7489  0.5083
   6923SM  H22G 9068   4.868   3.875  10.831  1.3869  0.9177 -0.0494
   6923SM  C23F 9069   4.821   3.654  10.853  0.0330  0.1920  0.3470
   6923SM  H23F 9070   4.797   3.654  10.961 -2.1705  0.7892 -0.0902
   6923SM  H23G 9071   4.868   3.557  10.823  0.7122 -0.1793  2.4659
   6923SM  H23H 9072   4.727   3.670  10.795  0.8291  1.2141 -0.7107
   7023SM     N 9073   4.779   2.015  13.463 -0.3283  0.1134 -0.8349
   7023SM   C15 9074   4.906   2.006  13.382  0.4066  0.6503  0.4569
   7023SM  H15A 9075   4.916   1.903  13.350  1.4469 -0.0650  2.8779
   7023SM  H15B 9076   4.993   2.042  13.435  0.6081  1.3515 -0.3204
   7023SM  H15C 9077   4.908   2.067  13.293  0.3816 -0.6862 -0.4967
   7023SM   C14 9078   4.672   2.057  13.366 -0.1301 -0.0854  0.2168
   7023SM  H14A 9079   4.576   2.041  13.413 -0.4589  0.1821 -0.3588
   7023SM  H14B 9080   4.674   1.996  13.276 -0.9741 -0.0450  0.1671
   7023SM  H14C 9081   4.675   2.161  13.336 -0.6114 -0.4643 -1.2422
   7023SM   C13 9082   4.746   1.881  13.516  0.5038  0.2839 -0.2023
   7023SM  H13A 9083   4.811   1.841  13.592 -1.7151  1.8844  2.7782
   7023SM  H13B 9084   4.739   1.811  13.434 -2.8182 -0.9020  0.9166
   7023SM  H13C 9085   4.642   1.873  13.545  0.8655 -2.7895  0.6263
   7023SM   C12 9086   4.779   2.106  13.582 -0.1184  0.3169  0.6843
   7023SM  H12A 9087   4.684   2.090  13.630 -1.6009  2.1638 -1.4197
   7023SM  H12B 9088   4.773   2.209  13.552 -1.2181  0.1644  0.3450
   7023SM   C11 9089   4.899   2.099  13.677 -0.4463  0.0259 -0.8903
   7023SM  H11A 9090   4.920   2.003  13.729 -1.8167  0.8371  1.2925
   7023SM  H11B 9091   4.864   2.170  13.755  0.7356 -0.2438 -0.0854
   7023SM     P 9092   5.038   2.287  13.578  0.0604  0.3170 -0.0210
   7023SM   O13 9093   4.904   2.339  13.546 -0.2585  0.0874  0.0499
   7023SM   O14 9094   5.120   2.358  13.681  0.0822  0.2447  0.3032
   7023SM   O11 9095   5.121   2.283  13.443 -0.1047 -0.0779 -0.3234
   7023SM   O12 9096   5.024   2.138  13.620 -0.1850 -0.1255 -0.2015
   7023SM   C1S 9097   5.264   2.261  13.442  0.0683  0.6567 -0.3343
   7023SM   H1S 9098   5.287   2.180  13.514  1.6438  0.1742 -1.3308
   7023SM   H1T 9099   5.319   2.351  13.478 -2.3468  1.7335  0.9076
   7023SM    NF 9100   5.453   2.150  13.318  0.4183  0.0068  0.2388
   7023SM   HNF 9101   5.516   2.196  13.257 -0.7828  0.9014 -0.3650
   7023SM   C2S 9102   5.320   2.217  13.304 -0.6743 -0.2725  0.5237
   7023SM   H2S 9103   5.263   2.132  13.260  1.8277 -2.1225  0.5839
   7023SM   C3S 9104   5.312   2.332  13.201  0.0993 -0.1362  0.5901
   7023SM   H3S 9105   5.392   2.402  13.233 -0.9460  0.6098  1.6925
   7023SM    O3 9106   5.188   2.408  13.210 -0.6653 -0.6608 -0.1958
   7023SM   HO3 9107   5.154   2.372  13.293 -0.3237  0.2529  0.3539
   7023SM   C4S 9108   5.339   2.287  13.056 -0.5302  0.1736 -0.0132
   7023SM   H4S 9109   5.444   2.294  13.025 -0.3263  1.8907  0.9165
   7023SM   C5S 9110   5.254   2.239  12.965  0.1963 -0.1093  0.3819
   7023SM   H5S 9111   5.152   2.221  13.001 -0.2484 -2.3050 -1.6746
   7023SM   C6S 9112   5.279   2.189  12.818 -0.5292  0.4139 -0.0444
   7023SM   H6S 9113   5.186   2.187  12.757 -1.5179 -2.5912  1.3953
   7023SM   H6T 9114   5.325   2.088  12.819  0.0205  0.6420  1.6506
   7023SM   C7S 9115   5.382   2.270  12.738  0.3138  0.0736 -0.1900
   7023SM   H7S 9116   5.479   2.265  12.793 -0.5778  0.3382  1.4434
   7023SM   H7T 9117   5.339   2.372  12.738 -1.5765 -0.6897  0.6922
   7023SM   C8S 9118   5.418   2.221  12.595 -0.0592 -0.1401  0.5903
   7023SM   H8S 9119   5.437   2.112  12.587  0.5902  0.0063  0.0154
   7023SM   H8T 9120   5.516   2.267  12.569  0.1149 -0.1087  1.2758
   7023SM   C9S 9121   5.302   2.263  12.503  0.2654  0.1311  0.0470
   7023SM   H9S 9122   5.263   2.363  12.533 -1.4027 -0.5065  0.1587
   7023SM   H9T 9123   5.219   2.189  12.495 -0.7161  0.9482  1.8227
   7023SM  C10S 9124   5.361   2.293  12.361  0.5098  0.0735 -0.1829
   7023SM  H10S 9125   5.422   2.208  12.323  0.0887  0.5039 -1.9282
   7023SM  H10T 9126   5.422   2.386  12.362 -2.8112  2.4375 -1.0565
   7023SM  C11S 9127   5.256   2.321  12.259  0.1416  0.0029 -0.1667
   7023SM  H11S 9128   5.220   2.422  12.288  0.5910 -0.0293  0.5124
   7023SM  H11T 9129   5.166   2.256  12.263 -1.1186  1.7026 -0.0770
   7023SM  C12S 9130   5.312   2.317  12.116  0.1549 -0.5470 -0.2685
   7023SM  H12S 9131   5.359   2.217  12.109 -0.9208 -1.1957  1.1666
   7023SM  H12T 9132   5.403   2.381  12.113 -0.2807  0.1135  0.2603
   7023SM  C13S 9133   5.202   2.352  12.016  0.3589 -0.7882 -0.0311
   7023SM  H13S 9134   5.138   2.440  12.038  0.6068 -0.6177  0.0085
   7023SM  H13T 9135   5.126   2.271  12.006 -0.8573  0.2868  0.1961
   7023SM  C14S 9136   5.260   2.375  11.876  0.7409  0.1783  0.3373
   7023SM  H14S 9137   5.294   2.276  11.838 -0.8047 -0.2940  0.0899
   7023SM  H14T 9138   5.340   2.451  11.883  0.3147  0.5731  1.0259
   7023SM  C15S 9139   5.144   2.426  11.790 -0.6185 -0.5849  0.0840
   7023SM  H15S 9140   5.099   2.520  11.829  0.8750  1.5814 -2.9887
   7023SM  H15T 9141   5.064   2.349  11.785 -0.8118 -0.6188  2.4053
   7023SM  C16S 9142   5.174   2.463  11.643  0.2569  0.0239  0.7783
   7023SM  H16S 9143   5.214   2.371  11.594 -1.4377 -0.3932  0.1058
   7023SM  H16T 9144   5.257   2.538  11.644 -0.0940  0.4221  0.4683
   7023SM  C17S 9145   5.058   2.513  11.557  0.7411 -0.7001 -0.3652
   7023SM  H17S 9146   4.995   2.582  11.616 -1.1990 -2.2940 -0.4832
   7023SM  H17T 9147   4.983   2.434  11.537  0.1091 -0.5118  1.1406
   7023SM  C18S 9148   5.107   2.565  11.419 -0.4168 -0.0483 -0.3003
   7023SM  H18S 9149   5.021   2.587  11.351 -0.7211 -2.1861 -0.6887
   7023SM  H18T 9150   5.167   2.490  11.363  1.4250  1.3795 -0.3438
   7023SM  H18U 9151   5.171   2.656  11.428 -0.7053  0.1012  0.2643
   7023SM   C1F 9152   5.484   2.036  13.380  0.0532 -0.1069 -0.2038
   7023SM    OF 9153   5.407   1.975  13.445  0.3620 -0.3863 -0.0285
   7023SM   C2F 9154   5.623   1.981  13.359  0.6021  0.1719 -0.6483
   7023SM   H2F 9155   5.670   1.989  13.460  3.9446 -0.7665 -1.9758
   7023SM   H2G 9156   5.677   2.038  13.279  0.1548  0.3928 -0.7942
   7023SM   C3F 9157   5.616   1.837  13.313 -0.4777  0.1222 -0.4326
   7023SM   H3F 9158   5.553   1.782  13.386 -1.6605 -0.3183 -1.7491
   7023SM   H3G 9159   5.716   1.789  13.310 -0.4888  0.1586 -1.9520
   7023SM   C4F 9160   5.546   1.818  13.180  0.3598  0.1206  0.4302
   7023SM   H4F 9161   5.440   1.850  13.189  0.7531  0.9870  2.5842
   7023SM   H4G 9162   5.530   1.711  13.152 -2.0926  0.6461 -0.5060
   7023SM   C5F 9163   5.618   1.892  13.063 -0.3155  0.7242  0.5508
   7023SM   H5F 9164   5.723   1.854  13.068 -0.9563 -1.2077  0.1835
   7023SM   H5G 9165   5.615   2.002  13.081  1.2949  1.0030 -0.5904
   7023SM   C6F 9166   5.553   1.861  12.928 -0.1049 -0.1874 -0.1893
   7023SM   H6F 9167   5.454   1.910  12.932  0.3612  0.7913 -0.1388
   7023SM   H6G 9168   5.542   1.752  12.911 -2.8532  0.4382 -3.3794
   7023SM   C7F 9169   5.636   1.907  12.810  0.8119 -0.5387 -0.8193
   7023SM   H7F 9170   5.727   1.846  12.825  0.4008 -1.2393 -1.1519
   7023SM   H7G 9171   5.667   2.014  12.814  1.8635 -0.7933 -1.7918
   7023SM   C8F 9172   5.568   1.877  12.675 -0.0737  0.1091 -0.2650
   7023SM   H8F 9173   5.472   1.932  12.665  0.5293  1.1742 -0.3328
   7023SM   H8G 9174   5.528   1.774  12.690 -1.4544  0.6795  0.1281
   7023SM   C9F 9175   5.666   1.904  12.563 -0.0794 -0.0288  0.8580
   7023SM   H9F 9176   5.759   1.845  12.574 -0.6951 -1.0540  0.7375
   7023SM   H9G 9177   5.691   2.012  12.554  1.0664 -0.4767 -3.2900
   7023SM  C10F 9178   5.608   1.849  12.433  0.7630  0.4741 -0.2385
   7023SM  H10F 9179   5.510   1.895  12.406  0.0103 -2.4008 -3.1036
   7023SM  H10G 9180   5.577   1.742  12.442 -0.3126  0.9268  2.0941
   7023SM  C11F 9181   5.689   1.851  12.304  0.4553 -0.1540 -0.2835
   7023SM  H11F 9182   5.776   1.785  12.324  1.6139  2.1598  3.2682
   7023SM  H11G 9183   5.740   1.949  12.296  1.1743 -0.5050 -0.0863
   7023SM  C12F 9184   5.622   1.800  12.170 -0.5571 -0.2517  0.0195
   7023SM  H12F 9185   5.557   1.880  12.128  0.9074  0.5839 -0.7291
   7023SM  H12G 9186   5.567   1.705  12.185  1.9184 -2.3451 -2.8215
   7023SM  C13F 9187   5.729   1.769  12.070 -0.4781 -0.6007  0.2637
   7023SM  H13F 9188   5.769   1.667  12.084  1.6155  0.3744  1.8959
   7023SM  H13G 9189   5.820   1.832  12.065 -1.7786  1.3231 -0.5264
   7023SM  C14F 9190   5.677   1.781  11.926  0.0219  0.4617 -0.2265
   7023SM  H14F 9191   5.570   1.751  11.919 -0.1224  1.0834 -0.7237
   7023SM  H14G 9192   5.741   1.714  11.865 -0.0574  0.0995  0.0828
   7023SM  C15F 9193   5.684   1.924  11.870  0.0190 -0.0464  0.4028
   7023SM  H15F 9194   5.791   1.945  11.849 -0.1432 -0.6372 -1.1263
   7023SM  H15G 9195   5.638   1.993  11.943 -2.1739  1.1277 -1.9385
   7023SM  C16F 9196   5.603   1.924  11.740 -0.6987 -0.3055  0.5229
   7023SM  H16F 9197   5.506   1.872  11.740 -1.1322  0.4654 -0.3947
   7023SM  H16G 9198   5.669   1.871  11.668  2.3249  2.1574  1.2634
   7023SM  C17F 9199   5.575   2.064  11.691  0.3219 -1.0421  0.0370
   7023SM  H17F 9200   5.674   2.114  11.693  1.6284 -3.4364 -0.0839
   7023SM  H17G 9201   5.503   2.106  11.765 -0.2343 -2.7233  0.4964
   7023SM  C18F 9202   5.521   2.059  11.550 -0.1272  0.3032  0.4826
   7023SM  H18F 9203   5.418   2.018  11.553 -0.0331 -0.1954 -1.4561
   7023SM  H18G 9204   5.572   1.980  11.491  1.1911  0.2549  1.6187
   7023SM  C19F 9205   5.538   2.193  11.475 -0.1076 -0.3157 -0.3674
   7023SM  H19F 9206   5.648   2.203  11.472  0.1687 -2.8253 -0.2761
   7023SM  H19G 9207   5.495   2.279  11.531 -1.8681 -0.0568 -1.9949
   7023SM  C20F 9208   5.497   2.181  11.330  0.6263  0.1536 -0.3420
   7023SM  H20F 9209   5.509   2.072  11.308  2.6667  0.5984 -1.6996
   7023SM  H20G 9210   5.559   2.248  11.268  3.4075  0.4388  2.4810
   7023SM  C21F 9211   5.353   2.221  11.304  0.6106 -0.1595 -0.6651
   7023SM  H21F 9212   5.330   2.315  11.357  2.2362 -0.2212  0.2216
   7023SM  H21G 9213   5.282   2.149  11.350  0.4271  1.5431  1.8870
   7023SM  C22F 9214   5.334   2.243  11.155 -0.0262  0.2529 -0.3448
   7023SM  H22F 9215   5.377   2.150  11.113  0.7041  0.4882 -0.1493
   7023SM  H22G 9216   5.396   2.324  11.111  0.4364 -1.1782 -2.4871
   7023SM  C23F 9217   5.191   2.254  11.101  0.1872 -0.2000 -0.0600
   7023SM  H23F 9218   5.139   2.344  11.140  0.4916 -0.5029  1.0638
   7023SM  H23G 9219   5.132   2.170  11.144  2.0341 -1.2521  0.5017
   7023SM  H23H 9220   5.189   2.240  10.991 -0.3926  1.6467 -0.3175
   7123SM     N 9221   4.540   0.646  14.157 -0.1224 -0.4426 -0.2849
   7123SM   C15 9222   4.575   0.794  14.133  0.3906  0.7186  0.0552
   7123SM  H15A 9223   4.680   0.808  14.116  0.1445 -0.0401 -2.6770
   7123SM  H15B 9224   4.549   0.863  14.212  0.1475 -1.8382  2.3738
   7123SM  H15C 9225   4.528   0.818  14.038  0.9108 -0.5755 -0.5583
   7123SM   C14 9226   4.613   0.559  14.049  0.2514 -0.1476  0.4943
   7123SM  H14A 9227   4.592   0.601  13.952  0.7898  0.0325  0.4506
   7123SM  H14B 9228   4.596   0.453  14.049  0.4553 -0.1800  0.4851
   7123SM  H14C 9229   4.719   0.580  14.049  0.0307  1.2246 -1.3214
   7123SM   C13 9230   4.586   0.608  14.289 -0.1654 -0.2431 -0.1876
   7123SM  H13A 9231   4.548   0.511  14.318 -3.8033  0.7807 -1.0472
   7123SM  H13B 9232   4.548   0.666  14.372 -2.7197 -1.1295 -0.6454
   7123SM  H13C 9233   4.694   0.615  14.297 -0.2980  1.2414  0.7426
   7123SM   C12 9234   4.389   0.627  14.148 -0.4162  0.4542 -0.4168
   7123SM  H12A 9235   4.347   0.632  14.247 -0.0134 -0.6378 -0.1726
   7123SM  H12B 9236   4.370   0.527  14.111 -3.0610  0.1218  1.5508
   7123SM   C11 9237   4.306   0.718  14.051  0.5443  0.1847  0.8397
   7123SM  H11A 9238   4.308   0.825  14.081 -0.7294  0.3447  0.3995
   7123SM  H11B 9239   4.201   0.684  14.061 -0.3737  2.4407 -0.3621
   7123SM     P 9240   4.271   0.774  13.794  0.0175 -0.1262  0.0113
   7123SM   O13 9241   4.238   0.657  13.708 -0.4606 -1.1959 -0.1533
   7123SM   O14 9242   4.159   0.861  13.835 -0.6021 -0.2640 -0.0204
   7123SM   O11 9243   4.381   0.865  13.725  0.2995  0.3758 -0.3952
   7123SM   O12 9244   4.349   0.716  13.917  0.1705  0.1248  0.3143
   7123SM   C1S 9245   4.513   0.818  13.711 -0.1046  0.5037  0.2943
   7123SM   H1S 9246   4.520   0.707  13.709  0.6243  0.5416  0.4276
   7123SM   H1T 9247   4.580   0.852  13.793  1.7947  1.3962 -1.5384
   7123SM    NF 9248   4.713   0.804  13.567 -0.0390  1.1181  0.0257
   7123SM   HNF 9249   4.783   0.871  13.591  0.6759  0.2645  0.3977
   7123SM   C2S 9250   4.583   0.863  13.575  0.7583 -0.5200 -0.6454
   7123SM   H2S 9251   4.514   0.825  13.496  0.0773 -0.6382 -0.0082
   7123SM   C3S 9252   4.579   1.013  13.564 -0.5290 -0.4768  0.0184
   7123SM   H3S 9253   4.630   1.050  13.656  0.6382 -0.3968 -0.6326
   7123SM    O3 9254   4.451   1.066  13.578 -0.1306 -0.0632 -0.2310
   7123SM   HO3 9255   4.402   1.000  13.629 -0.0543  0.8378  1.0599
   7123SM   C4S 9256   4.660   1.067  13.440 -0.2036  0.3313 -0.8037
   7123SM   H4S 9257   4.764   1.093  13.464 -0.5282  1.3285 -0.4238
   7123SM   C5S 9258   4.619   1.085  13.313  0.3949  0.3319 -0.4044
   7123SM   H5S 9259   4.525   1.037  13.281  0.3079 -1.0749  1.6957
   7123SM   C6S 9260   4.702   1.139  13.198  0.4069  1.0585 -0.4290
   7123SM   H6S 9261   4.675   1.082  13.107 -0.6232  0.8390 -0.0045
   7123SM   H6T 9262   4.812   1.139  13.214  0.0906  0.7460  2.3698
   7123SM   C7S 9263   4.671   1.292  13.177  0.1159  0.6377 -0.6096
   7123SM   H7S 9264   4.688   1.357  13.266 -1.2008  1.3856 -0.8692
   7123SM   H7T 9265   4.561   1.296  13.162  0.1008  0.0074 -0.6880
   7123SM   C8S 9266   4.738   1.343  13.053  0.6793 -0.1911  0.5273
   7123SM   H8S 9267   4.845   1.315  13.053  0.6607 -0.3203 -0.9135
   7123SM   H8T 9268   4.729   1.454  13.053 -0.4480 -0.2653 -0.7093
   7123SM   C9S 9269   4.672   1.292  12.930  0.4205 -0.4212  0.7469
   7123SM   H9S 9270   4.564   1.318  12.925  0.6289  0.6882  1.5509
   7123SM   H9T 9271   4.680   1.182  12.916  3.3736 -0.0795 -1.2195
   7123SM  C10S 9272   4.750   1.358  12.816 -0.0108 -0.2859  0.3101
   7123SM  H10S 9273   4.856   1.332  12.833  0.6200  2.7186  1.5922
   7123SM  H10T 9274   4.738   1.468  12.813 -2.3837 -0.3833 -4.5517
   7123SM  C11S 9275   4.726   1.309  12.678  0.3847  0.2842  0.2609
   7123SM  H11S 9276   4.617   1.313  12.656  0.3722 -1.5078 -0.2130
   7123SM  H11T 9277   4.765   1.205  12.672  2.5806  1.0995 -0.7269
   7123SM  C12S 9278   4.792   1.392  12.563  0.2773 -0.9446 -0.1024
   7123SM  H12S 9279   4.897   1.416  12.591 -0.4393 -0.4354  2.4605
   7123SM  H12T 9280   4.732   1.483  12.540  2.5891  1.0063  1.1267
   7123SM  C13S 9281   4.804   1.307  12.432 -0.6381  0.4757 -0.5153
   7123SM  H13S 9282   4.728   1.226  12.420 -0.6301  0.6845 -2.3813
   7123SM  H13T 9283   4.903   1.258  12.424 -0.2506  1.3733 -1.5468
   7123SM  C14S 9284   4.776   1.383  12.302  0.3357 -0.2202 -0.5341
   7123SM  H14S 9285   4.794   1.489  12.330  0.0006 -0.6487  1.4278
   7123SM  H14T 9286   4.667   1.384  12.280 -0.1272  0.4467  1.5192
   7123SM  C15S 9287   4.865   1.340  12.189 -0.5804  0.2891  0.1980
   7123SM  H15S 9288   4.873   1.229  12.190  1.2857  0.4027  1.8293
   7123SM  H15T 9289   4.964   1.384  12.212 -0.4149  0.2743 -0.4527
   7123SM  C16S 9290   4.820   1.393  12.053 -0.3161  0.2697  0.6870
   7123SM  H16S 9291   4.796   1.501  12.055  1.5264  0.7245  0.0476
   7123SM  H16T 9292   4.730   1.343  12.011  0.3586 -0.7367  0.3951
   7123SM  C17S 9293   4.929   1.388  11.941  0.2684 -0.0443 -0.8051
   7123SM  H17S 9294   4.917   1.288  11.893 -1.6219  0.6515 -1.8416
   7123SM  H17T 9295   5.032   1.408  11.978  0.1446  0.8863 -0.9429
   7123SM  C18S 9296   4.911   1.490  11.827 -0.2125  0.1335  0.3056
   7123SM  H18S 9297   4.953   1.590  11.850  1.1396 -0.6319  1.3319
   7123SM  H18T 9298   4.804   1.504  11.799 -0.5652  1.7075  2.2630
   7123SM  H18U 9299   4.971   1.454  11.740 -0.5983  1.1907 -0.4249
   7123SM   C1F 9300   4.737   0.668  13.566 -0.2435 -0.0949 -0.3130
   7123SM    OF 9301   4.653   0.586  13.530 -0.0956 -0.0312  0.1298
   7123SM   C2F 9302   4.866   0.619  13.612  0.7374  0.1363 -0.3057
   7123SM   H2F 9303   4.836   0.556  13.698 -1.0854 -0.6923 -1.4756
   7123SM   H2G 9304   4.928   0.702  13.650  1.8400 -0.8067 -0.0029
   7123SM   C3F 9305   4.936   0.536  13.506 -0.3435  0.3628  0.2848
   7123SM   H3F 9306   4.873   0.456  13.460 -1.8051  1.2837  0.6198
   7123SM   H3G 9307   5.027   0.485  13.545 -0.1704  1.7085  1.7161
   7123SM   C4F 9308   4.976   0.630  13.394  0.2266  0.0571 -0.5706
   7123SM   H4F 9309   5.044   0.699  13.449 -0.3073 -0.7016  1.1150
   7123SM   H4G 9310   4.887   0.691  13.366 -1.0006 -0.8381  1.1597
   7123SM   C5F 9311   5.047   0.573  13.267  0.8874 -0.0809 -0.6224
   7123SM   H5F 9312   4.984   0.488  13.232  0.7640  0.2509 -1.2212
   7123SM   H5G 9313   5.153   0.544  13.286  1.0415  1.1413  0.5331
   7123SM   C6F 9314   5.045   0.670  13.144 -0.4000  0.0497 -0.3897
   7123SM   H6F 9315   5.115   0.756  13.150 -3.1467  2.3801  0.3807
   7123SM   H6G 9316   4.938   0.698  13.133 -0.9272 -0.9443  1.6353
   7123SM   C7F 9317   5.074   0.586  13.019 -0.1317 -0.7363  0.2667
   7123SM   H7F 9318   4.998   0.507  13.002 -2.0227  1.0294  0.0880
   7123SM   H7G 9319   5.178   0.548  13.021  1.2577  2.5943 -0.7080
   7123SM   C8F 9320   5.078   0.673  12.885  0.2722  1.1739  0.8954
   7123SM   H8F 9321   5.164   0.744  12.891 -1.1818  3.1549 -0.2457
   7123SM   H8G 9322   4.990   0.739  12.870 -0.4793 -0.3393 -1.9068
   7123SM   C9F 9323   5.109   0.581  12.762  0.2822 -0.8022  0.0083
   7123SM   H9F 9324   5.026   0.508  12.747 -2.4941  1.9292  0.9282
   7123SM   H9G 9325   5.195   0.523  12.802  0.1828  0.7836  2.8042
   7123SM  C10F 9326   5.150   0.648  12.630  0.3440 -0.3204 -0.8286
   7123SM  H10F 9327   5.218   0.735  12.643 -0.9962  0.4023  2.0307
   7123SM  H10G 9328   5.053   0.693  12.600 -1.2968 -2.3120  1.2277
   7123SM  C11F 9329   5.210   0.552  12.529  0.5312 -0.2806 -0.1485
   7123SM  H11F 9330   5.127   0.480  12.510 -0.2355  0.0748  1.7002
   7123SM  H11G 9331   5.296   0.493  12.566  1.3735  0.7746 -0.3359
   7123SM  C12F 9332   5.252   0.612  12.395  0.0348  0.1656 -0.3378
   7123SM  H12F 9333   5.304   0.533  12.336 -0.9729  0.0840 -1.1386
   7123SM  H12G 9334   5.327   0.691  12.420  1.0554 -1.1570  0.9829
   7123SM  C13F 9335   5.144   0.686  12.316 -0.5349  0.5001  0.1307
   7123SM  H13F 9336   5.104   0.773  12.373  1.8925  0.9108  1.3338
   7123SM  H13G 9337   5.058   0.618  12.301 -0.6286  0.8629 -1.1338
   7123SM  C14F 9338   5.200   0.729  12.179  0.6351 -0.4945  0.5567
   7123SM  H14F 9339   5.219   0.637  12.119  2.3430 -0.3668  0.8417
   7123SM  H14G 9340   5.296   0.784  12.174 -0.4065  1.3225 -2.8777
   7123SM  C15F 9341   5.113   0.827  12.103 -0.3303 -0.1380 -0.0254
   7123SM  H15F 9342   5.104   0.927  12.149 -0.5283  0.6177 -1.6584
   7123SM  H15G 9343   5.011   0.783  12.094 -0.6861 -0.0529  2.8133
   7123SM  C16F 9344   5.180   0.854  11.964  0.3259 -0.1356 -0.6068
   7123SM  H16F 9345   5.175   0.761  11.903  0.1932 -0.9169  0.5619
   7123SM  H16G 9346   5.290   0.872  11.963 -0.0140  2.5008  0.6320
   7123SM  C17F 9347   5.096   0.961  11.889 -0.6968 -0.5516  0.2536
   7123SM  H17F 9348   5.076   1.053  11.948 -1.9250  1.0437 -2.4392
   7123SM  H17G 9349   4.997   0.915  11.870  0.2084 -1.7758 -1.8270
   7123SM  C18F 9350   5.163   1.002  11.748 -0.0532 -0.5722  0.8962
   7123SM  H18F 9351   5.176   0.913  11.682 -2.7097 -0.4684  0.0792
   7123SM  H18G 9352   5.267   1.032  11.770  0.1201 -1.3406  1.1643
   7123SM  C19F 9353   5.088   1.119  11.683  0.2746 -0.1296 -0.3945
   7123SM  H19F 9354   5.155   1.179  11.618  0.0274  0.8086  0.1968
   7123SM  H19G 9355   5.059   1.190  11.763  1.2355  0.0239 -0.1781
   7123SM  C20F 9356   4.947   1.078  11.622 -0.5895 -0.2834 -0.2347
   7123SM  H20F 9357   4.896   1.021  11.702 -0.3200  0.6802  0.6480
   7123SM  H20G 9358   4.964   1.014  11.533 -0.0914  0.9725 -1.0802
   7123SM  C21F 9359   4.854   1.198  11.589 -0.0667  0.3540 -0.3907
   7123SM  H21F 9360   4.901   1.257  11.508  0.1943 -0.2509 -0.6893
   7123SM  H21G 9361   4.855   1.257  11.683  2.4492 -3.5902  2.3466
   7123SM  C22F 9362   4.716   1.145  11.562 -0.2059 -0.6713 -0.4417
   7123SM  H22F 9363   4.666   1.244  11.564  2.0944  0.5544  1.3455
   7123SM  H22G 9364   4.680   1.098  11.656 -1.1933  2.3933  0.8250
   7123SM  C23F 9365   4.691   1.060  11.440  0.5274  0.3058  0.3201
   7123SM  H23F 9366   4.689   1.127  11.351 -0.2366 -0.8876 -0.6034
   7123SM  H23G 9367   4.591   1.017  11.461 -0.7562  3.5043  1.4843
   7123SM  H23H 9368   4.766   0.979  11.430 -0.4052 -0.7551  1.5644
   7223SM     N 9369   6.446   3.912  13.920  0.1468 -0.7227  0.1932
   7223SM   C15 9370   6.457   4.065  13.928  0.3123 -0.1655  0.7722
   7223SM  H15A 9371   6.363   4.107  13.895  0.3586 -1.1927 -0.7875
   7223SM  H15B 9372   6.535   4.101  13.863 -0.0699  1.6862  1.3033
   7223SM  H15C 9373   6.464   4.101  14.030 -0.2091  1.6994  0.1837
   7223SM   C14 9374   6.578   3.862  13.954  0.0590  0.4374 -0.4147
   7223SM  H14A 9375   6.653   3.874  13.878  0.9693  2.0303  0.6815
   7223SM  H14B 9376   6.585   3.754  13.955 -0.1419  0.4224 -0.7116
   7223SM  H14C 9377   6.614   3.898  14.049 -0.6884  3.8804 -1.3212
   7223SM   C13 9378   6.341   3.874  14.013 -0.0153  0.5128 -0.2552
   7223SM  H13A 9379   6.349   3.928  14.107  0.4923  0.8011 -0.4623
   7223SM  H13B 9380   6.353   3.769  14.036  1.6726  0.9585  1.1016
   7223SM  H13C 9381   6.242   3.899  13.978  1.2621  2.5470 -2.7741
   7223SM   C12 9382   6.416   3.876  13.773 -0.2032  0.5872 -0.2243
   7223SM  H12A 9383   6.356   3.954  13.728 -0.5987  0.1648 -0.4422
   7223SM  H12B 9384   6.358   3.785  13.776 -1.2837  1.2907  2.0366
   7223SM   C11 9385   6.532   3.846  13.679  0.2638 -0.4413  0.0949
   7223SM  H11A 9386   6.590   3.940  13.678 -2.2363  1.2255  1.6757
   7223SM  H11B 9387   6.486   3.836  13.578 -0.1301 -2.0270  0.3999
   7223SM     P 9388   6.565   3.589  13.664 -0.2966  0.4664 -0.0520
   7223SM   O13 9389   6.669   3.488  13.689  0.8175 -0.5634 -0.1420
   7223SM   O14 9390   6.432   3.573  13.728 -0.1220 -0.5759  0.5519
   7223SM   O11 9391   6.538   3.604  13.511 -0.1778  0.2170 -0.2970
   7223SM   O12 9392   6.617   3.730  13.710 -0.9151  0.3741  0.0426
   7223SM   C1S 9393   6.614   3.526  13.419  0.1434 -0.2841  0.9650
   7223SM   H1S 9394   6.583   3.420  13.430 -0.2624 -0.0303  2.4038
   7223SM   H1T 9395   6.724   3.543  13.428  0.3456 -0.9759 -0.0497
   7223SM    NF 9396   6.597   3.488  13.176 -0.1689 -0.4307  0.1765
   7223SM   HNF 9397   6.679   3.496  13.119 -0.7163  1.0361 -0.4578
   7223SM   C2S 9398   6.578   3.581  13.279 -0.3399  0.3884  0.0770
   7223SM   H2S 9399   6.468   3.594  13.275 -0.3030  0.6010 -2.9105
   7223SM   C3S 9400   6.652   3.712  13.248 -0.4805 -0.5355 -0.3246
   7223SM   H3S 9401   6.762   3.696  13.253 -0.2729  0.7904 -0.2769
   7223SM    O3 9402   6.636   3.816  13.351 -0.7045  0.6224  0.3800
   7223SM   HO3 9403   6.585   3.774  13.420  0.7553 -0.1836  1.0022
   7223SM   C4S 9404   6.616   3.776  13.119  0.0283  0.0462  0.2339
   7223SM   H4S 9405   6.510   3.779  13.089  0.6612  0.4959 -2.1850
   7223SM   C5S 9406   6.704   3.838  13.027 -0.0395  0.0724 -0.5224
   7223SM   H5S 9407   6.812   3.834  13.049 -0.2759  0.5552  0.8664
   7223SM   C6S 9408   6.650   3.903  12.903 -0.1210  0.2007 -0.5568
   7223SM   H6S 9409   6.691   4.006  12.904  0.6427 -0.0710 -1.5991
   7223SM   H6T 9410   6.539   3.908  12.901 -0.1134  0.6340 -0.0492
   7223SM   C7S 9411   6.700   3.828  12.774  0.0822 -0.1606  0.0779
   7223SM   H7S 9412   6.663   3.724  12.761  3.6890 -1.5864  0.2201
   7223SM   H7T 9413   6.810   3.834  12.784  0.0826  1.2439 -0.4847
   7223SM   C8S 9414   6.666   3.901  12.645 -0.0907  0.8602 -0.0572
   7223SM   H8S 9415   6.685   4.010  12.648  0.9328  0.6653  1.1862
   7223SM   H8T 9416   6.555   3.896  12.633 -0.0522  2.8678 -1.8713
   7223SM   C9S 9417   6.737   3.853  12.523 -0.5871 -0.2934 -0.5258
   7223SM   H9S 9418   6.719   3.744  12.506 -3.8346  0.1233 -0.3109
   7223SM   H9T 9419   6.848   3.857  12.532 -0.5571 -1.3819 -0.1926
   7223SM  C10S 9420   6.711   3.937  12.399 -0.3560  0.4594  0.1724
   7223SM  H10S 9421   6.760   4.036  12.402  0.6215 -0.0420  1.2476
   7223SM  H10T 9422   6.601   3.957  12.396 -0.1941  1.2476 -2.4055
   7223SM  C11S 9423   6.747   3.873  12.265 -0.0422 -0.3232 -1.1494
   7223SM  H11S 9424   6.679   3.785  12.254 -2.2206  1.3911 -2.0698
   7223SM  H11T 9425   6.852   3.837  12.265 -0.3242 -1.1851 -2.0187
   7223SM  C12S 9426   6.732   3.965  12.147  0.1479 -0.0730 -0.5600
   7223SM  H12S 9427   6.781   4.065  12.156  0.9576 -0.1531 -3.1952
   7223SM  H12T 9428   6.624   3.988  12.147  0.6063  2.4702  0.4928
   7223SM  C13S 9429   6.780   3.908  12.015  0.7495 -0.4788 -0.2808
   7223SM  H13S 9430   6.731   3.812  11.990 -0.6044  0.2540 -0.4913
   7223SM  H13T 9431   6.891   3.896  12.011  0.5684 -2.0457 -2.0185
   7223SM  C14S 9432   6.734   3.996  11.898  0.1928 -0.2180 -0.6363
   7223SM  H14S 9433   6.773   4.098  11.915 -0.1240 -0.4039  1.5264
   7223SM  H14T 9434   6.622   3.997  11.897  0.1675 -1.3124 -0.2638
   7223SM  C15S 9435   6.783   3.951  11.761  0.3343 -0.4796 -0.1654
   7223SM  H15S 9436   6.894   3.944  11.767  0.4158  0.8985  0.5046
   7223SM  H15T 9437   6.767   4.030  11.684  2.1903  1.5260  1.3564
   7223SM  C16S 9438   6.706   3.827  11.711  0.8973  0.2489  0.6038
   7223SM  H16S 9439   6.598   3.852  11.708  0.3910 -1.7750  0.0178
   7223SM  H16T 9440   6.710   3.736  11.774 -0.7177  0.4183  1.0030
   7223SM  C17S 9441   6.745   3.792  11.566 -0.1652 -0.7334 -0.1496
   7223SM  H17S 9442   6.851   3.766  11.549 -0.4500 -2.3674  0.3704
   7223SM  H17T 9443   6.725   3.872  11.492 -1.0501  0.3786  1.2321
   7223SM  C18S 9444   6.674   3.665  11.505  0.0446  0.0287  0.3390
   7223SM  H18S 9445   6.566   3.690  11.507  0.2208  0.7929  0.6223
   7223SM  H18T 9446   6.704   3.572  11.559  0.6500  0.6339  1.0538
   7223SM  H18U 9447   6.695   3.653  11.397 -1.8755  2.4397 -0.3894
   7223SM   C1F 9448   6.526   3.374  13.163  0.0591 -0.8069 -0.6954
   7223SM    OF 9449   6.426   3.365  13.227 -0.3270 -0.3661 -0.2466
   7223SM   C2F 9450   6.566   3.268  13.063 -0.4951  0.4791 -0.3204
   7223SM   H2F 9451   6.668   3.293  13.027  0.4911  0.9159  2.5445
   7223SM   H2G 9452   6.488   3.259  12.984  0.9289 -1.5197 -1.5974
   7223SM   C3F 9453   6.568   3.123  13.113 -0.0721  0.2568  0.1112
   7223SM   H3F 9454   6.468   3.095  13.152 -0.0289  0.3028  0.2593
   7223SM   H3G 9455   6.626   3.111  13.207 -0.7664 -2.1341  0.2799
   7223SM   C4F 9456   6.610   3.008  13.008  0.2783 -0.4377 -0.7250
   7223SM   H4F 9457   6.604   2.905  13.050 -0.2746 -0.1231  0.0021
   7223SM   H4G 9458   6.720   3.015  13.007  0.2636  0.1348  0.2893
   7223SM   C5F 9459   6.533   3.009  12.874 -0.7734 -0.2441  0.0864
   7223SM   H5F 9460   6.548   3.109  12.827 -0.0323 -1.2153 -1.8457
   7223SM   H5G 9461   6.424   2.994  12.890 -0.7660 -3.5928 -1.9939
   7223SM   C6F 9462   6.578   2.901  12.779 -0.6516 -0.0892  0.2961
   7223SM   H6F 9463   6.536   2.805  12.814 -0.9779  0.3120  1.0202
   7223SM   H6G 9464   6.688   2.895  12.794 -0.6080 -0.1695 -0.0435
   7223SM   C7F 9465   6.534   2.927  12.641 -0.6824 -0.7463  0.2669
   7223SM   H7F 9466   6.435   2.975  12.628 -0.2575  0.0036 -0.2522
   7223SM   H7G 9467   6.529   2.837  12.577  2.4015 -1.2224  0.5351
   7223SM   C8F 9468   6.636   3.017  12.569 -0.5631  0.4699  1.0826
   7223SM   H8F 9469   6.738   2.983  12.596 -1.2790 -1.3708  1.6132
   7223SM   H8G 9470   6.636   3.125  12.594  1.6990  0.9748 -0.7795
   7223SM   C9F 9471   6.621   3.011  12.414  0.5628  1.1488 -0.1786
   7223SM   H9F 9472   6.606   2.905  12.386  0.1330  1.4771 -1.2393
   7223SM   H9G 9473   6.718   3.033  12.364  2.1545 -1.3493  1.5868
   7223SM  C10F 9474   6.493   3.076  12.362 -0.1274 -0.7732  0.9840
   7223SM  H10F 9475   6.484   3.184  12.386  0.4173  0.0278 -2.0613
   7223SM  H10G 9476   6.407   3.025  12.410  0.0246 -0.3880  1.6916
   7223SM  C11F 9477   6.473   3.065  12.205  0.1601 -0.1880 -0.6394
   7223SM  H11F 9478   6.567   3.095  12.154  0.3289 -0.3603 -0.4341
   7223SM  H11G 9479   6.402   3.147  12.183 -1.1086 -1.1932 -0.4172
   7223SM  C12F 9480   6.427   2.923  12.170 -0.5251 -0.1416  0.2390
   7223SM  H12F 9481   6.336   2.898  12.229 -0.8126  3.6022  1.6539
   7223SM  H12G 9482   6.510   2.850  12.180 -2.1659 -2.2431 -0.6474
   7223SM  C13F 9483   6.369   2.913  12.027  0.1152 -0.5265  0.1485
   7223SM  H13F 9484   6.325   3.014  12.015  1.1272 -0.3549 -2.8053
   7223SM  H13G 9485   6.293   2.831  12.030 -0.3953 -0.0512  0.4822
   7223SM  C14F 9486   6.475   2.894  11.916  0.3794  0.3652  0.2593
   7223SM  H14F 9487   6.547   2.811  11.926  2.7542  2.2582 -0.2643
   7223SM  H14G 9488   6.528   2.992  11.917 -0.5137  0.9366 -1.9232
   7223SM  C15F 9489   6.401   2.855  11.783  0.4403 -0.0722  0.0446
   7223SM  H15F 9490   6.330   2.940  11.779  0.5667  0.1291  1.5484
   7223SM  H15G 9491   6.345   2.762  11.808  0.2551 -0.1838 -0.7562
   7223SM  C16F 9492   6.489   2.837  11.671 -0.5617 -0.4282  0.2766
   7223SM  H16F 9493   6.563   2.757  11.689  0.3522  0.6681  1.5418
   7223SM  H16G 9494   6.548   2.931  11.671 -2.7936  1.1270  3.0757
   7223SM  C17F 9495   6.423   2.803  11.541 -0.4426  0.3864 -0.7462
   7223SM  H17F 9496   6.351   2.878  11.501 -3.0757 -1.2756  0.6405
   7223SM  H17G 9497   6.369   2.706  11.543 -0.6889  0.5346  0.0791
   7223SM  C18F 9498   6.520   2.785  11.430 -0.1528  0.1409  0.0665
   7223SM  H18F 9499   6.614   2.748  11.476 -0.0619  0.8637  0.4874
   7223SM  H18G 9500   6.537   2.890  11.396 -0.4596  0.9510  2.2193
   7223SM  C19F 9501   6.478   2.698  11.313  0.6377  0.0710 -0.5875
   7223SM  H19F 9502   6.375   2.729  11.284  0.8662  0.8120 -0.6222
   7223SM  H19G 9503   6.493   2.591  11.341  0.0277 -0.1246 -0.9640
   7223SM  C20F 9504   6.565   2.720  11.187 -0.3044  0.5813 -0.8700
   7223SM  H20F 9505   6.547   2.634  11.119  2.3240 -1.1213  0.4262
   7223SM  H20G 9506   6.672   2.713  11.215 -0.8257  0.4583  1.3035
   7223SM  C21F 9507   6.548   2.864  11.122 -0.2763  0.2289  0.1656
   7223SM  H21F 9508   6.557   2.954  11.188 -1.2148 -0.9662  2.0205
   7223SM  H21G 9509   6.441   2.867  11.093 -0.1993  0.5620 -0.0936
   7223SM  C22F 9510   6.649   2.886  11.016 -0.3049  0.3455  0.9857
   7223SM  H22F 9511   6.629   2.819  10.930  0.2110  2.1707 -0.6204
   7223SM  H22G 9512   6.755   2.866  11.044  1.4094  2.0416 -3.4247
   7223SM  C23F 9513   6.643   3.020  10.964 -0.0084 -0.3695 -0.2811
   7223SM  H23F 9514   6.542   3.043  10.923  0.3536  1.8741 -0.0447
   7223SM  H23G 9515   6.728   3.040  10.895  2.0947  3.0077  2.8890
   7223SM  H23H 9516   6.648   3.103  11.038 -1.4219  0.3651 -0.9607
   7323SM     N 9517   5.816   1.950  14.082  0.9310 -0.0459 -0.5658
   7323SM   C15 9518   5.857   2.081  14.039 -0.7266 -0.4316  0.1677
   7323SM  H15A 9519   5.961   2.079  14.012 -0.7150  2.6963 -0.3267
   7323SM  H15B 9520   5.849   2.155  14.117  1.2792 -0.5331  0.5066
   7323SM  H15C 9521   5.796   2.119  13.958  0.6480 -1.9261 -1.6671
   7323SM   C14 9522   5.918   1.916  14.194  0.0145 -1.0800  0.3227
   7323SM  H14A 9523   5.921   2.003  14.258 -0.7619 -0.6973 -0.1556
   7323SM  H14B 9524   6.017   1.901  14.154  0.8863  0.6048  1.6790
   7323SM  H14C 9525   5.894   1.826  14.249  1.5211 -0.7801  1.5673
   7323SM   C13 9526   5.680   1.950  14.137  0.5841  0.5601 -0.3798
   7323SM  H13A 9527   5.604   1.983  14.068  1.3347  2.3623 -0.4245
   7323SM  H13B 9528   5.674   2.013  14.225 -0.4578 -1.3386  0.9619
   7323SM  H13C 9529   5.656   1.851  14.170  1.6471  0.0523 -1.0729
   7323SM   C12 9530   5.821   1.860  13.962  0.1007  0.4603  0.5169
   7323SM  H12A 9531   5.887   1.897  13.884 -2.1212  0.1261 -1.6261
   7323SM  H12B 9532   5.725   1.873  13.914  0.1409  1.3102  0.6484
   7323SM   C11 9533   5.846   1.710  13.979 -0.5293  0.1421 -0.4523
   7323SM  H11A 9534   5.939   1.713  14.041  0.8803 -0.0670 -2.4537
   7323SM  H11B 9535   5.874   1.663  13.882 -0.7717  1.1494 -1.0218
   7323SM     P 9536   5.605   1.605  13.987 -0.1962  0.5274  0.0355
   7323SM   O13 9537   5.537   1.512  14.078 -0.4972 -0.0448  0.3081
   7323SM   O14 9538   5.525   1.712  13.933 -0.2352 -1.2983  0.0437
   7323SM   O11 9539   5.669   1.506  13.880 -0.4866 -0.4105  0.0164
   7323SM   O12 9540   5.742   1.646  14.055  0.6508  0.6211  0.4694
   7323SM   C1S 9541   5.606   1.433  13.776  0.9479 -1.1282  0.7729
   7323SM   H1S 9542   5.497   1.456  13.776  1.1952  0.1507  1.2268
   7323SM   H1T 9543   5.617   1.325  13.795  0.2695 -1.2756  0.3770
   7323SM    NF 9544   5.566   1.436  13.536  0.0069  0.2057 -0.4505
   7323SM   HNF 9545   5.583   1.352  13.485  2.3656  0.2566  0.1012
   7323SM   C2S 9546   5.663   1.474  13.636 -0.0683 -0.3110  0.4824
   7323SM   H2S 9547   5.665   1.585  13.630 -0.7075 -0.3794 -1.5760
   7323SM   C3S 9548   5.811   1.415  13.618 -0.4682  0.3542 -0.8170
   7323SM   H3S 9549   5.800   1.307  13.643 -1.1161  0.7325  0.6541
   7323SM    O3 9550   5.904   1.458  13.715  0.0392 -0.5064 -0.2611
   7323SM   HO3 9551   5.846   1.495  13.782 -0.5998 -0.2293 -0.9572
   7323SM   C4S 9552   5.865   1.429  13.477 -0.1572 -0.0702 -0.0999
   7323SM   H4S 9553   5.839   1.342  13.414  1.6707  0.1511 -1.2085
   7323SM   C5S 9554   5.937   1.534  13.427 -0.3825 -0.7488 -0.1018
   7323SM   H5S 9555   5.975   1.608  13.499  1.1853  0.3252 -1.9617
   7323SM   C6S 9556   5.989   1.554  13.286  0.0255 -0.1295 -0.2600
   7323SM   H6S 9557   6.077   1.487  13.279 -1.1707 -1.8667  0.6344
   7323SM   H6T 9558   6.019   1.661  13.281 -1.9316  0.5843  1.5975
   7323SM   C7S 9559   5.887   1.518  13.175  0.3053 -0.0363 -0.1873
   7323SM   H7S 9560   5.788   1.549  13.213  1.8611  3.2538  1.5790
   7323SM   H7T 9561   5.880   1.408  13.159  0.1248 -0.4289  2.1595
   7323SM   C8S 9562   5.907   1.596  13.043 -0.2904  0.0308 -0.6838
   7323SM   H8S 9563   5.936   1.702  13.063  0.3068 -0.2414 -0.0583
   7323SM   H8T 9564   5.807   1.604  12.995 -0.1145  2.4549 -0.7942
   7323SM   C9S 9565   6.007   1.548  12.938  0.6181  0.0385  0.2530
   7323SM   H9S 9566   5.972   1.445  12.913  1.6999 -0.4322  0.6170
   7323SM   H9T 9567   6.111   1.537  12.975  0.3860  0.4423  1.0379
   7323SM  C10S 9568   6.025   1.636  12.813 -0.7183 -0.6484  0.4527
   7323SM  H10S 9569   6.084   1.725  12.843 -0.6271 -1.1715  1.9120
   7323SM  H10T 9570   5.927   1.659  12.765 -0.4591 -1.4040 -0.4712
   7323SM  C11S 9571   6.123   1.561  12.718 -0.5803 -0.3844  0.7589
   7323SM  H11S 9572   6.085   1.457  12.730  0.9227 -1.1268 -0.4132
   7323SM  H11T 9573   6.223   1.566  12.766 -0.5938 -1.5293  0.9482
   7323SM  C12S 9574   6.123   1.626  12.580 -0.0757  0.4645  0.5169
   7323SM  H12S 9575   6.178   1.721  12.595 -0.5591  0.7099  0.7617
   7323SM  H12T 9576   6.020   1.662  12.562  0.4301  4.2774  3.9262
   7323SM  C13S 9577   6.179   1.542  12.465  0.4951  0.2054  0.5427
   7323SM  H13S 9578   6.124   1.446  12.456  2.1808 -0.7419 -0.3691
   7323SM  H13T 9579   6.283   1.515  12.494  0.2912  0.2948  1.3711
   7323SM  C14S 9580   6.170   1.623  12.332  0.5308 -0.0579 -0.3876
   7323SM  H14S 9581   6.220   1.722  12.343  1.8429 -0.6831 -0.4406
   7323SM  H14T 9582   6.062   1.643  12.316 -0.0421 -2.7575 -0.4035
   7323SM  C15S 9583   6.228   1.550  12.208 -0.2604 -0.1125 -0.6662
   7323SM  H15S 9584   6.171   1.455  12.194 -0.4249 -0.0847 -0.1937
   7323SM  H15T 9585   6.337   1.532  12.221 -0.4118  0.7055  2.5414
   7323SM  C16S 9586   6.203   1.625  12.077  0.5570 -0.4449  0.1884
   7323SM  H16S 9587   6.253   1.724  12.080 -0.5100  0.2335 -2.2020
   7323SM  H16T 9588   6.095   1.648  12.063  0.1860  0.2884  3.4289
   7323SM  C17S 9589   6.262   1.553  11.963  0.0395 -0.6292 -0.3215
   7323SM  H17S 9590   6.250   1.443  11.961 -0.6267 -0.5455 -1.5387
   7323SM  H17T 9591   6.370   1.579  11.971 -0.4356  1.2259  0.9738
   7323SM  C18S 9592   6.227   1.605  11.827 -0.4906 -0.4657  0.4960
   7323SM  H18S 9593   6.303   1.584  11.749  1.1799  0.3847  1.8560
   7323SM  H18T 9594   6.213   1.716  11.825 -0.6737 -0.4919 -0.3347
   7323SM  H18U 9595   6.135   1.560  11.783 -1.3041  0.3709  1.2791
   7323SM   C1F 9596   5.445   1.509  13.522 -0.2204 -0.6855 -0.3197
   7323SM    OF 9597   5.425   1.620  13.570  0.6417 -0.1795 -0.6216
   7323SM   C2F 9598   5.331   1.450  13.440  0.5090 -0.4059 -0.1579
   7323SM   H2F 9599   5.233   1.473  13.486 -0.6926 -3.5864 -0.8874
   7323SM   H2G 9600   5.339   1.339  13.439 -0.9791 -0.5384 -2.4002
   7323SM   C3F 9601   5.342   1.504  13.298  0.1026 -0.1360 -0.7288
   7323SM   H3F 9602   5.366   1.611  13.286  1.0859 -0.1979  0.4528
   7323SM   H3G 9603   5.242   1.488  13.251  0.5466 -1.0328 -1.4053
   7323SM   C4F 9604   5.435   1.431  13.199  0.2049  0.0707 -0.2406
   7323SM   H4F 9605   5.433   1.320  13.203 -0.7568  0.0782 -0.2631
   7323SM   H4G 9606   5.541   1.459  13.215  0.5762 -1.2505 -0.2308
   7323SM   C5F 9607   5.410   1.474  13.056  0.1230 -0.4328  0.2805
   7323SM   H5F 9608   5.423   1.584  13.043 -0.3836 -0.2736  1.0373
   7323SM   H5G 9609   5.307   1.455  13.020  0.4747 -0.5818 -0.6729
   7323SM   C6F 9610   5.511   1.411  12.966 -0.1574 -0.4843  0.2259
   7323SM   H6F 9611   5.497   1.302  12.976  1.9192 -0.8124 -0.1816
   7323SM   H6G 9612   5.613   1.430  13.005  0.1047 -1.6672  0.1387
   7323SM   C7F 9613   5.495   1.464  12.817  0.2583  0.5652 -0.4806
   7323SM   H7F 9614   5.484   1.574  12.816 -0.3142  0.5760  1.5163
   7323SM   H7G 9615   5.407   1.420  12.766  1.5897 -0.8827 -1.6189
   7323SM   C8F 9616   5.616   1.423  12.741 -0.0733  0.0537  0.0645
   7323SM   H8F 9617   5.637   1.316  12.759  1.2509  0.5283  1.5660
   7323SM   H8G 9618   5.708   1.475  12.776  0.5875 -0.3034 -1.0683
   7323SM   C9F 9619   5.605   1.452  12.585  0.2346  0.4058 -0.7746
   7323SM   H9F 9620   5.623   1.561  12.576 -0.4006  0.6401  0.4983
   7323SM   H9G 9621   5.513   1.416  12.534  0.0528  1.9049 -1.5458
   7323SM  C10F 9622   5.721   1.382  12.514  0.2287  0.3788 -0.2346
   7323SM  H10F 9623   5.726   1.275  12.546 -2.9746 -0.3523 -1.7904
   7323SM  H10G 9624   5.816   1.415  12.562  1.9195 -2.7196 -1.1874
   7323SM  C11F 9625   5.728   1.400  12.363  0.5247 -0.7871 -0.2149
   7323SM  H11F 9626   5.732   1.507  12.333  2.3982 -0.8150 -0.2167
   7323SM  H11G 9627   5.637   1.366  12.308  0.9552  1.6250 -2.6559
   7323SM  C12F 9628   5.850   1.341  12.301  0.1319 -0.2422  0.3774
   7323SM  H12F 9629   5.837   1.231  12.292 -1.0708 -0.0735 -0.0711
   7323SM  H12G 9630   5.939   1.354  12.367  0.4675  1.3250 -0.3329
   7323SM  C13F 9631   5.883   1.394  12.165 -0.3523  1.0225  0.4572
   7323SM  H13F 9632   5.989   1.370  12.142 -0.6940  0.9570 -1.1312
   7323SM  H13G 9633   5.875   1.505  12.168  0.3816  1.0741  1.2336
   7323SM  C14F 9634   5.801   1.341  12.056 -0.5213  0.1521  0.1974
   7323SM  H14F 9635   5.697   1.372  12.080 -1.8097 -3.0308 -0.7915
   7323SM  H14G 9636   5.792   1.230  12.064 -1.5687  0.3076  1.6955
   7323SM  C15F 9637   5.856   1.373  11.917  0.0643 -0.2073 -0.3934
   7323SM  H15F 9638   5.959   1.332  11.921 -0.2037 -0.8919 -0.3586
   7323SM  H15G 9639   5.870   1.482  11.902 -0.8914 -0.2034 -1.4187
   7323SM  C16F 9640   5.774   1.312  11.806 -0.1460  0.3361 -0.4461
   7323SM  H16F 9641   5.665   1.335  11.807  0.1290  1.7465 -0.4288
   7323SM  H16G 9642   5.792   1.203  11.817 -2.6024 -0.0069  1.0827
   7323SM  C17F 9643   5.819   1.361  11.666  0.0857 -0.4455 -0.0308
   7323SM  H17F 9644   5.789   1.290  11.587  0.6280  0.4601 -1.0696
   7323SM  H17G 9645   5.930   1.367  11.665  0.0982 -0.6721 -1.5456
   7323SM  C18F 9646   5.761   1.498  11.618  0.6685  0.0087 -0.2331
   7323SM  H18F 9647   5.766   1.575  11.698  0.3197 -0.3594  0.1487
   7323SM  H18G 9648   5.655   1.471  11.599  0.3086  2.0583 -1.4951
   7323SM  C19F 9649   5.825   1.537  11.484  0.7739  0.2243  0.0714
   7323SM  H19F 9650   5.820   1.454  11.410 -0.7171 -1.5782  2.0449
   7323SM  H19G 9651   5.932   1.563  11.494  0.7954  0.9609 -1.8076
   7323SM  C20F 9652   5.758   1.652  11.404  0.4000  0.2007 -0.3450
   7323SM  H20F 9653   5.754   1.748  11.460 -1.6378  0.3708 -0.6979
   7323SM  H20G 9654   5.653   1.619  11.385  0.2913 -0.8027  1.6634
   7323SM  C21F 9655   5.824   1.677  11.265 -0.5958  0.6398 -0.5062
   7323SM  H21F 9656   5.815   1.582  11.208  1.8351 -0.3223  0.5687
   7323SM  H21G 9657   5.933   1.689  11.283 -0.5123  0.0996 -0.6242
   7323SM  C22F 9658   5.770   1.787  11.179  0.1504 -0.0729 -0.2380
   7323SM  H22F 9659   5.667   1.779  11.138 -0.5388  3.5271  0.4477
   7323SM  H22G 9660   5.832   1.794  11.087 -0.5971  0.9697 -0.6715
   7323SM  C23F 9661   5.775   1.928  11.240  0.1375  0.1911  1.2308
   7323SM  H23F 9662   5.744   2.000  11.161 -0.0970  1.1161  2.1457
   7323SM  H23G 9663   5.880   1.955  11.265  0.3653 -0.3430  0.8772
   7323SM  H23H 9664   5.708   1.930  11.328  0.6931  2.7620  1.6736
   7423SM     N 9665   1.472   4.615  14.009 -0.4997 -0.8680  0.5784
   7423SM   C15 9666   1.609   4.677  14.013 -0.1161 -0.1412 -0.2273
   7423SM  H15A 9667   1.657   4.669  13.917 -2.3906 -0.3609 -1.4048
   7423SM  H15B 9668   1.667   4.627  14.090 -0.1782 -0.6662 -0.5175
   7423SM  H15C 9669   1.605   4.783  14.033 -1.7415 -0.5354  1.9199
   7423SM   C14 9670   1.492   4.467  13.987  0.7218 -0.7658 -0.6046
   7423SM  H14A 9671   1.559   4.418  14.056 -0.3628 -1.3020  0.0991
   7423SM  H14B 9672   1.517   4.450  13.883  0.4220  1.2188 -1.0466
   7423SM  H14C 9673   1.401   4.410  14.001  1.9570 -2.8585 -0.5892
   7423SM   C13 9674   1.415   4.637  14.142 -0.1649 -0.7251  0.0144
   7423SM  H13A 9675   1.480   4.587  14.212 -1.0975 -0.5917  0.9985
   7423SM  H13B 9676   1.322   4.585  14.159  1.1719 -3.2367  0.0556
   7423SM  H13C 9677   1.410   4.742  14.169  2.0570 -1.0787  2.1882
   7423SM   C12 9678   1.381   4.671  13.895 -0.1099  0.5206 -0.0098
   7423SM  H12A 9679   1.348   4.771  13.919  1.2628  0.5262  2.1829
   7423SM  H12B 9680   1.289   4.614  13.900  1.0034 -1.6461 -2.0508
   7423SM   C11 9681   1.436   4.665  13.751  0.4957  0.4226  0.2934
   7423SM  H11A 9682   1.346   4.674  13.687  0.8460  0.8438 -0.1525
   7423SM  H11B 9683   1.477   4.566  13.723  0.8215  0.7511 -0.4223
   7423SM     P 9684   1.505   4.914  13.719 -0.0490 -0.0525 -0.4595
   7423SM   O13 9685   1.442   4.966  13.844  0.0993 -0.1007  0.0860
   7423SM   O14 9686   1.624   4.989  13.672 -0.0185 -0.7135  0.2358
   7423SM   O11 9687   1.400   4.916  13.604 -0.2576 -0.0023  0.1423
   7423SM   O12 9688   1.540   4.761  13.731  0.1631  0.1753  0.1819
   7423SM   C1S 9689   1.425   4.871  13.469  0.8528 -0.2564 -0.3857
   7423SM   H1S 9690   1.449   4.762  13.463 -2.5426 -1.0918 -1.0915
   7423SM   H1T 9691   1.505   4.937  13.429  1.6378  0.2195  1.8827
   7423SM    NF 9692   1.359   4.873  13.236  0.2910 -0.3132  0.2932
   7423SM   HNF 9693   1.355   4.952  13.175 -1.9980 -0.5110  0.0860
   7423SM   C2S 9694   1.305   4.895  13.363  0.5393 -0.1989 -0.9552
   7423SM   H2S 9695   1.225   4.819  13.380  2.8453 -2.6006 -0.2616
   7423SM   C3S 9696   1.233   5.033  13.396  0.3273  0.1170 -0.1950
   7423SM   H3S 9697   1.311   5.111  13.391 -0.2061  0.7920  1.3706
   7423SM    O3 9698   1.189   5.040  13.532 -0.7118 -0.1637  0.9487
   7423SM   HO3 9699   1.241   4.967  13.566 -2.5537 -0.8978  2.3865
   7423SM   C4S 9700   1.126   5.070  13.296  0.6750 -0.2505 -0.0564
   7423SM   H4S 9701   1.163   5.137  13.217 -1.2321  0.3258 -0.5089
   7423SM   C5S 9702   0.999   5.032  13.307 -0.2780 -0.6087 -0.7245
   7423SM   H5S 9703   0.968   4.963  13.387 -2.5728  0.5154 -0.5504
   7423SM   C6S 9704   0.899   5.063  13.200  0.2087  0.1443 -0.0001
   7423SM   H6S 9705   0.919   5.159  13.148 -0.7373  0.5895  0.4436
   7423SM   H6T 9706   0.793   5.079  13.229 -0.3761  0.5946 -2.1446
   7423SM   C7S 9707   0.902   4.955  13.090  0.6036 -0.7955  0.0824
   7423SM   H7S 9708   0.861   4.861  13.134 -1.2594 -0.5875 -1.0632
   7423SM   H7T 9709   1.003   4.929  13.052  0.9771 -1.6931  1.5694
   7423SM   C8S 9710   0.818   4.983  12.962 -0.2152 -0.3499 -0.8713
   7423SM   H8S 9711   0.832   5.089  12.930  1.4778 -0.4132 -0.4485
   7423SM   H8T 9712   0.711   4.970  12.989 -0.2862 -0.6204 -1.2798
   7423SM   C9S 9713   0.838   4.879  12.847  0.6113  0.1224 -0.0778
   7423SM   H9S 9714   0.806   4.782  12.891 -0.4862  0.2436 -0.5858
   7423SM   H9T 9715   0.948   4.874  12.831  0.4963  2.3221 -2.0631
   7423SM  C10S 9716   0.764   4.925  12.720 -0.2695 -0.7674  0.4763
   7423SM  H10S 9717   0.771   5.035  12.707 -0.4972 -0.6037  1.6400
   7423SM  H10T 9718   0.657   4.909  12.741 -0.9910  0.1195 -2.0884
   7423SM  C11S 9719   0.813   4.849  12.599 -0.2023  0.1061  0.3781
   7423SM  H11S 9720   0.778   4.744  12.596 -2.2116  0.6883  1.6499
   7423SM  H11T 9721   0.924   4.842  12.596 -0.1391  1.1344 -1.1528
   7423SM  C12S 9722   0.779   4.922  12.463  0.6225 -0.2842  0.3065
   7423SM  H12S 9723   0.811   5.028  12.474 -0.9518  0.0960  1.8181
   7423SM  H12T 9724   0.668   4.921  12.459  0.4582  0.1569  2.8858
   7423SM  C13S 9725   0.838   4.864  12.339 -0.0534  0.5757 -0.6398
   7423SM  H13S 9726   0.812   4.756  12.329 -0.4708  0.7168 -1.0819
   7423SM  H13T 9727   0.949   4.866  12.344 -0.0757  1.2785 -0.2890
   7423SM  C14S 9728   0.783   4.930  12.218  0.4461 -0.3667  0.1175
   7423SM  H14S 9729   0.834   5.028  12.202  1.1257 -0.7357  0.0061
   7423SM  H14T 9730   0.673   4.941  12.222  0.6471  3.0427 -0.6634
   7423SM  C15S 9731   0.802   4.857  12.083  0.2916 -0.2680  0.2326
   7423SM  H15S 9732   0.748   4.912  12.003  1.8805  0.5165 -0.3317
   7423SM  H15T 9733   0.760   4.756  12.103  1.0067 -0.0584  3.2436
   7423SM  C16S 9734   0.949   4.845  12.037 -0.1328  0.1464 -0.1473
   7423SM  H16S 9735   1.011   4.811  12.122  0.4670  1.6903  0.0617
   7423SM  H16T 9736   0.977   4.952  12.020 -0.9201 -0.0620 -3.6380
   7423SM  C17S 9737   0.965   4.760  11.905 -0.5011 -0.3825 -0.6241
   7423SM  H17S 9738   0.910   4.813  11.824  1.6227  1.0165 -1.2269
   7423SM  H17T 9739   0.926   4.657  11.917  1.2939 -0.9805  0.2679
   7423SM  C18S 9740   1.116   4.745  11.874 -0.7831 -0.4365  0.6120
   7423SM  H18S 9741   1.163   4.703  11.966  0.7118  0.6906  0.4054
   7423SM  H18T 9742   1.167   4.841  11.851  1.0238 -1.6426 -0.6617
   7423SM  H18U 9743   1.137   4.695  11.778 -0.6006  2.7854 -1.1775
   7423SM   C1F 9744   1.397   4.750  13.197 -0.1900  0.3936 -0.0078
   7423SM    OF 9745   1.383   4.650  13.269  0.4934 -0.4097 -0.3636
   7423SM   C2F 9746   1.448   4.737  13.058 -0.1804  0.2991  0.3069
   7423SM   H2F 9747   1.513   4.823  13.034 -0.3982  0.4281  0.1756
   7423SM   H2G 9748   1.361   4.721  12.990 -0.4507  2.0007  0.2071
   7423SM   C3F 9749   1.540   4.609  13.046  0.2214 -0.5189  0.9186
   7423SM   H3F 9750   1.466   4.526  13.055  1.1326 -1.3074  1.2710
   7423SM   H3G 9751   1.612   4.597  13.129  0.2785 -1.9501  0.6799
   7423SM   C4F 9752   1.598   4.587  12.901 -0.4977  0.1517 -0.6878
   7423SM   H4F 9753   1.513   4.592  12.830  1.4259 -1.3308 -3.2464
   7423SM   H4G 9754   1.646   4.488  12.885 -1.5204 -0.2224 -1.4882
   7423SM   C5F 9755   1.693   4.694  12.853  0.0932  0.0012 -0.1079
   7423SM   H5F 9756   1.786   4.684  12.913 -1.2444 -0.6391  1.9742
   7423SM   H5G 9757   1.650   4.792  12.883 -2.7986 -1.1808 -0.0883
   7423SM   C6F 9758   1.721   4.688  12.698  0.6265 -1.0152  0.1930
   7423SM   H6F 9759   1.731   4.580  12.674  1.0178 -1.1789  1.0461
   7423SM   H6G 9760   1.817   4.739  12.673 -0.0034  0.1730  0.1316
   7423SM   C7F 9761   1.612   4.759  12.611  0.1418 -0.3224 -0.2509
   7423SM   H7F 9762   1.627   4.866  12.637  3.5970 -1.1539  1.6965
   7423SM   H7G 9763   1.507   4.738  12.641 -1.4380  2.5499 -3.1054
   7423SM   C8F 9764   1.642   4.723  12.468 -0.4532 -0.0290 -0.3055
   7423SM   H8F 9765   1.618   4.615  12.460  0.2365 -0.2702  0.6898
   7423SM   H8G 9766   1.752   4.739  12.458 -0.3205 -0.2262  0.7489
   7423SM   C9F 9767   1.582   4.803  12.352 -0.3057 -0.1269 -0.1263
   7423SM   H9F 9768   1.603   4.911  12.368 -0.7229 -0.3888  2.7318
   7423SM   H9G 9769   1.472   4.788  12.354 -0.5481  1.0141 -2.1312
   7423SM  C10F 9770   1.624   4.758  12.211 -0.1041 -0.0291  0.1571
   7423SM  H10F 9771   1.633   4.648  12.212  1.5018  0.0363 -1.5714
   7423SM  H10G 9772   1.721   4.806  12.185 -0.2751  0.2902  0.1017
   7423SM  C11F 9773   1.526   4.799  12.100 -0.2032 -0.8870 -1.1433
   7423SM  H11F 9774   1.537   4.910  12.104 -0.4906 -0.8493 -1.3584
   7423SM  H11G 9775   1.424   4.770  12.132  0.0393  1.3756  2.1515
   7423SM  C12F 9776   1.562   4.751  11.955  0.0067 -0.2440  0.4979
   7423SM  H12F 9777   1.507   4.817  11.884 -1.5273 -1.7773  0.2072
   7423SM  H12G 9778   1.521   4.648  11.948  0.0713 -0.2772  0.6148
   7423SM  C13F 9779   1.706   4.735  11.908 -0.2831 -0.4027  0.2635
   7423SM  H13F 9780   1.755   4.645  11.949  2.0997  0.7787  0.1666
   7423SM  H13G 9781   1.765   4.820  11.948  0.0805 -0.9588  0.9240
   7423SM  C14F 9782   1.728   4.724  11.755  0.8430  0.2703  0.0010
   7423SM  H14F 9783   1.711   4.616  11.733 -0.2414  0.1391  1.3731
   7423SM  H14G 9784   1.835   4.739  11.731  0.7562  0.1669 -0.4616
   7423SM  C15F 9785   1.637   4.814  11.667  0.9010  0.3698 -0.0881
   7423SM  H15F 9786   1.657   4.920  11.694 -1.3826  0.8073  0.1462
   7423SM  H15G 9787   1.528   4.790  11.667  1.1962 -1.2897  1.8303
   7423SM  C16F 9788   1.677   4.808  11.518  0.1052  0.8348 -0.0249
   7423SM  H16F 9789   1.718   4.709  11.490 -0.5455  0.8178 -0.9496
   7423SM  H16G 9790   1.753   4.886  11.497  0.7150  0.7038  1.5766
   7423SM  C17F 9791   1.554   4.826  11.432  0.0685  0.0831  0.3940
   7423SM  H17F 9792   1.469   4.775  11.484 -0.4316  0.4773 -0.0366
   7423SM  H17G 9793   1.573   4.770  11.338  2.9334  2.2733 -0.4640
   7423SM  C18F 9794   1.515   4.972  11.403  0.2495  1.0113 -0.0283
   7423SM  H18F 9795   1.596   5.019  11.343  1.0341 -1.8992 -1.3902
   7423SM  H18G 9796   1.512   5.024  11.501 -0.6820  1.9104 -0.5071
   7423SM  C19F 9797   1.391   4.973  11.318  0.1811 -0.2931  0.4494
   7423SM  H19F 9798   1.400   4.896  11.239  2.9687  0.5230 -0.1575
   7423SM  H19G 9799   1.396   5.067  11.259 -0.9639 -1.2494 -1.2318
   7423SM  C20F 9800   1.251   4.960  11.388 -0.0131  0.6215  0.1424
   7423SM  H20F 9801   1.247   4.854  11.420 -0.7035  0.5471 -0.1581
   7423SM  H20G 9802   1.174   4.983  11.312  0.1147 -0.6790 -0.4083
   7423SM  C21F 9803   1.231   5.050  11.510  0.3983 -0.2209 -0.7967
   7423SM  H21F 9804   1.234   5.154  11.472 -0.4868  0.2374  0.3386
   7423SM  H21G 9805   1.308   5.043  11.590 -0.5991  1.5900  0.3830
   7423SM  C22F 9806   1.095   5.009  11.574  0.1229  0.3931 -0.8282
   7423SM  H22F 9807   1.098   5.060  11.673  1.1769 -0.0587 -0.6184
   7423SM  H22G 9808   1.094   4.902  11.605 -0.0535  1.1770  2.1773
   7423SM  C23F 9809   0.963   5.045  11.495  0.1402 -0.2530 -0.2809
   7423SM  H23F 9810   0.872   5.041  11.559  1.0811  3.1168  1.5455
   7423SM  H23G 9811   0.945   5.002  11.394  0.7828 -2.2025  0.4003
   7423SM  H23H 9812   0.961   5.153  11.466 -3.1633 -0.3971 -0.9630
   7523SM     N 9813   0.529   6.086  14.459  0.0481 -0.0790 -0.0125
   7523SM   C15 9814   0.623   6.156  14.555 -0.0212 -0.2332 -0.1361
   7523SM  H15A 9815   0.602   6.114  14.652  0.6683  0.6308  0.4076
   7523SM  H15B 9816   0.600   6.260  14.577  0.9229 -0.0641  0.1123
   7523SM  H15C 9817   0.725   6.132  14.530  0.9490  2.0957  1.2442
   7523SM   C14 9818   0.539   5.934  14.465 -0.7525 -0.1032 -0.2678
   7523SM  H14A 9819   0.640   5.911  14.435 -0.4844 -0.2988  0.7395
   7523SM  H14B 9820   0.478   5.891  14.386  0.8117 -1.3917 -0.8424
   7523SM  H14C 9821   0.515   5.902  14.565 -0.5183  2.5981  0.7251
   7523SM   C13 9822   0.393   6.121  14.511  0.2343 -0.0739 -0.5218
   7523SM  H13A 9823   0.309   6.088  14.452  0.0141 -2.8413  1.1359
   7523SM  H13B 9824   0.380   6.224  14.539  0.3128  0.0119 -0.7918
   7523SM  H13C 9825   0.386   6.065  14.603 -0.1687  0.7841 -0.0202
   7523SM   C12 9826   0.547   6.138  14.318 -0.1148  0.2611 -0.1921
   7523SM  H12A 9827   0.647   6.100  14.300  0.4471  1.0987  1.0766
   7523SM  H12B 9828   0.544   6.245  14.324 -0.5604  0.2067  0.5752
   7523SM   C11 9829   0.463   6.075  14.199 -0.1897 -0.4410  0.3187
   7523SM  H11A 9830   0.486   6.137  14.110 -1.9070 -0.8350 -0.4273
   7523SM  H11B 9831   0.355   6.079  14.221 -0.5002 -2.6571 -0.5992
   7523SM     P 9832   0.618   5.890  14.105  0.1973 -0.0587 -0.5247
   7523SM   O13 9833   0.746   5.930  14.166  0.5132 -0.6355 -0.4443
   7523SM   O14 9834   0.608   5.743  14.078  0.3652  0.2154 -0.0125
   7523SM   O11 9835   0.596   5.966  13.968 -0.2556 -0.4366  0.1875
   7523SM   O12 9836   0.490   5.937  14.187 -0.1852 -0.0390  0.1912
   7523SM   C1S 9837   0.661   5.916  13.852  0.0803 -0.4081  0.4954
   7523SM   H1S 9838   0.644   5.807  13.848 -2.0521 -0.1046  0.0591
   7523SM   H1T 9839   0.771   5.931  13.847  0.4066 -2.5214  0.6268
   7523SM    NF 9840   0.653   5.904  13.603 -0.2703  0.2577  0.4674
   7523SM   HNF 9841   0.727   5.942  13.548 -0.3676  0.9555  0.8156
   7523SM   C2S 9842   0.602   5.977  13.723  0.0978  0.0378  0.3312
   7523SM   H2S 9843   0.492   5.960  13.725 -0.1503  1.6024  0.6448
   7523SM   C3S 9844   0.625   6.129  13.731 -0.7222  0.2659 -1.1245
   7523SM   H3S 9845   0.733   6.152  13.737 -0.4921 -0.9986  0.2396
   7523SM    O3 9846   0.577   6.188  13.857 -0.4117 -0.2379  0.0326
   7523SM   HO3 9847   0.539   6.107  13.894  2.1975 -1.3574  0.4890
   7523SM   C4S 9848   0.577   6.206  13.610  0.1430  0.4363 -0.3050
   7523SM   H4S 9849   0.631   6.201  13.514 -0.6653 -0.4150 -0.7309
   7523SM   C5S 9850   0.461   6.279  13.615 -0.1044  0.2842  0.2928
   7523SM   H5S 9851   0.402   6.281  13.708  1.0750 -0.3938  1.0910
   7523SM   C6S 9852   0.402   6.335  13.489  0.1019  0.3609  0.0997
   7523SM   H6S 9853   0.465   6.426  13.479  3.1590 -1.6642 -0.4812
   7523SM   H6T 9854   0.294   6.359  13.504  0.0273 -1.1757  2.6761
   7523SM   C7S 9855   0.409   6.249  13.359 -0.0473 -0.4008  0.4680
   7523SM   H7S 9856   0.375   6.144  13.370  0.6099 -0.6037  0.6268
   7523SM   H7T 9857   0.518   6.258  13.336  0.0111 -0.2116  0.8140
   7523SM   C8S 9858   0.316   6.309  13.260  0.2563 -0.4694  1.2070
   7523SM   H8S 9859   0.303   6.419  13.263 -0.5889 -0.4361 -1.1742
   7523SM   H8T 9860   0.215   6.265  13.274  0.5896 -1.6669  0.0955
   7523SM   C9S 9861   0.364   6.296  13.113 -0.2788  0.4097  0.0059
   7523SM   H9S 9862   0.374   6.190  13.081 -1.4793  0.2275  0.2003
   7523SM   H9T 9863   0.471   6.324  13.120 -0.2360  0.2478 -0.0053
   7523SM  C10S 9864   0.288   6.375  13.016 -0.1508 -0.2051 -0.3526
   7523SM  H10S 9865   0.301   6.482  13.038  0.8571 -0.5420  0.7631
   7523SM  H10T 9866   0.181   6.345  13.022 -0.2862  0.4932  1.0155
   7523SM  C11S 9867   0.336   6.339  12.875 -0.1221 -0.2939 -0.7308
   7523SM  H11S 9868   0.320   6.232  12.849  1.0192 -0.4479 -0.8802
   7523SM  H11T 9869   0.446   6.357  12.875 -0.3644  1.4812  0.8552
   7523SM  C12S 9870   0.271   6.436  12.777 -0.7065 -0.2979 -0.1110
   7523SM  H12S 9871   0.299   6.538  12.810 -2.1895  0.3848 -0.8987
   7523SM  H12T 9872   0.161   6.422  12.765 -0.5975  0.1099 -1.8784
   7523SM  C13S 9873   0.314   6.405  12.630 -0.1983  0.0378  0.1542
   7523SM  H13S 9874   0.328   6.295  12.623  1.1612  0.0097  2.3893
   7523SM  H13T 9875   0.415   6.447  12.609 -0.2967 -0.0878 -0.6114
   7523SM  C14S 9876   0.212   6.434  12.510  0.8574 -0.0874 -0.8058
   7523SM  H14S 9877   0.199   6.544  12.523 -2.4108 -0.5228  0.5198
   7523SM  H14T 9878   0.114   6.386  12.529  1.4486 -0.7637  0.7083
   7523SM  C15S 9879   0.265   6.377  12.375  0.2150 -0.1506 -0.7199
   7523SM  H15S 9880   0.270   6.267  12.389  2.0277  0.0067  0.1454
   7523SM  H15T 9881   0.359   6.430  12.347  0.3837  0.0249  0.1482
   7523SM  C16S 9882   0.169   6.408  12.258 -0.1164  0.2698  0.7978
   7523SM  H16S 9883   0.176   6.517  12.236 -4.0322  0.5651  0.1695
   7523SM  H16T 9884   0.065   6.392  12.294 -0.9662 -0.0330 -1.5848
   7523SM  C17S 9885   0.202   6.317  12.140 -0.1354  0.3199  0.4684
   7523SM  H17S 9886   0.170   6.214  12.170  0.3461  0.8436  3.0270
   7523SM  H17T 9887   0.311   6.326  12.120 -0.1311 -2.2950 -1.1383
   7523SM  C18S 9888   0.136   6.362  12.006 -0.3551 -0.0120 -0.4929
   7523SM  H18S 9889   0.027   6.373  12.025 -0.3566 -3.2143  2.2055
   7523SM  H18T 9890   0.154   6.279  11.934  1.4340  1.2965 -1.6424
   7523SM  H18U 9891   0.175   6.461  11.974 -0.4872  0.5418  0.9774
   7523SM   C1F 9892   0.606   5.781  13.563 -0.0407 -0.1582  0.1640
   7523SM    OF 9893   0.545   5.704  13.636  0.6736  0.4606 -0.1421
   7523SM   C2F 9894   0.624   5.761  13.410 -0.7743 -0.4549 -0.3417
   7523SM   H2F 9895   0.629   5.651  13.396  1.2603 -0.5343  0.5638
   7523SM   H2G 9896   0.723   5.803  13.380 -0.3727 -1.6347 -0.7558
   7523SM   C3F 9897   0.517   5.827  13.320  0.1510  0.5364  0.2776
   7523SM   H3F 9898   0.528   5.937  13.329  0.0398  0.5289  0.5153
   7523SM   H3G 9899   0.413   5.803  13.352  0.1053  0.8219  0.3381
   7523SM   C4F 9900   0.542   5.785  13.174  0.3293  1.0032 -0.3091
   7523SM   H4F 9901   0.517   5.678  13.163  1.1178  0.7382  0.3342
   7523SM   H4G 9902   0.651   5.788  13.151  0.0274  1.5636 -1.7565
   7523SM   C5F 9903   0.471   5.867  13.069  0.3966 -0.5434 -0.5461
   7523SM   H5F 9904   0.515   5.969  13.069 -0.2084 -0.2555  1.2632
   7523SM   H5G 9905   0.364   5.878  13.099  0.3716 -1.3982 -0.2846
   7523SM   C6F 9906   0.477   5.812  12.930  0.5957 -0.0450 -0.5708
   7523SM   H6F 9907   0.440   5.707  12.931 -1.1661  0.5419 -0.3127
   7523SM   H6G 9908   0.585   5.795  12.911  1.0014  0.0420  1.4586
   7523SM   C7F 9909   0.394   5.897  12.837  0.2379  0.2877 -0.5431
   7523SM   H7F 9910   0.432   6.001  12.851  0.2830 -0.0154  1.8669
   7523SM   H7G 9911   0.285   5.890  12.854  0.4696 -0.3931  0.7360
   7523SM   C8F 9912   0.426   5.857  12.695 -0.7656 -0.0996  0.2858
   7523SM   H8F 9913   0.408   5.748  12.680 -2.1098  0.5081 -4.3742
   7523SM   H8G 9914   0.535   5.874  12.682 -0.8920  1.1644  0.7610
   7523SM   C9F 9915   0.351   5.944  12.600  1.1623 -0.0610 -0.2235
   7523SM   H9F 9916   0.395   6.046  12.596 -0.0571  0.4695 -0.5396
   7523SM   H9G 9917   0.253   5.970  12.645  2.3932 -0.0926  2.6452
   7523SM  C10F 9918   0.348   5.880  12.456  0.6410 -0.2974 -0.4580
   7523SM  H10F 9919   0.455   5.861  12.432  0.2434  0.3975 -3.1409
   7523SM  H10G 9920   0.315   5.948  12.375 -1.3356 -0.0317  0.4930
   7523SM  C11F 9921   0.260   5.753  12.445  0.5697  0.0241  0.7198
   7523SM  H11F 9922   0.168   5.779  12.501  0.3799  0.4749  0.2161
   7523SM  H11G 9923   0.304   5.661  12.489 -0.4368 -1.9068 -2.0600
   7523SM  C12F 9924   0.214   5.727  12.295 -0.1328  0.2741  0.1940
   7523SM  H12F 9925   0.167   5.821  12.259 -0.8838 -0.4598 -0.8051
   7523SM  H12G 9926   0.127   5.659  12.301 -0.5362  0.6682 -0.9589
   7523SM  C13F 9927   0.325   5.680  12.209  0.2350 -0.5343 -0.1519
   7523SM  H13F 9928   0.377   5.596  12.260 -2.4644 -1.9555  0.4998
   7523SM  H13G 9929   0.401   5.760  12.199  0.5073 -0.8266 -0.4475
   7523SM  C14F 9930   0.278   5.626  12.068 -0.2490  0.3195 -0.0616
   7523SM  H14F 9931   0.363   5.586  12.008  0.0160 -0.6983  0.9646
   7523SM  H14G 9932   0.237   5.713  12.013  0.8965 -0.1098 -1.6812
   7523SM  C15F 9933   0.178   5.515  12.070  0.2612 -0.2476 -0.0728
   7523SM  H15F 9934   0.083   5.551  12.115  0.9957  1.0222  0.4933
   7523SM  H15G 9935   0.214   5.431  12.132  2.0865  0.3623 -0.2524
   7523SM  C16F 9936   0.158   5.470  11.926  0.2693  0.1004 -0.4782
   7523SM  H16F 9937   0.256   5.433  11.889  0.7464  1.3782 -0.5515
   7523SM  H16G 9938   0.121   5.557  11.868 -3.7094 -1.6849 -0.9502
   7523SM  C17F 9939   0.046   5.367  11.898  0.1409  0.1364  0.0048
   7523SM  H17F 9940   0.077   5.270  11.941  0.3609  0.9333  1.7403
   7523SM  H17G 9941   0.030   5.344  11.791 -1.4663 -0.5306  0.3714
   7523SM  C18F 9942  -0.091   5.398  11.965  0.4797  0.0669 -0.2469
   7523SM  H18F 9943  -0.085   5.382  12.075  0.7945 -1.8620 -0.5009
   7523SM  H18G 9944  -0.160   5.316  11.935  0.9230 -0.3428 -0.1673
   7523SM  C19F 9945  -0.168   5.524  11.912  0.0539 -0.2542  0.3105
   7523SM  H19F 9946  -0.097   5.609  11.911 -1.8691  1.4406 -0.0841
   7523SM  H19G 9947  -0.259   5.558  11.966  0.6496  1.7313  0.1716
   7523SM  C20F 9948  -0.221   5.502  11.768  0.2309  0.3808  0.3438
   7523SM  H20F 9949  -0.156   5.432  11.711  0.5324 -0.0808  1.2304
   7523SM  H20G 9950  -0.219   5.600  11.716  0.9370  1.4879  2.3399
   7523SM  C21F 9951  -0.363   5.445  11.764 -0.1573 -0.1236  0.4927
   7523SM  H21F 9952  -0.428   5.500  11.834  0.0686 -1.1601  1.5445
   7523SM  H21G 9953  -0.355   5.349  11.820  0.2344 -0.3023  0.1412
   7523SM  C22F 9954  -0.441   5.455  11.629  0.5863  0.8284  0.0901
   7523SM  H22F 9955  -0.388   5.397  11.550  2.2460  2.6184 -0.1960
   7523SM  H22G 9956  -0.442   5.559  11.591 -0.3094  0.8820  0.2575
   7523SM  C23F 9957  -0.588   5.408  11.647 -0.6673  0.0378  0.1059
   7523SM  H23F 9958  -0.591   5.297  11.657  2.8467 -0.1617  0.3045
   7523SM  H23G 9959  -0.644   5.439  11.556 -2.6782 -2.2831  0.4407
   7523SM  H23H 9960  -0.629   5.461  11.735 -0.9088 -3.1769  2.1308
   7623SM     N 9961   0.991   5.321  13.713  0.2875 -0.9536  0.0190
   7623SM   C15 9962   0.936   5.198  13.769 -0.2024  0.1671 -0.0853
   7623SM  H15A 9963   1.013   5.122  13.764 -0.5397 -0.1633 -0.3613
   7623SM  H15B 9964   0.848   5.164  13.715  1.3777  0.0186 -2.7596
   7623SM  H15C 9965   0.919   5.201  13.875  0.6477  1.3441  0.0297
   7623SM   C14 9966   1.121   5.345  13.797  0.5967  0.4399  0.3855
   7623SM  H14A 9967   1.165   5.442  13.780  0.9263  0.5625  1.8393
   7623SM  H14B 9968   1.203   5.283  13.764 -2.2925 -2.5168 -2.0098
   7623SM  H14C 9969   1.105   5.339  13.903 -1.6686 -0.8965  0.0443
   7623SM   C13 9970   1.019   5.300  13.567 -0.2543  0.0721 -0.5468
   7623SM  H13A 9971   1.090   5.220  13.555  1.1945  1.5431 -2.2184
   7623SM  H13B 9972   1.058   5.387  13.518  0.1803 -0.3654 -0.9880
   7623SM  H13C 9973   0.924   5.283  13.517 -0.1691 -0.0535 -0.6663
   7623SM   C12 9974   0.896   5.434  13.738  0.6166 -0.0982  0.4786
   7623SM  H12A 9975   0.866   5.445  13.841 -1.3556 -1.1220  0.0577
   7623SM  H12B 9976   0.805   5.404  13.687  2.0973  0.3439 -2.7070
   7623SM   C11 9977   0.929   5.575  13.681  0.1740  0.0449  0.0026
   7623SM  H11A 9978   0.847   5.645  13.707 -0.7051 -0.7181 -0.6850
   7623SM  H11B 9979   0.911   5.574  13.572 -1.2072  2.1971  0.1521
   7623SM     P 9980   1.091   5.730  13.823 -0.1455  0.2046  0.0481
   7623SM   O13 9981   1.029   5.692  13.954 -0.0658 -0.1725 -0.5127
   7623SM   O14 9982   1.238   5.753  13.832  0.5033 -0.0323  0.5592
   7623SM   O11 9983   1.029   5.858  13.774 -0.6869  0.1637 -0.1126
   7623SM   O12 9984   1.065   5.619  13.708  0.2497 -0.1932 -0.8113
   7623SM   C1S 9985   1.079   5.932  13.662  0.6694 -0.4155 -0.0701
   7623SM   H1S 9986   1.041   5.894  13.565 -2.7133  1.4334  0.3856
   7623SM   H1T 9987   1.189   5.932  13.650  0.6552 -0.8692 -0.2198
   7623SM    NF 9988   1.031   6.130  13.526 -0.1790 -0.1452 -0.0437
   7623SM   HNF 9989   1.089   6.207  13.501 -1.8937  1.5018  0.7644
   7623SM   C2S 9990   1.024   6.075  13.661  0.5330  0.1294 -0.1027
   7623SM   H2S 9991   0.917   6.067  13.690  0.2117  0.8204 -1.0381
   7623SM   C3S 9992   1.096   6.162  13.780  0.0205 -0.0044 -0.3720
   7623SM   H3S 9993   1.207   6.153  13.774  0.3323  1.3604  1.9527
   7623SM    O3 9994   1.068   6.112  13.910 -0.0691 -0.0551 -0.5470
   7623SM   HO3 9995   1.020   6.031  13.894 -2.7975  1.3858 -0.3799
   7623SM   C4S 9996   1.070   6.311  13.759 -0.2272 -1.0624 -0.2595
   7623SM   H4S 9997   1.162   6.362  13.728 -0.1764 -1.7799 -1.3216
   7623SM   C5S 9998   0.950   6.378  13.771 -0.8555  0.4226  0.1267
   7623SM   H5S 9999   0.866   6.318  13.809 -0.2053 -1.4863 -1.2993
   7623SM   C6S10000   0.936   6.528  13.749 -0.2633 -0.1716 -0.2829
   7623SM   H6S10001   1.034   6.579  13.736 -0.7768  1.8978  2.8123
   7623SM   H6T10002   0.899   6.572  13.844 -0.7255 -1.9412  0.4047
   7623SM   C7S10003   0.837   6.566  13.640  0.1088  0.2777  0.0665
   7623SM   H7S10004   0.857   6.673  13.617  0.7748  0.6257  2.0388
   7623SM   H7T10005   0.731   6.559  13.673  0.0262  0.4306 -0.1624
   7623SM   C8S10006   0.841   6.486  13.511  0.2244 -0.5836  0.2174
   7623SM   H8S10007   0.814   6.383  13.542 -0.4309 -0.0295  1.5850
   7623SM   H8T10008   0.943   6.482  13.468  0.2102  3.6126 -0.6768
   7623SM   C9S10009   0.736   6.550  13.415 -0.2296  0.0823  0.4732
   7623SM   H9S10010   0.751   6.660  13.403  0.0432  0.0922  0.8679
   7623SM   H9T10011   0.636   6.560  13.462 -1.3682  0.4835 -1.8899
   7623SM  C10S10012   0.720   6.471  13.283  0.7278 -0.0397 -0.5567
   7623SM  H10S10013   0.618   6.490  13.242  1.1663  2.7058 -0.5478
   7623SM  H10T10014   0.717   6.361  13.300 -0.9825  0.0731  0.1090
   7623SM  C11S10015   0.824   6.508  13.178  0.0033 -0.3950 -0.4238
   7623SM  H11S10016   0.908   6.438  13.199  0.3800  0.0895 -0.3011
   7623SM  H11T10017   0.877   6.604  13.200  0.9768 -1.4652  2.4794
   7623SM  C12S10018   0.776   6.503  13.032 -0.4979  0.9192  0.2526
   7623SM  H12S10019   0.685   6.442  13.016 -1.4591  2.6722 -1.4918
   7623SM  H12T10020   0.856   6.461  12.967 -1.9198 -1.2473 -0.2181
   7623SM  C13S10021   0.738   6.645  12.995  0.1638  0.3081  0.2966
   7623SM  H13S10022   0.830   6.704  12.975 -1.1755  2.1811 -0.6242
   7623SM  H13T10023   0.676   6.692  13.074 -0.4829 -1.2058  0.7418
   7623SM  C14S10024   0.658   6.657  12.871 -0.3920  0.3243  0.0369
   7623SM  H14S10025   0.627   6.764  12.862 -0.8367  0.1393 -0.7559
   7623SM  H14T10026   0.569   6.593  12.882  0.6256 -0.7916  2.2713
   7623SM  C15S10027   0.735   6.601  12.752  0.7466  0.2608 -0.3060
   7623SM  H15S10028   0.762   6.496  12.774  1.3852  1.0111  3.0751
   7623SM  H15T10029   0.826   6.664  12.744  0.3369  0.9962  0.6500
   7623SM  C16S10030   0.651   6.623  12.624 -0.3977 -0.0400 -0.3094
   7623SM  H16S10031   0.621   6.728  12.603  2.5738  0.9414 -0.1003
   7623SM  H16T10032   0.566   6.552  12.638 -0.5989  0.2607  0.0156
   7623SM  C17S10033   0.724   6.573  12.494  0.4824  0.7261  0.8004
   7623SM  H17S10034   0.773   6.475  12.510 -1.0686 -0.4125 -0.9975
   7623SM  H17T10035   0.803   6.649  12.472  0.0512  1.1993  0.8802
   7623SM  C18S10036   0.643   6.547  12.364  0.4815 -0.0063 -0.0441
   7623SM  H18S10037   0.547   6.494  12.378  0.4413  0.3907  1.3679
   7623SM  H18T10038   0.707   6.497  12.288  0.3336  0.5603 -0.5477
   7623SM  H18U10039   0.623   6.641  12.309  1.2308 -0.6909 -1.5234
   7623SM   C1F10040   0.947   6.089  13.431  0.0163  0.3159 -0.7323
   7623SM    OF10041   0.856   6.011  13.451  0.4273  0.9835 -0.5391
   7623SM   C2F10042   0.966   6.141  13.291 -0.6441  0.3737  0.0875
   7623SM   H2F10043   1.070   6.111  13.266 -0.5881 -0.3154  1.1185
   7623SM   H2G10044   0.964   6.251  13.275 -0.2250  0.3396 -0.2334
   7623SM   C3F10045   0.869   6.080  13.190  0.5287  0.6430 -0.1406
   7623SM   H3F10046   0.767   6.108  13.225  0.1908  0.9920 -1.3482
   7623SM   H3G10047   0.883   5.970  13.185 -0.3009  0.4612  0.9835
   7623SM   C4F10048   0.903   6.132  13.048  0.1369  0.1680 -0.4353
   7623SM   H4F10049   0.997   6.086  13.012 -0.5138 -1.7136  0.1785
   7623SM   H4G10050   0.919   6.242  13.053 -1.5114  0.5257 -2.0645
   7623SM   C5F10051   0.787   6.117  12.950 -0.0885  0.2503 -0.3707
   7623SM   H5F10052   0.708   6.180  12.995 -0.2276 -1.3321  1.7021
   7623SM   H5G10053   0.750   6.014  12.962 -0.9069  0.2375 -2.5638
   7623SM   C6F10054   0.821   6.162  12.805 -0.0910 -0.7647 -0.2420
   7623SM   H6F10055   0.906   6.098  12.773  1.6919  1.9919 -1.3833
   7623SM   H6G10056   0.868   6.263  12.807 -0.3989 -0.6222 -0.1544
   7623SM   C7F10057   0.702   6.148  12.704 -0.0574  0.0766 -0.6411
   7623SM   H7F10058   0.632   6.229  12.733 -0.0075  0.3156 -1.1865
   7623SM   H7G10059   0.649   6.051  12.716  1.1268 -0.5501 -0.3175
   7623SM   C8F10060   0.745   6.162  12.555  0.8423 -0.5141 -0.0620
   7623SM   H8F10061   0.818   6.082  12.532 -0.5672 -1.5697 -1.0162
   7623SM   H8G10062   0.799   6.259  12.542 -1.1744  0.8958  1.5075
   7623SM   C9F10063   0.631   6.149  12.461  0.1062 -0.2788  0.1918
   7623SM   H9F10064   0.560   6.233  12.474 -0.3453 -0.7219  0.6306
   7623SM   H9G10065   0.574   6.054  12.474 -0.0963 -0.2291 -0.2854
   7623SM  C10F10066   0.680   6.145  12.315 -0.0274  0.4474 -0.0611
   7623SM  H10F10067   0.754   6.062  12.309 -0.7670 -0.2518  0.2202
   7623SM  H10G10068   0.723   6.240  12.278  0.7418  0.2461  0.2897
   7623SM  C11F10069   0.570   6.106  12.215 -0.6765  0.1683 -0.4507
   7623SM  H11F10070   0.486   6.177  12.230  0.7094  1.9687 -0.8609
   7623SM  H11G10071   0.534   6.002  12.227 -2.4016  0.8688  0.9798
   7623SM  C12F10072   0.610   6.127  12.066 -0.5179  0.3494  0.2299
   7623SM  H12F10073   0.688   6.053  12.037 -0.2153  0.8099 -0.1553
   7623SM  H12G10074   0.650   6.231  12.057  0.5399 -0.1598 -1.3152
   7623SM  C13F10075   0.488   6.120  11.974 -0.1310 -0.3448 -0.1343
   7623SM  H13F10076   0.520   6.133  11.868  0.1760  0.2755  0.0338
   7623SM  H13G10077   0.409   6.191  12.006  0.8735  1.0209 -0.6033
   7623SM  C14F10078   0.403   5.990  11.971 -0.5354  0.0131 -0.4487
   7623SM  H14F10079   0.374   5.954  12.072 -0.0019 -0.0204 -0.3020
   7623SM  H14G10080   0.480   5.913  11.945 -0.4095 -0.1440  0.3626
   7623SM  C15F10081   0.285   6.006  11.876 -0.3622  0.6620 -0.7995
   7623SM  H15F10082   0.222   6.095  11.895  0.2670  1.2430 -1.3826
   7623SM  H15G10083   0.225   5.913  11.885  0.3705  0.2225 -0.2080
   7623SM  C16F10084   0.319   6.022  11.725  0.2967  0.4165 -0.6599
   7623SM  H16F10085   0.373   5.928  11.700 -0.7537 -1.7447  4.0479
   7623SM  H16G10086   0.380   6.113  11.710  1.0792  0.0533  0.1709
   7623SM  C17F10087   0.197   6.034  11.643 -0.0225 -0.1609  0.1726
   7623SM  H17F10088   0.123   6.106  11.683 -0.6627  0.0758 -1.3612
   7623SM  H17G10089   0.156   5.932  11.663  1.9914 -1.1859 -0.5861
   7623SM  C18F10090   0.223   6.058  11.495 -0.9128 -0.4179 -0.4443
   7623SM  H18F10091   0.307   5.995  11.458  2.7445  2.5288  2.1271
   7623SM  H18G10092   0.254   6.165  11.490 -1.5601  0.1777  4.1501
   7623SM  C19F10093   0.085   6.044  11.422  0.4456 -0.4785  0.0976
   7623SM  H19F10094   0.012   6.106  11.477 -0.6522 -1.1566 -0.5600
   7623SM  H19G10095   0.044   5.942  11.433  0.3193 -0.5090 -0.5834
   7623SM  C20F10096   0.099   6.108  11.280 -0.3747  0.5160 -0.4886
   7623SM  H20F10097   0.007   6.083  11.224 -1.9933 -0.4569  2.3970
   7623SM  H20G10098   0.186   6.057  11.233  0.6750  0.7056  1.1496
   7623SM  C21F10099   0.103   6.261  11.278 -0.2231 -0.8188 -0.4887
   7623SM  H21F10100   0.184   6.293  11.347 -1.8423  1.5015  0.4794
   7623SM  H21G10101   0.008   6.308  11.312 -0.0395 -1.6095  1.2232
   7623SM  C22F10102   0.134   6.308  11.129  0.4575 -0.9958 -0.1104
   7623SM  H22F10103   0.237   6.277  11.103  0.1557 -3.2536  1.1158
   7623SM  H22G10104   0.145   6.419  11.128  1.1392 -1.0556 -1.2280
   7623SM  C23F10105   0.026   6.281  11.021  0.1749  0.4294 -0.3512
   7623SM  H23F10106   0.045   6.314  10.917  0.8735  0.4615 -0.2199
   7623SM  H23G10107  -0.072   6.324  11.051  0.0799  0.5789 -0.8546
   7623SM  H23H10108   0.013   6.171  11.007 -0.5867  0.3127  1.1040
   7723SM     N10109   1.193   2.410  13.704  0.3060 -0.0317  0.1507
   7723SM   C1510110   1.303   2.490  13.763 -0.1231  0.3715 -0.0082
   7723SM  H15A10111   1.399   2.446  13.741 -1.5320 -2.9415 -0.1649
   7723SM  H15B10112   1.297   2.494  13.871 -0.0954  0.4295 -0.0083
   7723SM  H15C10113   1.300   2.590  13.722 -2.4461  0.0875 -0.6404
   7723SM   C1410114   1.230   2.375  13.562 -0.7541 -0.0906 -0.1854
   7723SM  H14A10115   1.310   2.302  13.557  1.2930  2.0808 -1.7221
   7723SM  H14B10116   1.255   2.466  13.508  1.8847 -0.9619 -0.5959
   7723SM  H14C10117   1.146   2.342  13.503  0.0824  1.6772 -2.5420
   7723SM   C1310118   1.190   2.282  13.774 -0.0065 -0.3480  0.0117
   7723SM  H13A10119   1.269   2.212  13.747 -0.2536 -1.6514  2.4029
   7723SM  H13B10120   1.097   2.229  13.759 -1.3604  1.8349  0.3359
   7723SM  H13C10121   1.201   2.301  13.880 -1.3796 -1.9602  0.4824
   7723SM   C1210122   1.062   2.488  13.715  0.3351  0.2182  0.6541
   7723SM  H12A10123   1.049   2.541  13.809 -0.8704  2.0091 -0.4462
   7723SM  H12B10124   0.990   2.409  13.706  0.0393  0.6150 -0.7127
   7723SM   C1110125   1.045   2.595  13.614 -0.4973 -1.0618  0.2970
   7723SM  H11A10126   0.942   2.634  13.633 -0.4604 -0.5600 -0.4723
   7723SM  H11B10127   1.056   2.561  13.509  1.9247  1.7271 -0.4991
   7723SM     P10128   1.111   2.853  13.637 -0.1428  0.3029  0.2112
   7723SM   O1310129   0.981   2.883  13.697  0.1841  0.2701 -0.5246
   7723SM   O1410130   1.234   2.914  13.694 -0.2483 -0.0347 -0.2506
   7723SM   O1110131   1.112   2.898  13.483 -0.5774  0.0677 -0.6296
   7723SM   O1210132   1.138   2.697  13.639 -0.2062 -0.4941 -0.5662
   7723SM   C1S10133   1.235   2.864  13.402 -0.3247  0.3225  0.5116
   7723SM   H1S10134   1.292   2.785  13.456  0.5724 -2.1086 -3.5676
   7723SM   H1T10135   1.290   2.960  13.387  1.3816 -0.5272  1.1673
   7723SM    NF10136   1.325   2.793  13.187  0.7049  0.1827 -0.1708
   7723SM   HNF10137   1.369   2.870  13.141  3.4480 -0.6838  0.7874
   7723SM   C2S10138   1.200   2.823  13.257 -0.5329  0.2217  0.2815
   7723SM   H2S10139   1.149   2.725  13.267  0.7864 -0.6299 -0.8268
   7723SM   C3S10140   1.110   2.928  13.184  0.2047 -0.0695 -0.8070
   7723SM   H3S10141   1.168   3.022  13.185 -1.3286  0.9360 -1.7074
   7723SM    O310142   0.995   2.964  13.259 -0.2451 -0.5032  0.0383
   7723SM   HO310143   1.009   2.931  13.347  1.8899  2.1953  0.8513
   7723SM   C4S10144   1.087   2.893  13.036  0.0082 -0.3748  0.7568
   7723SM   H4S10145   1.038   2.796  13.022 -0.4364 -0.2169  1.1956
   7723SM   C5S10146   1.119   2.961  12.923  0.0199 -0.0439 -0.1610
   7723SM   H5S10147   1.174   3.056  12.924  0.1798 -0.1349 -0.2074
   7723SM   C6S10148   1.095   2.904  12.787  0.4710  0.1943 -0.1341
   7723SM   H6S10149   0.992   2.940  12.762 -0.1906 -0.1908  1.8734
   7723SM   H6T10150   1.105   2.794  12.778 -2.2252  0.0371 -3.1665
   7723SM   C7S10151   1.191   2.951  12.678  0.4573  0.8380  0.1180
   7723SM   H7S10152   1.299   2.948  12.702  1.3839 -2.7429 -3.4369
   7723SM   H7T10153   1.156   3.053  12.653 -2.0145  0.4323  1.6008
   7723SM   C8S10154   1.176   2.870  12.545  0.4890 -0.2211  0.1495
   7723SM   H8S10155   1.068   2.874  12.519  0.3715 -1.7281  0.3116
   7723SM   H8T10156   1.208   2.764  12.552 -0.4314 -0.5327 -0.1984
   7723SM   C9S10157   1.256   2.933  12.425  0.5428  0.1177 -0.3434
   7723SM   H9S10158   1.363   2.906  12.427  0.0824 -2.2557 -2.8595
   7723SM   H9T10159   1.250   3.044  12.432 -0.1629 -0.0167  2.1915
   7723SM  C10S10160   1.212   2.884  12.284 -1.0116 -0.0564  0.5717
   7723SM  H10S10161   1.102   2.898  12.273 -0.9942 -0.6220 -0.4101
   7723SM  H10T10162   1.229   2.775  12.267  1.3443  0.3854 -0.2239
   7723SM  C11S10163   1.299   2.950  12.169 -0.1886  0.0115 -0.4263
   7723SM  H11S10164   1.405   2.915  12.166  0.3559  1.5810 -0.5561
   7723SM  H11T10165   1.307   3.057  12.200  2.4222 -0.8697  2.5339
   7723SM  C12S10166   1.222   2.933  12.037 -0.2994 -0.3574  0.0537
   7723SM  H12S10167   1.116   2.965  12.040  0.3289  1.8761  2.7953
   7723SM  H12T10168   1.227   2.825  12.011 -0.2377 -0.1208 -0.9467
   7723SM  C13S10169   1.294   3.020  11.931 -0.3409 -0.3994 -0.2942
   7723SM  H13S10170   1.402   2.997  11.938  0.2933  2.3705  0.3372
   7723SM  H13T10171   1.277   3.125  11.963  1.6178  0.4810 -1.9224
   7723SM  C14S10172   1.248   2.990  11.789  0.2352  0.4839  0.3439
   7723SM  H14S10173   1.291   3.060  11.715 -0.5444 -0.7516 -1.3527
   7723SM  H14T10174   1.137   2.999  11.794  0.0514 -1.6198  0.9919
   7723SM  C15S10175   1.273   2.848  11.740  0.5109 -0.2904  0.5797
   7723SM  H15S10176   1.219   2.826  11.646 -0.6253 -0.2664  1.2036
   7723SM  H15T10177   1.217   2.778  11.807 -2.6313 -0.5180 -2.0598
   7723SM  C16S10178   1.421   2.809  11.723 -0.7120 -0.4276 -0.0702
   7723SM  H16S10179   1.474   2.806  11.821 -2.1091 -3.4002  0.7082
   7723SM  H16T10180   1.470   2.878  11.652  2.3426 -1.9287  0.3895
   7723SM  C17S10181   1.441   2.674  11.649 -1.5914 -0.5888 -0.1867
   7723SM  H17S10182   1.360   2.673  11.573 -1.4360  0.9020 -0.4137
   7723SM  H17T10183   1.413   2.591  11.717 -1.1738 -0.6579 -0.0921
   7723SM  C18S10184   1.584   2.654  11.591 -0.4612  0.3656 -0.7660
   7723SM  H18S10185   1.614   2.739  11.526  1.6423  0.6198  0.4583
   7723SM  H18T10186   1.582   2.558  11.534 -0.7356 -1.2945  1.8388
   7723SM  H18U10187   1.649   2.642  11.680 -1.8699 -1.1139  0.1138
   7723SM   C1F10188   1.400   2.688  13.225 -0.5057 -0.5339  0.1957
   7723SM    OF10189   1.364   2.620  13.321  0.0368 -0.1452  0.3218
   7723SM   C2F10190   1.532   2.673  13.169 -0.5567  0.0693 -0.2683
   7723SM   H2F10191   1.611   2.629  13.234  0.6568 -3.3962 -3.7279
   7723SM   H2G10192   1.574   2.771  13.137 -0.1805  0.8030  2.1959
   7723SM   C3F10193   1.521   2.590  13.041  0.4337 -0.5045  0.6514
   7723SM   H3F10194   1.456   2.501  13.059 -0.9989  0.4264  0.2142
   7723SM   H3G10195   1.622   2.547  13.023  0.5156  0.6444 -1.9736
   7723SM   C4F10196   1.472   2.667  12.918  0.1863  0.3044 -0.0103
   7723SM   H4F10197   1.519   2.766  12.898 -1.2063  0.8736 -0.6368
   7723SM   H4G10198   1.364   2.695  12.919  0.1370  0.0973  0.5010
   7723SM   C5F10199   1.493   2.589  12.789  0.4692  0.0941  0.1606
   7723SM   H5F10200   1.429   2.502  12.763 -2.1376  2.4009 -1.7137
   7723SM   H5G10201   1.594   2.544  12.797  1.2933  1.8117 -0.0863
   7723SM   C6F10202   1.492   2.675  12.661 -0.1359 -0.5175  0.3211
   7723SM   H6F10203   1.561   2.761  12.660 -2.8151  1.7812 -0.8357
   7723SM   H6G10204   1.393   2.723  12.643  0.2437 -0.1932 -0.9879
   7723SM   C7F10205   1.520   2.592  12.534  0.1217 -0.2417 -0.2893
   7723SM   H7F10206   1.452   2.505  12.545 -0.3138  0.2768  1.3330
   7723SM   H7G10207   1.623   2.553  12.546  1.0265  1.4208 -1.9731
   7723SM   C8F10208   1.497   2.660  12.397 -0.4824  0.6679 -0.4078
   7723SM   H8F10209   1.564   2.749  12.392 -0.3080  0.5335 -0.4626
   7723SM   H8G10210   1.391   2.692  12.385  0.0326  2.6212 -0.1899
   7723SM   C9F10211   1.525   2.558  12.282  0.0702  0.9140  0.9900
   7723SM   H9F10212   1.477   2.461  12.305  0.3222  0.3536 -0.6829
   7723SM   H9G10213   1.635   2.542  12.275  0.2285  2.5225 -0.9189
   7723SM  C10F10214   1.472   2.610  12.146 -0.2762 -0.2072 -0.3572
   7723SM  H10F10215   1.523   2.702  12.111 -1.1286  0.1016 -0.8222
   7723SM  H10G10216   1.364   2.635  12.158  0.0719  0.5744  1.5213
   7723SM  C11F10217   1.480   2.502  12.040 -0.0261  0.1871  0.2530
   7723SM  H11F10218   1.420   2.551  11.961  2.3116  0.7780 -1.2550
   7723SM  H11G10219   1.428   2.407  12.066  1.4414 -0.3915  1.2369
   7723SM  C12F10220   1.624   2.486  11.980 -0.2971 -0.0925 -0.8890
   7723SM  H12F10221   1.698   2.458  12.058  0.6118  1.0166 -1.3199
   7723SM  H12G10222   1.664   2.582  11.939  1.0289 -1.3377 -2.6482
   7723SM  C13F10223   1.621   2.376  11.882  0.7584  0.8327 -0.8252
   7723SM  H13F10224   1.540   2.398  11.808 -1.1401  1.1369  1.2396
   7723SM  H13G10225   1.587   2.278  11.922 -0.3468  1.5750  0.0888
   7723SM  C14F10226   1.755   2.346  11.821  0.5480 -0.9090 -0.9088
   7723SM  H14F10227   1.828   2.323  11.902  0.6157  1.1392 -0.3323
   7723SM  H14G10228   1.787   2.443  11.778  2.5611  0.3066  2.8154
   7723SM  C15F10229   1.751   2.235  11.714 -0.6214 -0.4011  0.2138
   7723SM  H15F10230   1.660   2.174  11.732  0.1372 -2.0002 -1.0937
   7723SM  H15G10231   1.838   2.169  11.734 -0.2598  0.2399  0.8213
   7723SM  C16F10232   1.744   2.296  11.573 -0.1207  0.1835 -0.2109
   7723SM  H16F10233   1.658   2.365  11.584  0.9425  1.1678  3.8577
   7723SM  H16G10234   1.708   2.216  11.505 -1.9117  3.1933 -3.1132
   7723SM  C17F10235   1.873   2.378  11.525 -0.1841 -0.0745 -0.4576
   7723SM  H17F10236   1.956   2.305  11.532  0.2598  0.4433 -0.2717
   7723SM  H17G10237   1.899   2.458  11.597  0.7746 -1.8705  1.2971
   7723SM  C18F10238   1.866   2.415  11.374  0.4378  0.3138  0.2284
   7723SM  H18F10239   1.761   2.447  11.357  0.1011 -0.8273  0.0370
   7723SM  H18G10240   1.888   2.324  11.314  0.9087  1.5100 -1.4617
   7723SM  C19F10241   1.956   2.538  11.340  0.4483  0.7676  0.9602
   7723SM  H19F10242   1.917   2.626  11.396 -0.3058  1.8129 -1.1125
   7723SM  H19G10243   1.936   2.549  11.231  0.4511 -2.0610  0.5995
   7723SM  C20F10244   2.105   2.521  11.361  0.2808 -0.4166  0.1143
   7723SM  H20F10245   2.132   2.432  11.301 -1.2436 -1.0853  0.3686
   7723SM  H20G10246   2.119   2.498  11.469  1.2640 -1.8922 -0.2993
   7723SM  C21F10247   2.199   2.632  11.317  0.2183 -0.2927  0.7826
   7723SM  H21F10248   2.181   2.727  11.372 -1.3667  0.3043 -0.7121
   7723SM  H21G10249   2.176   2.657  11.212  1.5522  0.1358  0.5713
   7723SM  C22F10250   2.349   2.582  11.320  0.0950 -0.1997 -0.0426
   7723SM  H22F10251   2.415   2.670  11.302 -0.3258 -0.1064 -1.3077
   7723SM  H22G10252   2.358   2.502  11.243 -0.5328  1.7942 -2.3288
   7723SM  C23F10253   2.380   2.527  11.459  0.3192  0.4547  0.5349
   7723SM  H23F10254   2.488   2.501  11.467 -0.1059 -3.5476 -2.8821
   7723SM  H23G10255   2.318   2.438  11.482 -0.7327  1.0007 -0.1319
   7723SM  H23H10256   2.355   2.602  11.536  1.0224  1.5106 -0.2301
   7823SM     N10257   3.324   2.232  14.223 -0.2509  0.0512  0.5595
   7823SM   C1510258   3.404   2.212  14.352 -1.0908  0.1045 -0.6841
   7823SM  H15A10259   3.355   2.262  14.435 -2.6134 -0.8608 -0.9571
   7823SM  H15B10260   3.504   2.253  14.348 -1.8058  1.8565 -1.8148
   7823SM  H15C10261   3.422   2.109  14.380  0.5358  0.8573  1.3276
   7823SM   C1410262   3.390   2.158  14.117  0.0607  0.6740  0.4396
   7823SM  H14A10263   3.363   2.054  14.122 -4.0726  1.4750 -1.2599
   7823SM  H14B10264   3.497   2.168  14.122  0.2703 -1.0867  0.1263
   7823SM  H14C10265   3.364   2.186  14.015 -0.2277 -2.8033 -0.5475
   7823SM   C1310266   3.192   2.168  14.234  0.2743 -0.0650  0.3672
   7823SM  H13A10267   3.201   2.061  14.240  0.9675 -0.0650 -0.4483
   7823SM  H13B10268   3.127   2.196  14.152 -0.1522  2.5824  1.5177
   7823SM  H13C10269   3.137   2.195  14.323  1.4099 -0.4711  1.2084
   7823SM   C1210270   3.315   2.381  14.190  0.8530 -0.0821 -0.3325
   7823SM  H12A10271   3.412   2.428  14.196  1.0303 -0.6011  1.6552
   7823SM  H12B10272   3.246   2.426  14.260 -0.5896 -2.0024 -0.4448
   7823SM   C1110273   3.241   2.414  14.050  0.2112 -0.1197  0.1358
   7823SM  H11A10274   3.279   2.349  13.968  1.8644  1.2607 -0.2486
   7823SM  H11B10275   3.276   2.515  14.019 -2.0901  0.5110 -0.6005
   7823SM     P10276   2.994   2.363  13.967 -0.4106 -0.0876 -0.0565
   7823SM   O1310277   2.979   2.226  14.016 -0.0495  0.0382  0.1469
   7823SM   O1410278   2.878   2.450  13.968 -0.1208 -0.6198  0.4226
   7823SM   O1110279   3.052   2.367  13.825  0.0560  0.0353  0.8368
   7823SM   O1210280   3.103   2.427  14.067  0.2196 -0.1061  0.3681
   7823SM   C1S10281   3.092   2.240  13.770  0.3083  0.5437  0.3331
   7823SM   H1S10282   3.002   2.180  13.748 -0.6380  1.9224  0.3578
   7823SM   H1T10283   3.173   2.191  13.828  0.1884  0.8803  0.7918
   7823SM    NF10284   3.191   2.138  13.560  0.2631 -0.3152 -0.3616
   7823SM   HNF10285   3.286   2.125  13.536  0.6002  1.8996 -0.4188
   7823SM   C2S10286   3.161   2.264  13.632  0.4335  0.1090  0.2783
   7823SM   H2S10287   3.077   2.306  13.574 -0.8102 -0.9007  1.2910
   7823SM   C3S10288   3.268   2.372  13.621  0.3745  0.2299 -0.2740
   7823SM   H3S10289   3.364   2.325  13.652 -0.4530 -0.7509  0.9210
   7823SM    O310290   3.249   2.483  13.706  0.2506 -0.1359 -0.6257
   7823SM   HO310291   3.162   2.474  13.747 -0.1819 -0.8721 -1.6732
   7823SM   C4S10292   3.272   2.418  13.482 -0.4227 -0.4647  0.4252
   7823SM   H4S10293   3.182   2.473  13.452  0.3008  0.2695 -0.4455
   7823SM   C5S10294   3.377   2.395  13.391 -0.3672 -0.4108 -0.2009
   7823SM   H5S10295   3.472   2.351  13.424  1.0684  2.6013  0.0146
   7823SM   C6S10296   3.358   2.432  13.242 -0.0176 -0.6914 -0.6412
   7823SM   H6S10297   3.436   2.507  13.218  0.3976 -0.5712  0.9840
   7823SM   H6T10298   3.257   2.470  13.216  0.9063  1.1788 -1.7261
   7823SM   C7S10299   3.369   2.305  13.155  0.0987  0.0354  0.0786
   7823SM   H7S10300   3.293   2.231  13.188  1.5851 -1.2633  0.7169
   7823SM   H7T10301   3.465   2.252  13.173 -0.7684 -1.5396  0.3095
   7823SM   C8S10302   3.358   2.346  13.002 -0.2682  0.6905  0.6629
   7823SM   H8S10303   3.436   2.419  12.971 -0.0019 -0.3117 -1.1733
   7823SM   H8T10304   3.260   2.397  12.985  0.3785  0.9554 -2.9607
   7823SM   C9S10305   3.349   2.229  12.906  0.7721  0.0338  0.2891
   7823SM   H9S10306   3.254   2.172  12.912  1.3630 -1.1170 -0.8474
   7823SM   H9T10307   3.430   2.156  12.929  1.6927  1.3019  1.2006
   7823SM  C10S10308   3.341   2.272  12.762 -0.6186 -0.6683  0.2816
   7823SM  H10S10309   3.449   2.294  12.746 -0.2608 -2.0022  0.7352
   7823SM  H10T10310   3.281   2.363  12.740  2.2664  1.0266 -1.2634
   7823SM  C11S10311   3.300   2.166  12.655 -0.2195  0.1658 -0.3998
   7823SM  H11S10312   3.191   2.146  12.661  0.4321 -3.8784  1.0281
   7823SM  H11T10313   3.353   2.074  12.688 -0.9375 -0.7832 -1.8063
   7823SM  C12S10314   3.351   2.208  12.510 -0.5054 -0.1240 -0.1171
   7823SM  H12S10315   3.342   2.116  12.450 -0.2644  0.4588 -1.0593
   7823SM  H12T10316   3.459   2.233  12.513 -0.4566 -0.3795  1.1913
   7823SM  C13S10317   3.275   2.318  12.444  0.7479 -0.5683 -0.4384
   7823SM  H13S10318   3.283   2.416  12.496  1.5434  0.5586 -2.5796
   7823SM  H13T10319   3.166   2.294  12.448  0.4940  0.2771 -1.5888
   7823SM  C14S10320   3.323   2.340  12.303  0.0576  0.4107  0.5673
   7823SM  H14S10321   3.293   2.264  12.227 -1.1122  2.2877 -0.9517
   7823SM  H14T10322   3.433   2.358  12.297  0.2038 -0.8603 -3.2790
   7823SM  C15S10323   3.261   2.465  12.233  0.6596  0.0053 -0.0423
   7823SM  H15S10324   3.292   2.555  12.290 -0.6043  0.8529 -0.6437
   7823SM  H15T10325   3.151   2.453  12.224  0.4710  1.4690  0.0441
   7823SM  C16S10326   3.323   2.493  12.093  0.2743  0.4675  0.0196
   7823SM  H16S10327   3.298   2.420  12.013  1.4411  0.5408 -0.4345
   7823SM  H16T10328   3.431   2.490  12.117  0.9598 -2.0978 -2.7451
   7823SM  C17S10329   3.292   2.636  12.044 -0.3725  0.3653  0.3483
   7823SM  H17S10330   3.358   2.673  11.962 -0.5799 -2.7120 -1.3475
   7823SM  H17T10331   3.316   2.694  12.136 -0.9147 -2.2333  2.2153
   7823SM  C18S10332   3.141   2.666  12.015 -0.1835  0.1051 -0.2814
   7823SM  H18S10333   3.108   2.627  11.916  0.3105  1.1601 -0.8804
   7823SM  H18T10334   3.118   2.774  12.029  0.9634  0.4328 -0.7967
   7823SM  H18U10335   3.068   2.622  12.086 -2.3778  0.9799 -1.8916
   7823SM   C1F10336   3.096   2.054  13.527  0.5792 -0.3152 -0.1220
   7823SM    OF10337   2.972   2.087  13.529 -0.4347 -0.2970 -0.8796
   7823SM   C2F10338   3.141   1.913  13.498 -0.2735  0.5913  0.6217
   7823SM   H2F10339   3.089   1.844  13.568  1.2793 -1.0985  0.1816
   7823SM   H2G10340   3.250   1.907  13.515 -0.2768 -0.6968  0.3045
   7823SM   C3F10341   3.116   1.888  13.346  0.7273 -0.1276 -1.1945
   7823SM   H3F10342   3.015   1.917  13.309  0.7331  1.3056 -0.1597
   7823SM   H3G10343   3.125   1.777  13.338 -1.7687 -0.7104  1.9243
   7823SM   C4F10344   3.220   1.955  13.252  0.2887 -0.2110 -0.2624
   7823SM   H4F10345   3.322   1.937  13.293  0.3548 -1.2772 -0.8464
   7823SM   H4G10346   3.194   2.060  13.227 -0.1251 -0.4174 -0.7065
   7823SM   C5F10347   3.224   1.889  13.114  0.0361 -0.0173 -0.4320
   7823SM   H5F10348   3.261   1.784  13.119  0.5842 -0.0038 -2.9754
   7823SM   H5G10349   3.305   1.950  13.069  1.9908 -0.3654  2.3561
   7823SM   C6F10350   3.102   1.913  13.026 -0.1835 -0.3136 -0.7925
   7823SM   H6F10351   3.084   2.022  13.021  0.3000 -0.1756  0.3876
   7823SM   H6G10352   3.011   1.870  13.073 -0.3822  0.5479 -0.3759
   7823SM   C7F10353   3.115   1.856  12.886  0.1885  0.2812  0.7133
   7823SM   H7F10354   3.145   1.750  12.896  1.1039  0.6310  1.8312
   7823SM   H7G10355   3.204   1.899  12.835  1.0114  0.8277  2.5202
   7823SM   C8F10356   2.985   1.856  12.796 -0.5840 -0.4205  0.3282
   7823SM   H8F10357   2.952   1.961  12.783  0.6727 -0.2019 -1.4003
   7823SM   H8G10358   2.910   1.792  12.847 -3.6211  2.6652  0.1316
   7823SM   C9F10359   3.008   1.793  12.657  0.4420 -0.6753  0.6162
   7823SM   H9F10360   2.909   1.765  12.613  0.3415 -0.3978  0.6646
   7823SM   H9G10361   3.061   1.695  12.657  2.2507  0.2739  0.2495
   7823SM  C10F10362   3.080   1.887  12.550  0.1706 -0.1619 -0.1912
   7823SM  H10F10363   3.182   1.920  12.581 -0.7064  0.9616  1.6250
   7823SM  H10G10364   3.016   1.978  12.550 -0.9066 -0.9037 -0.5246
   7823SM  C11F10365   3.072   1.841  12.409  0.1458  0.2395  0.2544
   7823SM  H11F10366   2.969   1.809  12.382  0.0400 -0.2530  1.1955
   7823SM  H11G10367   3.139   1.752  12.402  0.3919  0.4752 -0.3660
   7823SM  C12F10368   3.120   1.952  12.319  0.1982  0.6303  0.1010
   7823SM  H12F10369   3.229   1.972  12.330  0.9610 -2.8699 -0.0609
   7823SM  H12G10370   3.069   2.041  12.362 -1.2206 -0.8261  1.5777
   7823SM  C13F10371   3.078   1.920  12.177 -0.6543 -0.4453  0.1044
   7823SM  H13F10372   2.968   1.913  12.167 -0.6221 -1.8685  0.5273
   7823SM  H13G10373   3.122   1.822  12.146  1.1302  0.6909 -1.1987
   7823SM  C14F10374   3.121   2.023  12.069  0.5572 -0.2971  0.1154
   7823SM  H14F10375   3.231   2.037  12.073  0.6176 -0.7299  0.0330
   7823SM  H14G10376   3.070   2.119  12.094  0.8156 -0.4158  1.1295
   7823SM  C15F10377   3.091   1.985  11.923 -0.4573  0.6698  0.1398
   7823SM  H15F10378   3.110   1.877  11.906 -1.7784  0.6945 -1.9979
   7823SM  H15G10379   3.169   2.034  11.860 -0.1076 -0.2164 -0.1340
   7823SM  C16F10380   2.964   2.029  11.863 -0.0299 -0.3351 -0.0542
   7823SM  H16F10381   2.941   2.132  11.901  1.7549  0.4836 -1.0761
   7823SM  H16G10382   2.887   1.961  11.906 -0.0317 -0.8474 -0.8528
   7823SM  C17F10383   2.956   2.020  11.711 -0.8735  0.0967 -1.8037
   7823SM  H17F10384   2.997   1.922  11.677 -1.1962 -1.6707  2.3918
   7823SM  H17G10385   3.027   2.102  11.684 -0.4496 -0.0269 -1.0822
   7823SM  C18F10386   2.816   2.050  11.653 -0.4506  0.4002 -0.2098
   7823SM  H18F10387   2.795   2.147  11.703  1.3172  0.4365  0.5680
   7823SM  H18G10388   2.737   1.980  11.688  0.2416  1.4509  4.0095
   7823SM  C19F10389   2.821   2.073  11.504  0.0067  0.0504 -0.1099
   7823SM  H19F10390   2.880   2.000  11.444  0.0727  0.8248 -1.0157
   7823SM  H19G10391   2.875   2.168  11.484 -0.6062  0.9642  2.2412
   7823SM  C20F10392   2.677   2.090  11.455 -0.2569 -0.6458  0.3218
   7823SM  H20F10393   2.624   2.166  11.516  1.7093  2.3755 -1.4552
   7823SM  H20G10394   2.628   1.991  11.464 -0.3794 -0.6554 -0.3716
   7823SM  C21F10395   2.671   2.162  11.317 -0.7970  1.2320  0.3443
   7823SM  H21F10396   2.705   2.083  11.246 -1.4257  0.6082  0.7376
   7823SM  H21G10397   2.740   2.250  11.310  1.7702 -0.7699 -1.4031
   7823SM  C22F10398   2.529   2.199  11.285  0.0298 -0.3812 -0.2904
   7823SM  H22F10399   2.499   2.289  11.342  1.3186  0.4676 -0.8908
   7823SM  H22G10400   2.457   2.121  11.318  1.4113 -1.0808  1.1854
   7823SM  C23F10401   2.502   2.236  11.136  0.5480 -1.3199  1.1264
   7823SM  H23F10402   2.580   2.311  11.111  1.0982 -2.2636 -0.1002
   7823SM  H23G10403   2.401   2.282  11.127  0.0195 -2.3159  1.7340
   7823SM  H23H10404   2.528   2.148  11.074  4.4897  0.2796  0.2329
   7923SM     N10405   0.390   1.073  14.403  0.0536  0.1310  0.0373
   7923SM   C1510406   0.505   1.096  14.309  0.5954 -0.0098  0.2367
   7923SM  H15A10407   0.506   1.028  14.225  0.3745  1.4629 -1.0015
   7923SM  H15B10408   0.590   1.091  14.375  0.6630  0.0965  0.1591
   7923SM  H15C10409   0.492   1.194  14.264  0.0759  0.1418  0.7173
   7923SM   C1410410   0.425   0.945  14.466  0.0671  0.8403  0.0971
   7923SM  H14A10411   0.357   0.936  14.549 -0.6274 -0.4320 -0.5704
   7923SM  H14B10412   0.529   0.944  14.493  0.5046 -0.2606 -1.4362
   7923SM  H14C10413   0.418   0.860  14.398  4.2516 -0.5784  1.1528
   7923SM   C1310414   0.385   1.190  14.495  0.3874  0.1834  0.7352
   7923SM  H13A10415   0.479   1.212  14.545  1.1438  1.8262 -1.2534
   7923SM  H13B10416   0.313   1.166  14.571 -0.3637  1.3863  0.4289
   7923SM  H13C10417   0.354   1.268  14.427 -0.3244 -0.9307 -0.2404
   7923SM   C1210418   0.259   1.059  14.319  0.5484  0.1519  0.2746
   7923SM  H12A10419   0.231   1.162  14.302  0.8774  0.3886  1.1239
   7923SM  H12B10420   0.181   1.013  14.378 -1.0594  1.8553 -0.4386
   7923SM   C1110421   0.259   0.977  14.188 -0.7512 -0.1401 -0.3247
   7923SM  H11A10422   0.285   0.872  14.216  0.2339  0.5143  1.3951
   7923SM  H11B10423   0.341   1.011  14.121  0.0247 -1.0657  0.1321
   7923SM     P10424   0.090   1.120  14.053 -0.4569 -0.0300  0.3499
   7923SM   O1310425  -0.049   1.112  14.007  0.2407 -0.5517  0.1874
   7923SM   O1410426   0.115   1.239  14.139  0.3050  0.1762 -0.8065
   7923SM   O1110427   0.182   1.123  13.922  0.5544  0.5616 -0.3601
   7923SM   O1210428   0.133   0.982  14.128 -0.5163  0.4127 -0.1586
   7923SM   C1S10429   0.236   1.000  13.873  0.0324 -0.1069 -0.2977
   7923SM   H1S10430   0.174   0.911  13.895 -1.4510  0.8297 -0.5568
   7923SM   H1T10431   0.334   0.979  13.921 -0.3994 -0.0785  0.6192
   7923SM    NF10432   0.294   0.864  13.675 -0.5139  0.2066  0.4176
   7923SM   HNF10433   0.388   0.829  13.677  0.1434  1.2067 -3.3123
   7923SM   C2S10434   0.265   0.998  13.716  0.6313 -0.9500 -0.5071
   7923SM   H2S10435   0.172   1.034  13.667  0.4711  0.8031  0.9970
   7923SM   C3S10436   0.378   1.098  13.673 -0.6914  0.2643  0.5453
   7923SM   H3S10437   0.469   1.053  13.716 -0.9328 -0.8137 -0.0500
   7923SM    O310438   0.372   1.227  13.739 -0.1655 -0.1100  0.3272
   7923SM   HO310439   0.317   1.218  13.817 -0.3900 -0.4008  0.1404
   7923SM   C4S10440   0.384   1.112  13.518  0.0521 -0.4614 -0.6870
   7923SM   H4S10441   0.430   1.028  13.465 -0.6004 -0.6022 -1.0463
   7923SM   C5S10442   0.330   1.214  13.448 -0.3585  0.4186  0.1193
   7923SM   H5S10443   0.295   1.309  13.492  1.1402  0.9364  0.2518
   7923SM   C6S10444   0.333   1.227  13.292  0.1175  0.9841  0.0158
   7923SM   H6S10445   0.301   1.327  13.254  1.2546  1.1848 -0.4373
   7923SM   H6T10446   0.255   1.162  13.247 -2.5493  1.6408  3.2550
   7923SM   C7S10447   0.479   1.217  13.233  0.2414 -0.0737 -0.1678
   7923SM   H7S10448   0.536   1.133  13.278 -1.9609 -1.8597 -0.5713
   7923SM   H7T10449   0.526   1.314  13.263 -0.3935 -0.0551  0.8119
   7923SM   C8S10450   0.475   1.192  13.077  1.1379  0.3113 -0.2385
   7923SM   H8S10451   0.426   1.092  13.073 -2.4964  1.9740 -0.6644
   7923SM   H8T10452   0.578   1.190  13.035  0.4376  0.2897 -2.0080
   7923SM   C9S10453   0.387   1.292  12.998  0.1436  0.0965  0.4979
   7923SM   H9S10454   0.417   1.397  13.019 -0.7269  0.2961  0.7897
   7923SM   H9T10455   0.277   1.290  13.013 -0.1406  1.6564 -1.0364
   7923SM  C10S10456   0.397   1.276  12.841 -0.4065  0.2573  0.1438
   7923SM  H10S10457   0.506   1.266  12.823 -0.3917  0.0599  0.3355
   7923SM  H10T10458   0.363   1.373  12.800  1.0831  0.2879 -1.1055
   7923SM  C11S10459   0.305   1.163  12.787  0.6455 -0.3740  0.1763
   7923SM  H11S10460   0.205   1.176  12.834  0.7395  3.2826 -0.3795
   7923SM  H11T10461   0.338   1.062  12.820  2.0927  0.5987  1.9006
   7923SM  C12S10462   0.300   1.157  12.632 -0.2321 -0.2279  0.0734
   7923SM  H12S10463   0.405   1.156  12.597  0.0878 -0.1640  1.0035
   7923SM  H12T10464   0.255   1.252  12.599  0.0997  0.4493  1.4847
   7923SM  C13S10465   0.227   1.035  12.576  0.3668  0.1023  0.7307
   7923SM  H13S10466   0.126   1.017  12.621  0.1285  1.0003  0.5813
   7923SM  H13T10467   0.290   0.951  12.610  1.4551  0.0672 -1.2448
   7923SM  C14S10468   0.221   1.024  12.419 -0.2049  0.9757  0.7082
   7923SM  H14S10469   0.325   1.048  12.387 -0.3472  0.9096  0.1838
   7923SM  H14T10470   0.144   1.099  12.390 -2.2172 -0.2558  2.5719
   7923SM  C15S10471   0.177   0.880  12.375  0.0995 -0.1231 -0.9310
   7923SM  H15S10472   0.073   0.861  12.408  0.5317 -0.0934  0.4921
   7923SM  H15T10473   0.235   0.801  12.428 -1.8926 -0.0467  1.5205
   7923SM  C16S10474   0.186   0.857  12.226 -0.1887  0.2467 -0.1083
   7923SM  H16S10475   0.291   0.859  12.191  0.0331 -0.6438  0.4926
   7923SM  H16T10476   0.138   0.943  12.174  0.1104  1.1531  1.0636
   7923SM  C17S10477   0.124   0.725  12.183  0.4401 -0.1297  0.1581
   7923SM  H17S10478   0.023   0.697  12.219  0.6137 -2.4993 -0.9967
   7923SM  H17T10479   0.183   0.640  12.225  0.9293 -0.3649 -0.9568
   7923SM  C18S10480   0.126   0.695  12.037 -0.1701 -0.5640  0.4221
   7923SM  H18S10481   0.079   0.596  12.018  0.4954 -1.3956  2.7575
   7923SM  H18T10482   0.229   0.692  11.995 -1.1831 -0.0231 -2.3302
   7923SM  H18U10483   0.060   0.762  11.977 -1.1926 -1.5040  0.4645
   7923SM   C1F10484   0.204   0.776  13.673  0.4110  0.1089  0.4012
   7923SM    OF10485   0.087   0.804  13.666  1.2761 -0.4819  0.0974
   7923SM   C2F10486   0.252   0.634  13.694 -0.5389  0.9531 -0.2709
   7923SM   H2F10487   0.255   0.613  13.803 -1.3215 -3.2792 -0.8814
   7923SM   H2G10488   0.352   0.609  13.653 -0.9426 -2.5416  0.4945
   7923SM   C3F10489   0.148   0.526  13.646  0.0417 -0.2136 -0.1629
   7923SM   H3F10490   0.046   0.558  13.675 -0.1593 -0.4344 -0.6050
   7923SM   H3G10491   0.170   0.429  13.696  0.9125 -1.2944 -2.4496
   7923SM   C4F10492   0.131   0.501  13.492 -0.5363 -0.7191 -0.9616
   7923SM   H4F10493   0.231   0.489  13.446 -0.1890 -0.5415 -0.2550
   7923SM   H4G10494   0.079   0.591  13.451  2.1904  0.8726 -1.1253
   7923SM   C5F10495   0.035   0.380  13.471  0.0524 -0.3401 -0.0181
   7923SM   H5F10496  -0.062   0.417  13.510 -1.2311 -1.0378 -2.3477
   7923SM   H5G10497   0.082   0.294  13.524  2.8104 -0.1174 -1.8970
   7923SM   C6F10498   0.026   0.363  13.317 -0.2171 -0.4665 -0.0944
   7923SM   H6F10499  -0.014   0.260  13.305 -1.1013 -0.4042  1.8928
   7923SM   H6G10500   0.132   0.373  13.286  0.5135  0.6635  2.4696
   7923SM   C7F10501  -0.077   0.458  13.238  0.1070  0.1132  0.7611
   7923SM   H7F10502  -0.052   0.566  13.238 -2.1478  0.6767  1.6369
   7923SM   H7G10503  -0.160   0.462  13.311 -2.2661  2.3481 -1.8502
   7923SM   C8F10504  -0.120   0.419  13.094  0.1339 -0.0459  0.2733
   7923SM   H8F10505  -0.039   0.445  13.022  1.3201 -0.8008  1.2680
   7923SM   H8G10506  -0.199   0.491  13.066  0.5812  0.2455 -0.2762
   7923SM   C9F10507  -0.163   0.271  13.081 -0.2786 -0.2870  0.2391
   7923SM   H9F10508  -0.237   0.243  13.158 -1.7728  0.9408 -0.6788
   7923SM   H9G10509  -0.071   0.209  13.088  1.0292  1.6239  0.5387
   7923SM  C10F10510  -0.208   0.248  12.935  0.1946  0.2761 -0.3690
   7923SM  H10F10511  -0.212   0.137  12.927  1.9427  0.2577 -1.8853
   7923SM  H10G10512  -0.126   0.266  12.861  0.6656 -0.2090  0.0195
   7923SM  C11F10513  -0.332   0.317  12.882 -0.4764 -0.0239  0.2772
   7923SM  H11F10514  -0.331   0.425  12.907  0.2828  0.3354 -1.1440
   7923SM  H11G10515  -0.413   0.267  12.938 -0.0287 -1.0159  0.0678
   7923SM  C12F10516  -0.353   0.301  12.733  0.0909 -0.5362 -0.1592
   7923SM  H12F10517  -0.450   0.350  12.713  1.0660  1.4976 -0.1209
   7923SM  H12G10518  -0.364   0.192  12.711  0.2506 -0.3234 -1.3773
   7923SM  C13F10519  -0.249   0.368  12.641  0.6596 -0.3000 -0.3699
   7923SM  H13F10520  -0.152   0.317  12.627  0.6937 -0.4634  0.4411
   7923SM  H13G10521  -0.234   0.471  12.681  0.6159 -0.0829 -0.9077
   7923SM  C14F10522  -0.301   0.383  12.495 -0.0067  0.0436  0.1564
   7923SM  H14F10523  -0.214   0.407  12.431  0.5920  2.6845  1.8025
   7923SM  H14G10524  -0.353   0.480  12.478  0.5721  0.4002  0.3843
   7923SM  C15F10525  -0.387   0.270  12.430 -0.0927 -0.4924 -0.7668
   7923SM  H15F10526  -0.491   0.279  12.468  0.5125 -1.9681  1.4314
   7923SM  H15G10527  -0.359   0.164  12.447 -1.1193 -0.7479 -0.6441
   7923SM  C16F10528  -0.381   0.285  12.273  0.2974 -0.1123  0.2527
   7923SM  H16F10529  -0.280   0.274  12.229 -0.7881  2.0613 -3.1051
   7923SM  H16G10530  -0.431   0.381  12.250  2.2126  0.7974 -0.2724
   7923SM  C17F10531  -0.468   0.170  12.208 -0.7559 -0.0898  0.2341
   7923SM  H17F10532  -0.559   0.171  12.271 -0.7133  2.9723  0.3771
   7923SM  H17G10533  -0.417   0.072  12.226 -0.2197  0.2733  0.7422
   7923SM  C18F10534  -0.496   0.190  12.060  0.0010  0.5256  0.0355
   7923SM  H18F10535  -0.400   0.195  12.005  1.2887  1.1666  2.2059
   7923SM  H18G10536  -0.563   0.276  12.038 -2.3118 -1.5600 -1.6700
   7923SM  C19F10537  -0.562   0.072  11.999  0.1471  0.5571 -0.2171
   7923SM  H19F10538  -0.651   0.039  12.056 -0.7439  1.0502 -1.2942
   7923SM  H19G10539  -0.486  -0.006  11.980  0.5998  1.0349 -0.3920
   7923SM  C20F10540  -0.627   0.098  11.865  0.2626  0.0922  0.2973
   7923SM  H20F10541  -0.698   0.182  11.874  1.5100  1.5283 -2.0808
   7923SM  H20G10542  -0.679   0.003  11.838  0.2959 -0.2802  1.4802
   7923SM  C21F10543  -0.525   0.140  11.766 -0.4934  0.1878  0.4020
   7923SM  H21F10544  -0.462   0.051  11.744 -0.3394  0.5134 -0.5036
   7923SM  H21G10545  -0.451   0.214  11.803  0.8634 -0.5805 -0.6539
   7923SM  C22F10546  -0.592   0.181  11.626 -0.2802 -0.7447 -0.3052
   7923SM  H22F10547  -0.654   0.270  11.649  0.7326 -0.0560 -0.1407
   7923SM  H22G10548  -0.666   0.107  11.590  1.8894 -2.2741 -1.8804
   7923SM  C23F10549  -0.500   0.228  11.505 -0.8126  0.0919 -0.5479
   7923SM  H23F10550  -0.445   0.142  11.463 -0.1333  0.5643 -0.6445
   7923SM  H23G10551  -0.445   0.313  11.550 -1.0106 -0.3762  0.5975
   7923SM  H23H10552  -0.569   0.263  11.425 -0.4683 -0.6179 -1.1641
   8023SM     N10553   2.564   2.264  13.925  0.3582  0.1380  0.7415
   8023SM   C1510554   2.629   2.326  13.798  0.1200 -0.5640 -0.5557
   8023SM  H15A10555   2.728   2.362  13.825 -0.3424  0.5155 -0.2400
   8023SM  H15B10556   2.578   2.413  13.760  1.6911 -0.2949 -2.2308
   8023SM  H15C10557   2.645   2.261  13.713  2.1450 -0.9803  0.0742
   8023SM   C1410558   2.658   2.146  13.952  0.9239 -0.3401 -0.1607
   8023SM  H14A10559   2.678   2.098  13.858  1.4881  0.4337 -0.4510
   8023SM  H14B10560   2.597   2.085  14.017 -0.5748 -0.5355 -1.6988
   8023SM  H14C10561   2.751   2.177  13.997  0.4244 -1.8458  2.0611
   8023SM   C1310562   2.553   2.359  14.032  0.1157 -0.6024 -0.5001
   8023SM  H13A10563   2.497   2.447  14.005 -0.3093 -1.0124 -0.9770
   8023SM  H13B10564   2.648   2.402  14.059  0.7454 -3.1370  1.7795
   8023SM  H13C10565   2.510   2.314  14.120  1.4231  1.2950  1.1682
   8023SM   C1210566   2.428   2.207  13.885  0.2282 -0.0966 -0.3527
   8023SM  H12A10567   2.448   2.154  13.793  0.8989  0.8791 -0.7890
   8023SM  H12B10568   2.362   2.288  13.858  0.3467  0.3543  0.6627
   8023SM   C1110569   2.350   2.115  13.993 -0.4916  0.7225  0.6331
   8023SM  H11A10570   2.252   2.095  13.945  1.3624  0.1900 -3.3313
   8023SM  H11B10571   2.326   2.168  14.088  0.2810  0.4148  1.0073
   8023SM     P10572   2.423   1.867  13.938 -0.0422 -0.0786 -0.1500
   8023SM   O1310573   2.556   1.811  13.941 -0.0944 -0.1507  0.2940
   8023SM   O1410574   2.308   1.778  13.972  0.0106 -0.3162 -0.3411
   8023SM   O1110575   2.399   1.909  13.792  0.5238  0.3146  0.2161
   8023SM   O1210576   2.418   1.996  14.027 -0.3453  0.1113  0.0752
   8023SM   C1S10577   2.337   1.819  13.697  0.1178 -0.0479  0.0048
   8023SM   H1S10578   2.237   1.791  13.735  0.1055 -0.9025 -0.6364
   8023SM   H1T10579   2.392   1.726  13.672  0.6532  0.3795 -0.4530
   8023SM    NF10580   2.245   1.807  13.460  0.7303  0.0544 -0.2358
   8023SM   HNF10581   2.291   1.781  13.375  1.1811  2.4047 -0.8005
   8023SM   C2S10582   2.314   1.888  13.556 -0.5986  0.3843 -0.0209
   8023SM   H2S10583   2.244   1.970  13.582  0.1516  1.0280 -0.0068
   8023SM   C3S10584   2.444   1.942  13.497 -0.2088  0.1799 -0.2452
   8023SM   H3S10585   2.512   1.856  13.477 -1.9570 -1.8608  2.0030
   8023SM    O310586   2.510   2.042  13.579 -0.2358  0.6066  0.1306
   8023SM   HO310587   2.473   2.015  13.663  0.5784 -1.5528 -0.1250
   8023SM   C4S10588   2.431   2.004  13.355 -0.2028 -0.1125 -0.2910
   8023SM   H4S10589   2.465   1.937  13.274 -0.4813 -0.1202 -0.4029
   8023SM   C5S10590   2.382   2.124  13.322 -0.6599 -1.3305  0.9922
   8023SM   H5S10591   2.362   2.206  13.393 -0.1806  0.2510 -0.6227
   8023SM   C6S10592   2.374   2.186  13.186 -0.2596 -0.1397 -0.1417
   8023SM   H6S10593   2.471   2.236  13.161 -0.5581  0.9678  0.8476
   8023SM   H6T10594   2.303   2.271  13.195 -0.1478  0.0959 -1.2942
   8023SM   C7S10595   2.339   2.087  13.071 -0.1998  0.1356 -0.1618
   8023SM   H7S10596   2.243   2.039  13.099  0.2515  0.2163  1.6776
   8023SM   H7T10597   2.419   2.012  13.055 -0.6342 -0.1523 -1.0653
   8023SM   C8S10598   2.333   2.162  12.935 -0.2021  0.0266  0.1882
   8023SM   H8S10599   2.425   2.223  12.922 -0.0768 -0.3415 -0.7791
   8023SM   H8T10600   2.251   2.237  12.934  0.8342  1.1779 -0.2471
   8023SM   C9S10601   2.308   2.067  12.821 -0.0032 -0.0128 -0.1033
   8023SM   H9S10602   2.202   2.033  12.831 -0.2266  0.9722  1.0320
   8023SM   H9T10603   2.377   1.980  12.818 -0.8765 -0.7246 -0.2529
   8023SM  C10S10604   2.322   2.133  12.681  0.0931 -0.2894  0.7699
   8023SM  H10S10605   2.307   2.057  12.601 -0.9640 -0.3528  1.0125
   8023SM  H10T10606   2.410   2.198  12.662 -0.4372  0.1661 -0.2098
   8023SM  C11S10607   2.190   2.217  12.652 -0.8041 -0.6707  0.1371
   8023SM  H11S10608   2.194   2.312  12.710  0.9040 -0.6264 -0.0193
   8023SM  H11T10609   2.101   2.154  12.671 -1.9102  0.6543 -0.4824
   8023SM  C12S10610   2.178   2.237  12.496 -0.0676  0.3579  0.4876
   8023SM  H12S10611   2.145   2.142  12.449 -1.4821  1.6970 -1.3956
   8023SM  H12T10612   2.279   2.248  12.451  0.1138 -1.3697  0.4312
   8023SM  C13S10613   2.080   2.350  12.462 -0.5030 -0.1691 -0.5375
   8023SM  H13S10614   2.119   2.448  12.495 -0.1559 -0.5269  0.1272
   8023SM  H13T10615   1.981   2.315  12.497  0.3341 -1.8373  0.3114
   8023SM  C14S10616   2.053   2.350  12.307 -0.1138 -0.0662  0.2934
   8023SM  H14S10617   1.962   2.415  12.299  0.6472  0.8158 -2.6431
   8023SM  H14T10618   2.044   2.243  12.278  2.6766 -0.2890  0.0117
   8023SM  C15S10619   2.161   2.406  12.213  0.1521 -0.5777 -0.2836
   8023SM  H15S10620   2.263   2.361  12.217  0.4413  0.1141  0.2498
   8023SM  H15T10621   2.173   2.510  12.248 -1.3800 -0.5451  0.2343
   8023SM  C16S10622   2.112   2.409  12.068 -0.0081  0.3840 -0.1223
   8023SM  H16S10623   2.004   2.437  12.064  0.4454  2.0531 -2.1207
   8023SM  H16T10624   2.139   2.309  12.028 -1.6252  0.1028 -0.6141
   8023SM  C17S10625   2.189   2.514  11.982  0.1881  0.5039 -0.0611
   8023SM  H17S10626   2.292   2.478  11.964  1.3954  3.9089 -0.5613
   8023SM  H17T10627   2.199   2.610  12.038  1.0037 -1.3874  3.3558
   8023SM  C18S10628   2.115   2.543  11.852 -0.0380 -0.0425  0.4525
   8023SM  H18S10629   2.135   2.464  11.777  1.8629  0.3035  0.5361
   8023SM  H18T10630   2.168   2.627  11.801  2.2055 -1.8870 -0.4298
   8023SM  H18U10631   2.004   2.546  11.854 -0.0730  0.1040 -0.7049
   8023SM   C1F10632   2.120   1.756  13.480 -0.3773  0.5169 -0.2257
   8023SM    OF10633   2.050   1.791  13.579  0.4369  0.3518 -0.2806
   8023SM   C2F10634   2.064   1.668  13.376 -0.3295  0.1931  0.0464
   8023SM   H2F10635   1.997   1.594  13.426  0.2401  0.9662  2.0205
   8023SM   H2G10636   2.140   1.599  13.334 -0.6110 -0.1132  0.0378
   8023SM   C3F10637   1.978   1.745  13.271 -0.4173  0.7040  0.3538
   8023SM   H3F10638   1.878   1.775  13.311 -0.5410  2.0463 -0.9095
   8023SM   H3G10639   1.952   1.673  13.190 -0.0273  1.4899 -0.4750
   8023SM   C4F10640   2.048   1.861  13.210 -0.0048  0.8079 -0.2825
   8023SM   H4F10641   2.145   1.825  13.170  0.3568  1.1559  0.2756
   8023SM   H4G10642   2.063   1.943  13.283 -0.9354  0.7511 -0.0198
   8023SM   C5F10643   1.984   1.916  13.086  0.2225  0.5571 -0.8911
   8023SM   H5F10644   2.011   2.021  13.066 -0.8687  1.0037 -0.1413
   8023SM   H5G10645   1.874   1.919  13.103  0.7092  0.5916  3.5842
   8023SM   C6F10646   2.009   1.841  12.953  0.2375  0.3858  0.1339
   8023SM   H6F10647   1.965   1.739  12.959 -0.6140  0.6762 -0.9127
   8023SM   H6G10648   2.119   1.836  12.935 -0.0173 -0.4867 -1.3451
   8023SM   C7F10649   1.951   1.920  12.841  0.0392 -0.4145 -0.3806
   8023SM   H7F10650   1.993   2.022  12.829 -0.7637 -0.3288 -3.0656
   8023SM   H7G10651   1.842   1.934  12.855 -0.0852 -0.7753 -0.9384
   8023SM   C8F10652   1.981   1.844  12.711 -0.6607  0.1454 -0.5192
   8023SM   H8F10653   1.941   1.740  12.717  2.0407 -0.9560 -0.4084
   8023SM   H8G10654   2.091   1.835  12.705 -0.6806  0.2092 -1.1158
   8023SM   C9F10655   1.923   1.914  12.587  0.8537 -0.2195 -0.1116
   8023SM   H9F10656   1.935   2.024  12.601 -1.5802  0.4406 -2.4406
   8023SM   H9G10657   1.815   1.900  12.564  0.8593 -0.1157 -0.2025
   8023SM  C10F10658   2.001   1.870  12.461 -0.3545 -0.8621 -0.1243
   8023SM  H10F10659   2.011   1.760  12.456  1.2974 -0.6945 -2.8664
   8023SM  H10G10660   2.099   1.915  12.486 -1.4197  1.1836  0.6150
   8023SM  C11F10661   1.942   1.937  12.338  0.1219  0.8486  0.8072
   8023SM  H11F10662   1.940   2.047  12.354 -1.9512  0.9053  0.4539
   8023SM  H11G10663   1.836   1.906  12.326  0.8751 -2.4038  1.3930
   8023SM  C12F10664   2.023   1.889  12.214 -0.0356 -0.3109  0.0549
   8023SM  H12F10665   2.030   1.779  12.209 -0.4354 -0.3316 -0.0991
   8023SM  H12G10666   2.125   1.935  12.212  0.0915 -0.5695  0.5976
   8023SM  C13F10667   1.956   1.938  12.083 -0.5954  0.2358 -0.4511
   8023SM  H13F10668   1.970   2.048  12.071  0.5924  0.0060 -1.4454
   8023SM  H13G10669   1.848   1.917  12.083 -1.4972  3.8416  1.8372
   8023SM  C14F10670   2.017   1.884  11.952 -0.5378  0.2095 -0.4197
   8023SM  H14F10671   2.050   1.780  11.975 -1.0914 -0.2244 -1.5249
   8023SM  H14G10672   2.103   1.945  11.918  1.1370 -2.7118 -1.7827
   8023SM  C15F10673   1.917   1.862  11.830  0.0937 -0.4712 -0.9191
   8023SM  H15F10674   1.874   1.958  11.793 -2.2586 -1.8484 -1.9265
   8023SM  H15G10675   1.832   1.799  11.864  1.0570 -0.4686  1.7471
   8023SM  C16F10676   1.979   1.773  11.720 -0.4078  0.0326  0.7357
   8023SM  H16F10677   2.012   1.674  11.756  1.8125 -0.5508 -2.4832
   8023SM  H16G10678   2.074   1.816  11.682 -0.5374 -0.6513 -0.3889
   8023SM  C17F10679   1.884   1.762  11.598 -0.0924 -0.6647  0.3110
   8023SM  H17F10680   1.779   1.755  11.633 -0.1315 -0.7326  0.1794
   8023SM  H17G10681   1.920   1.679  11.534  1.5756  1.2275 -1.3109
   8023SM  C18F10682   1.877   1.885  11.503 -0.2833 -0.0837 -0.0200
   8023SM  H18F10683   1.983   1.906  11.475  0.1806 -0.4010  1.4042
   8023SM  H18G10684   1.846   1.974  11.562 -0.5133 -0.6561  0.7341
   8023SM  C19F10685   1.802   1.855  11.382  0.3056 -0.1893 -0.0777
   8023SM  H19F10686   1.695   1.855  11.409  0.5076 -0.5961  0.7447
   8023SM  H19G10687   1.833   1.755  11.344 -0.6413 -1.8958  3.2532
   8023SM  C20F10688   1.826   1.958  11.272  0.1558 -0.6502  0.3128
   8023SM  H20F10689   1.819   2.062  11.310  1.4675  0.0784 -1.3442
   8023SM  H20G10690   1.734   1.937  11.212 -2.5586  2.6115  2.8876
   8023SM  C21F10691   1.961   1.951  11.189  0.1960 -0.6388  0.0613
   8023SM  H21F10692   1.970   1.846  11.153 -0.2734 -0.5939 -0.1942
   8023SM  H21G10693   2.048   1.983  11.250 -0.1087  2.7135 -1.0553
   8023SM  C22F10694   1.966   2.039  11.070  0.1689 -0.0904  0.7573
   8023SM  H22F10695   1.917   2.135  11.096 -1.1537 -0.2048 -1.0789
   8023SM  H22G10696   1.910   2.000  10.983  1.8018 -1.0895  0.0941
   8023SM  C23F10697   2.099   2.080  11.012  0.8166 -0.0707 -0.5409
   8023SM  H23F10698   2.074   2.158  10.937  0.6111  0.9889  0.5829
   8023SM  H23G10699   2.148   1.990  10.970  0.7328  0.2074 -1.2507
   8023SM  H23H10700   2.166   2.120  11.092  1.2576  0.7079 -1.2786
   8123SM     N10701   3.961   4.751   8.810  0.7556 -0.2489 -0.0587
   8123SM   C1510702   3.868   4.761   8.689 -0.3750  0.0511  0.1547
   8123SM  H15A10703   3.767   4.764   8.727 -0.2454 -0.2005  0.5206
   8123SM  H15B10704   3.866   4.669   8.632  2.7209 -0.5376  0.8349
   8123SM  H15C10705   3.890   4.847   8.627  2.0724  1.1728  2.4373
   8123SM   C1410706   4.092   4.698   8.760 -0.6039 -0.9479  0.4636
   8123SM  H14A10707   4.161   4.706   8.842 -0.8641  1.6781  0.5182
   8123SM  H14B10708   4.146   4.754   8.685  1.2853 -2.1881  0.8240
   8123SM  H14C10709   4.071   4.599   8.721 -2.4455 -0.9057  1.2203
   8123SM   C1310710   3.966   4.888   8.866 -0.1358 -0.6826 -0.1082
   8123SM  H13A10711   4.000   4.962   8.795 -1.4243 -0.8257 -0.8996
   8123SM  H13B10712   4.028   4.899   8.954  0.0629  0.9210 -0.4061
   8123SM  H13C10713   3.867   4.918   8.897 -0.3717  1.1834 -2.3920
   8123SM   C1210714   3.915   4.648   8.918  0.5002  0.1130  0.2652
   8123SM  H12A10715   3.913   4.557   8.861  0.2347  1.1731 -1.4773
   8123SM  H12B10716   3.810   4.664   8.939  0.3429 -1.0503  0.4220
   8123SM   C1110717   3.995   4.624   9.043 -0.0394 -0.3589  0.3797
   8123SM  H11A10718   4.094   4.587   9.007 -0.3346 -1.0149  0.2280
   8123SM  H11B10719   3.938   4.552   9.105  0.3770 -1.0654 -0.0298
   8123SM     P10720   4.137   4.749   9.215 -0.0162 -0.1957  0.0265
   8123SM   O1310721   4.257   4.775   9.127  0.2127  0.2276  0.5249
   8123SM   O1410722   4.114   4.839   9.328  0.6696  0.0125 -0.1118
   8123SM   O1110723   4.147   4.592   9.267  0.3488  0.0939  0.2305
   8123SM   O1210724   4.007   4.745   9.117 -0.0062 -0.5636 -0.2753
   8123SM   C1S10725   4.219   4.547   9.382  0.0070  0.5800 -0.0017
   8123SM   H1S10726   4.321   4.592   9.385  0.7021 -0.9684  1.1944
   8123SM   H1T10727   4.217   4.437   9.392 -0.1797  0.7311  2.1483
   8123SM    NF10728   4.240   4.546   9.632  0.2454  0.0469 -0.1115
   8123SM   HNF10729   4.217   4.457   9.672  0.3348  0.0244 -0.1088
   8123SM   C2S10730   4.162   4.594   9.524  0.3281  0.5690  0.4174
   8123SM   H2S10731   4.174   4.704   9.510  1.9256  0.3530 -0.0772
   8123SM   C3S10732   4.016   4.554   9.536  0.7832  0.8413  0.4280
   8123SM   H3S10733   4.013   4.443   9.538 -1.6962  0.7260 -2.3886
   8123SM    O310734   3.930   4.580   9.425 -0.2594 -0.0991  1.0504
   8123SM   HO310735   3.983   4.601   9.348 -1.0597  1.1116  0.7834
   8123SM   C4S10736   3.962   4.605   9.659  0.4938  0.1339  0.3766
   8123SM   H4S10737   3.952   4.526   9.735 -1.6224 -0.4492 -0.4349
   8123SM   C5S10738   3.917   4.726   9.688 -0.2554  0.1517 -0.2378
   8123SM   H5S10739   3.909   4.807   9.613  1.6803  1.6454  1.0665
   8123SM   C6S10740   3.856   4.761   9.822 -0.2503  0.2433 -0.4640
   8123SM   H6S10741   3.745   4.761   9.813 -0.6345 -0.2021  2.9964
   8123SM   H6T10742   3.883   4.866   9.850 -1.2484  0.2750  0.4571
   8123SM   C7S10743   3.893   4.662   9.929  0.5270  0.7022 -0.0393
   8123SM   H7S10744   3.999   4.630   9.921  0.3397 -0.2924  1.1479
   8123SM   H7T10745   3.839   4.568   9.909 -0.7483  1.7941 -1.9754
   8123SM   C8S10746   3.872   4.709  10.077 -0.2463  0.0366 -0.4291
   8123SM   H8S10747   3.762   4.710  10.096 -0.1887  0.4372 -0.1121
   8123SM   H8T10748   3.910   4.813  10.081 -1.9891  0.8207 -2.1916
   8123SM   C9S10749   3.949   4.620  10.177 -0.1357  0.2306 -0.3133
   8123SM   H9S10750   4.059   4.630  10.173 -0.0046 -1.3946 -2.4434
   8123SM   H9T10751   3.926   4.517  10.141  0.3791 -0.1109  0.3017
   8123SM  C10S10752   3.879   4.645  10.313  0.2892 -0.0003  1.1637
   8123SM  H10S10753   3.772   4.670  10.304  0.0764 -1.6331 -2.6752
   8123SM  H10T10754   3.913   4.738  10.363  0.3346  0.4476  0.3255
   8123SM  C11S10755   3.893   4.534  10.422  0.0473 -0.2787  0.7954
   8123SM  H11S10756   3.998   4.498  10.426  0.1723  0.1645  2.3444
   8123SM  H11T10757   3.826   4.451  10.394 -2.0827  1.3968  0.6826
   8123SM  C12S10758   3.849   4.581  10.558  0.0639 -0.5768 -0.5723
   8123SM  H12S10759   3.762   4.650  10.562  1.1549  0.8213  2.1511
   8123SM  H12T10760   3.930   4.648  10.595  0.4331 -1.9687  1.3195
   8123SM  C13S10761   3.828   4.472  10.664 -0.4486  0.1566  0.1435
   8123SM  H13S10762   3.877   4.373  10.649 -1.2177 -0.0636 -1.1036
   8123SM  H13T10763   3.719   4.448  10.672 -0.7227  0.5269 -1.9501
   8123SM  C14S10764   3.874   4.514  10.810  0.0214 -0.2336 -0.8193
   8123SM  H14S10765   3.873   4.623  10.832 -0.3260 -0.1424 -1.2702
   8123SM  H14T10766   3.978   4.484  10.835 -0.4527 -1.6286 -0.4499
   8123SM  C15S10767   3.780   4.463  10.928  0.1443 -0.4934  0.3321
   8123SM  H15S10768   3.671   4.475  10.910  0.4044  1.0692 -0.3412
   8123SM  H15T10769   3.798   4.527  11.017  2.1633  0.9138 -1.0117
   8123SM  C16S10770   3.818   4.316  10.968 -0.7367 -0.1541  0.1810
   8123SM  H16S10771   3.838   4.270  10.869  2.2705  1.2392  0.0540
   8123SM  H16T10772   3.736   4.278  11.034  1.4771  0.2947  3.4288
   8123SM  C17S10773   3.942   4.299  11.056  0.1048 -0.6201  0.2735
   8123SM  H17S10774   3.919   4.344  11.155 -1.2750 -1.0702  0.1714
   8123SM  H17T10775   4.034   4.352  11.024  1.0156 -0.0279  3.4899
   8123SM  C18S10776   3.979   4.151  11.088  0.6043  0.7771 -0.2830
   8123SM  H18S10777   4.002   4.096  10.994 -0.7924  2.3737 -1.6495
   8123SM  H18T10778   3.904   4.108  11.157 -0.4520  3.0442  0.1011
   8123SM  H18U10779   4.079   4.156  11.136  2.1475 -1.2456 -2.9575
   8123SM   C1F10780   4.360   4.599   9.665 -0.0284  0.0376 -0.1666
   8123SM    OF10781   4.400   4.693   9.601 -0.7429 -0.5215 -0.4015
   8123SM   C2F10782   4.435   4.537   9.781 -0.0588 -0.5154 -0.5083
   8123SM   H2F10783   4.545   4.538   9.771 -0.0543 -1.0833 -0.5712
   8123SM   H2G10784   4.411   4.431   9.803  0.3507 -0.0304  2.7358
   8123SM   C3F10785   4.404   4.613   9.911 -0.5467  0.1883 -0.4613
   8123SM   H3F10786   4.299   4.642   9.931 -0.1342  0.6124  1.2342
   8123SM   H3G10787   4.449   4.714   9.894  2.9205 -1.3039 -0.8828
   8123SM   C4F10788   4.460   4.554  10.040 -0.1727 -0.2218 -0.0695
   8123SM   H4F10789   4.467   4.634  10.116  1.8138  0.6248 -1.0530
   8123SM   H4G10790   4.557   4.500  10.033 -0.4663 -1.2306  2.5796
   8123SM   C5F10791   4.370   4.449  10.106  0.3620 -0.3327  0.0089
   8123SM   H5F10792   4.358   4.373  10.027  0.4960 -0.8546  0.4857
   8123SM   H5G10793   4.276   4.501  10.138  0.6865 -0.2868  0.9176
   8123SM   C6F10794   4.433   4.385  10.230 -0.7073 -0.2100  0.4625
   8123SM   H6F10795   4.467   4.465  10.300  0.6252  0.1256 -0.5339
   8123SM   H6G10796   4.512   4.321  10.187 -2.2085 -1.6845 -0.2219
   8123SM   C7F10797   4.321   4.301  10.302  0.2947 -0.0420 -0.7475
   8123SM   H7F10798   4.273   4.244  10.220  0.3699  2.7058 -2.8602
   8123SM   H7G10799   4.241   4.367  10.343 -1.5324 -3.6012  1.9398
   8123SM   C8F10800   4.391   4.214  10.407 -0.1981 -0.3854  0.0557
   8123SM   H8F10801   4.485   4.177  10.361  1.3217 -0.1284  2.7787
   8123SM   H8G10802   4.324   4.126  10.421 -1.1617  0.0958 -1.2733
   8123SM   C9F10803   4.429   4.279  10.544  0.3098  0.1023  0.2170
   8123SM   H9F10804   4.484   4.371  10.514  1.4167 -0.6466 -0.1033
   8123SM   H9G10805   4.498   4.211  10.597  2.7916  1.0832 -1.5854
   8123SM  C10F10806   4.311   4.326  10.636 -0.2472  0.6804  0.0567
   8123SM  H10F10807   4.246   4.392  10.575 -0.5628  0.7242  0.4362
   8123SM  H10G10808   4.367   4.375  10.719  2.0557  0.1588 -1.1178
   8123SM  C11F10809   4.223   4.206  10.688  0.5281 -0.1644 -0.5465
   8123SM  H11F10810   4.175   4.169  10.595 -0.2839  0.3095 -0.3216
   8123SM  H11G10811   4.131   4.236  10.742  0.6367 -0.0976 -0.3955
   8123SM  C12F10812   4.289   4.092  10.772  0.1295  0.3220  0.9748
   8123SM  H12F10813   4.383   4.065  10.718  1.2028  2.6157  1.5607
   8123SM  H12G10814   4.224   4.003  10.764  1.2890 -0.5324  0.7407
   8123SM  C13F10815   4.321   4.143  10.913 -0.1937  0.2772 -0.3731
   8123SM  H13F10816   4.228   4.186  10.958  1.3514  0.2231  3.2742
   8123SM  H13G10817   4.388   4.230  10.898  0.5578  0.5462  3.5293
   8123SM  C14F10818   4.375   4.043  11.006  0.4916 -0.1106 -0.6268
   8123SM  H14F10819   4.288   3.994  11.055 -1.2227 -0.0768 -3.4087
   8123SM  H14G10820   4.426   4.102  11.085 -1.4864 -0.4560  0.9998
   8123SM  C15F10821   4.482   3.954  10.944 -0.8810 -0.0385  0.3158
   8123SM  H15F10822   4.438   3.885  10.869 -0.4051  0.0663 -0.0659
   8123SM  H15G10823   4.523   3.886  11.022 -0.0691  0.3602  0.2449
   8123SM  C16F10824   4.603   4.019  10.888 -0.4295  0.2640  0.0933
   8123SM  H16F10825   4.558   4.097  10.823  0.0230 -0.9306 -1.7268
   8123SM  H16G10826   4.644   3.952  10.809 -2.6417 -2.9655  1.4323
   8123SM  C17F10827   4.699   4.071  10.990 -0.4214 -0.5836 -0.1464
   8123SM  H17F10828   4.730   3.992  11.062  0.7590  0.1740  0.1950
   8123SM  H17G10829   4.641   4.155  11.032  0.1921 -0.3785  0.2950
   8123SM  C18F10830   4.830   4.144  10.940  0.0891  0.2164 -0.2791
   8123SM  H18F10831   4.798   4.209  10.856  3.0350  3.3653  0.8184
   8123SM  H18G10832   4.908   4.071  10.911 -0.8955 -0.6560 -0.8359
   8123SM  C19F10833   4.878   4.251  11.048  0.0763 -0.0674 -0.0164
   8123SM  H19F10834   4.881   4.203  11.148 -0.2108 -1.6788 -0.7525
   8123SM  H19G10835   4.802   4.332  11.059  0.4116  0.5513 -1.9588
   8123SM  C20F10836   5.008   4.310  11.009 -0.7315  0.1203  0.5336
   8123SM  H20F10837   5.014   4.410  11.058  0.1840 -0.4860  1.7032
   8123SM  H20G10838   5.014   4.331  10.900  1.4282  0.8100  0.7346
   8123SM  C21F10839   5.126   4.233  11.059  0.2164  0.6797  0.2667
   8123SM  H21F10840   5.136   4.130  11.019  0.5410  0.7894  0.0602
   8123SM  H21G10841   5.114   4.233  11.170  0.5625 -0.2333  0.3073
   8123SM  C22F10842   5.268   4.299  11.036 -0.1584  0.3940  0.3742
   8123SM  H22F10843   5.284   4.266  10.931 -0.6074  0.6789  0.2157
   8123SM  H22G10844   5.357   4.259  11.088  2.2374  2.9046 -1.5370
   8123SM  C23F10845   5.263   4.453  11.032  0.3357  0.3103  0.3525
   8123SM  H23F10846   5.363   4.494  11.005  0.9101 -0.9201  0.5219
   8123SM  H23G10847   5.228   4.498  11.127  2.3439  1.2623  0.6960
   8123SM  H23H10848   5.190   4.476  10.952  0.0624  0.1276  0.5472
   8223SM     N10849   4.185   6.520   8.590 -0.1209 -0.3293 -0.6898
   8223SM   C1510850   4.073   6.598   8.532  0.1190 -1.0927  0.3491
   8223SM  H15A10851   3.989   6.584   8.599 -0.9613  1.2436 -0.3986
   8223SM  H15B10852   4.049   6.554   8.436 -0.1832 -2.3050  0.9621
   8223SM  H15C10853   4.084   6.703   8.508 -0.0720 -1.4330 -1.3402
   8223SM   C1410854   4.157   6.382   8.559 -0.7729  0.1214 -0.0278
   8223SM  H14A10855   4.146   6.367   8.452 -1.0108  0.5604 -0.0698
   8223SM  H14B10856   4.068   6.349   8.610 -0.6495  1.0481  0.8099
   8223SM  H14C10857   4.244   6.324   8.586 -1.6087 -1.4584 -0.6125
   8223SM   C1310858   4.301   6.571   8.521  0.0605  0.7565 -0.1291
   8223SM  H13A10859   4.299   6.566   8.413  1.9855 -1.4350 -0.1601
   8223SM  H13B10860   4.386   6.512   8.553 -1.1336 -0.0774  1.6541
   8223SM  H13C10861   4.328   6.672   8.548 -2.2230  0.6492  3.0789
   8223SM   C1210862   4.201   6.542   8.737  0.8945  0.5956  0.4177
   8223SM  H12A10863   4.212   6.650   8.738  2.2473  0.4778  1.6414
   8223SM  H12B10864   4.297   6.506   8.769  0.9734  0.8332  0.4503
   8223SM   C1110865   4.099   6.498   8.837 -0.1827  0.2632  0.8456
   8223SM  H11A10866   3.999   6.542   8.819  0.1748 -0.1285 -2.6464
   8223SM  H11B10867   4.122   6.539   8.938  0.4409  0.2373  0.7144
   8223SM     P10868   3.966   6.271   8.855  0.1479 -0.1389  0.4489
   8223SM   O1310869   3.871   6.338   8.760  0.1786 -0.1089 -0.1266
   8223SM   O1410870   3.994   6.127   8.837 -0.2606  0.2290 -0.0429
   8223SM   O1110871   3.916   6.299   8.999 -0.7058  0.4279 -0.4992
   8223SM   O1210872   4.101   6.352   8.842  0.6561 -0.1637  0.2107
   8223SM   C1S10873   3.959   6.254   9.127 -0.1807  0.0949  0.4486
   8223SM   H1S10874   4.056   6.199   9.117 -0.2791  0.0123 -0.0956
   8223SM   H1T10875   3.876   6.191   9.165 -0.1568 -1.7485 -2.2612
   8223SM    NF10876   4.026   6.321   9.370  0.1035  0.4265  0.2705
   8223SM   HNF10877   3.966   6.325   9.449  1.3084 -1.6034  1.3750
   8223SM   C2S10878   3.986   6.374   9.238 -0.2719 -0.2084 -0.2452
   8223SM   H2S10879   4.070   6.432   9.195 -0.1316 -0.4129 -0.2524
   8223SM   C3S10880   3.861   6.468   9.251  0.2119  0.0245  0.9655
   8223SM   H3S10881   3.773   6.409   9.285  0.4243 -0.4544  0.6875
   8223SM    O310882   3.819   6.520   9.126 -0.3762 -0.2437  0.1062
   8223SM   HO310883   3.822   6.445   9.066 -1.3522 -0.3647  0.1820
   8223SM   C4S10884   3.895   6.572   9.348  0.5362 -0.7724 -0.2148
   8223SM   H4S10885   3.844   6.563   9.445 -0.3692 -0.3450 -0.6389
   8223SM   C5S10886   3.974   6.680   9.333  0.1841 -0.6097  0.4959
   8223SM   H5S10887   4.016   6.698   9.233  1.4056  1.5813  1.3310
   8223SM   C6S10888   4.015   6.782   9.437  0.0580 -0.5435 -0.6473
   8223SM   H6S10889   3.979   6.882   9.403  0.7264 -0.4566 -1.1305
   8223SM   H6T10890   4.126   6.791   9.445  0.1570 -1.5889 -0.7777
   8223SM   C7S10891   3.956   6.763   9.577  0.2797  1.0779  0.1773
   8223SM   H7S10892   3.982   6.662   9.615 -0.0059  0.7802 -0.4133
   8223SM   H7T10893   3.845   6.771   9.570  0.4782  3.2003 -1.9257
   8223SM   C8S10894   4.001   6.869   9.674 -0.0655 -0.1478  0.6315
   8223SM   H8S10895   3.973   6.968   9.633  1.0985 -0.1906 -0.3467
   8223SM   H8T10896   4.112   6.858   9.674 -0.2049 -1.8665  0.4257
   8223SM   C9S10897   3.950   6.842   9.814 -0.0357  0.2176 -0.3294
   8223SM   H9S10898   3.959   6.733   9.829 -2.4989 -0.3535 -2.4028
   8223SM   H9T10899   3.844   6.874   9.807 -0.4290 -1.1269 -0.8348
   8223SM  C10S10900   4.027   6.912   9.924 -0.6004 -0.1306  0.2215
   8223SM  H10S10901   4.024   7.023   9.923  0.0407 -0.0627 -2.7599
   8223SM  H10T10902   4.133   6.893   9.897 -0.8728 -0.7556 -0.4345
   8223SM  C11S10903   4.002   6.859  10.064 -0.5974  0.1307  0.0573
   8223SM  H11S10904   4.087   6.890  10.127 -2.7575  1.8827  2.3197
   8223SM  H11T10905   4.007   6.748  10.073  2.4924  0.2510  1.1250
   8223SM  C12S10906   3.882   6.932  10.121  0.2297 -0.1201  0.6476
   8223SM  H12S10907   3.798   6.927  10.049  1.4462  0.3400 -0.8557
   8223SM  H12T10908   3.923   7.035  10.114  2.0473 -0.8979 -1.1685
   8223SM  C13S10909   3.830   6.883  10.258  0.5514 -0.1386 -0.2825
   8223SM  H13S10910   3.812   6.775  10.240 -0.4120  0.5403 -4.2605
   8223SM  H13T10911   3.733   6.932  10.280  0.4729 -0.2772 -0.3267
   8223SM  C14S10912   3.929   6.892  10.370 -0.0154 -0.5008 -0.1040
   8223SM  H14S10913   3.967   6.996  10.371  0.5302 -0.6446 -2.2220
   8223SM  H14T10914   4.016   6.825  10.354 -0.4385 -1.2329  0.5626
   8223SM  C15S10915   3.869   6.859  10.505  0.9760  0.3578 -0.2213
   8223SM  H15S10916   3.827   6.757  10.491 -2.4888  1.5924  0.1054
   8223SM  H15T10917   3.777   6.917  10.529  1.4940  0.6963  1.0731
   8223SM  C16S10918   3.962   6.861  10.629 -0.5298 -0.5051 -0.0170
   8223SM  H16S10919   4.003   6.964  10.625 -0.2016 -0.5433  1.6482
   8223SM  H16T10920   4.041   6.783  10.631 -0.9871 -1.0391  3.5617
   8223SM  C17S10921   3.895   6.861  10.763 -0.7709 -0.4753 -1.1379
   8223SM  H17S10922   3.828   6.773  10.758  0.1942 -1.3369  0.3582
   8223SM  H17T10923   3.828   6.949  10.770 -0.3036 -0.2125  0.3785
   8223SM  C18S10924   3.978   6.862  10.897  0.0012 -0.1300  0.9300
   8223SM  H18S10925   3.909   6.898  10.975 -0.1123 -0.6199  1.0583
   8223SM  H18T10926   4.059   6.936  10.876 -0.7862 -0.1039 -2.8963
   8223SM  H18U10927   4.016   6.759  10.914  1.5845  0.1683 -0.5080
   8223SM   C1F10928   4.142   6.264   9.389  0.0661  0.0986 -0.1483
   8223SM    OF10929   4.221   6.258   9.294  0.8893 -0.0090 -0.0525
   8223SM   C2F10930   4.162   6.189   9.513 -0.2241  0.5659 -0.1390
   8223SM   H2F10931   4.080   6.114   9.511 -1.2322  1.6482 -2.0562
   8223SM   H2G10932   4.143   6.254   9.601 -1.5585 -1.5232  1.1967
   8223SM   C3F10933   4.297   6.124   9.530 -0.7901  0.1960  0.0469
   8223SM   H3F10934   4.376   6.203   9.534 -0.7926  0.2406 -0.7717
   8223SM   H3G10935   4.319   6.043   9.458 -0.1040  0.7706 -0.4062
   8223SM   C4F10936   4.302   6.061   9.673 -0.1236  1.0463  0.4851
   8223SM   H4F10937   4.227   5.979   9.671  0.7216  0.2546 -0.1126
   8223SM   H4G10938   4.273   6.124   9.759 -0.5890 -1.4164  2.2490
   8223SM   C5F10939   4.437   5.992   9.704  0.2139  0.7708 -0.6302
   8223SM   H5F10940   4.519   6.060   9.737  0.1985  0.7466 -0.5420
   8223SM   H5G10941   4.480   5.944   9.614  0.2019 -1.1831  0.3751
   8223SM   C6F10942   4.424   5.880   9.811 -0.6966 -1.1526 -0.7240
   8223SM   H6F10943   4.510   5.809   9.810  0.2665 -0.0468  0.2681
   8223SM   H6G10944   4.337   5.814   9.789 -0.8896 -1.7334  1.5387
   8223SM   C7F10945   4.409   5.952   9.943 -0.1653 -0.5231 -0.5618
   8223SM   H7F10946   4.311   6.006   9.951  0.0746 -0.2949  1.2321
   8223SM   H7G10947   4.492   6.026   9.940  0.4209 -1.2097 -1.8141
   8223SM   C8F10948   4.423   5.866  10.065  1.1035 -0.0317  0.1504
   8223SM   H8F10949   4.530   5.838  10.068  1.0594 -0.8033 -2.5113
   8223SM   H8G10950   4.352   5.782  10.050  1.1594  0.0358 -0.5289
   8223SM   C9F10951   4.396   5.941  10.197  0.1658  0.4909  0.6164
   8223SM   H9F10952   4.407   5.861  10.273 -0.6684 -1.3395 -1.0948
   8223SM   H9G10953   4.292   5.977  10.208  0.5240  1.8453 -0.2109
   8223SM  C10F10954   4.475   6.072  10.220 -0.0840 -0.7041  0.3030
   8223SM  H10F10955   4.444   6.140  10.137 -2.8525 -0.6664  1.2372
   8223SM  H10G10956   4.584   6.056  10.221 -0.1956 -1.4906  0.9738
   8223SM  C11F10957   4.425   6.143  10.348 -0.3709 -0.3841  0.4691
   8223SM  H11F10958   4.315   6.158  10.348 -0.2201  0.8642  0.2478
   8223SM  H11G10959   4.478   6.241  10.355  1.6586 -1.3931  0.1852
   8223SM  C12F10960   4.477   6.067  10.470  0.2082 -0.8576 -0.0591
   8223SM  H12F10961   4.587   6.066  10.463  0.3185 -0.6203  1.3241
   8223SM  H12G10962   4.439   5.962  10.472  2.5278 -1.7430 -0.0905
   8223SM  C13F10963   4.432   6.119  10.606 -0.1382 -0.5375  0.6785
   8223SM  H13F10964   4.323   6.136  10.595  0.1622  0.1249 -1.8259
   8223SM  H13G10965   4.472   6.221  10.621  0.9822 -0.9231  0.4352
   8223SM  C14F10966   4.478   6.036  10.733  0.9375 -0.0294  0.5802
   8223SM  H14F10967   4.588   6.025  10.744  0.9136 -0.2067  0.6403
   8223SM  H14G10968   4.425   5.939  10.718 -2.9245  1.9721 -0.0464
   8223SM  C15F10969   4.426   6.102  10.865 -0.4370 -0.0950 -0.8519
   8223SM  H15F10970   4.317   6.123  10.855 -0.0827  2.3373 -0.0957
   8223SM  H15G10971   4.475   6.201  10.872  0.6105 -0.6649  0.1717
   8223SM  C16F10972   4.443   5.999  10.984 -0.2095 -0.3933  1.1476
   8223SM  H16F10973   4.547   6.000  11.022  0.2717  1.7190 -0.0074
   8223SM  H16G10974   4.429   5.898  10.941 -0.9998 -1.1138  3.0033
   8223SM  C17F10975   4.346   6.011  11.103 -0.7496  0.1219  0.1411
   8223SM  H17F10976   4.241   5.985  11.077 -0.0460 -0.3576 -2.6219
   8223SM  H17G10977   4.358   6.115  11.141  0.6192 -0.1338  0.4944
   8223SM  C18F10978   4.378   5.907  11.215  0.4585 -0.7470 -0.7779
   8223SM  H18F10979   4.323   5.928  11.309 -0.1897 -0.2681 -1.2559
   8223SM  H18G10980   4.485   5.918  11.242  0.5913 -1.1549 -1.1262
   8223SM  C19F10981   4.353   5.766  11.171 -0.2852  0.0821  0.7071
   8223SM  H19F10982   4.432   5.748  11.096  0.1857 -0.1934  1.2623
   8223SM  H19G10983   4.251   5.753  11.128  0.9214 -1.4800 -1.9466
   8223SM  C20F10984   4.375   5.657  11.284  0.5128 -0.8495 -0.1485
   8223SM  H20F10985   4.319   5.572  11.242  0.5880 -0.5765 -0.8089
   8223SM  H20G10986   4.330   5.693  11.379 -0.8392 -1.3326 -0.5899
   8223SM  C21F10987   4.521   5.630  11.320  0.1948 -0.2177  0.5480
   8223SM  H21F10988   4.559   5.728  11.355  1.8277 -0.8947  0.7472
   8223SM  H21G10989   4.581   5.594  11.234  2.0521 -0.7173  1.9799
   8223SM  C22F10990   4.544   5.538  11.446 -0.6761  0.1504  0.5749
   8223SM  H22F10991   4.502   5.587  11.536 -1.4388  0.5443  0.0183
   8223SM  H22G10992   4.655   5.535  11.455 -0.4964  3.7522  1.0308
   8223SM  C23F10993   4.478   5.401  11.442 -0.2461 -0.2270 -0.6106
   8223SM  H23F10994   4.517   5.340  11.527  0.4314 -2.0795 -2.1877
   8223SM  H23G10995   4.506   5.345  11.350  0.3680  0.6394 -0.9543
   8223SM  H23H10996   4.367   5.408  11.433 -0.0482  0.7032 -3.0602
   8323SM     N10997   5.060   5.424   8.540 -0.2949 -0.6281  0.5847
   8323SM   C1510998   5.120   5.544   8.480 -0.6469  0.1499  0.2418
   8323SM  H15A10999   5.146   5.520   8.378 -3.1086  0.4863 -0.5283
   8323SM  H15B11000   5.204   5.577   8.539 -0.9241 -0.7672  1.1690
   8323SM  H15C11001   5.059   5.633   8.483  1.9057  2.1177 -1.3578
   8323SM   C1411002   4.918   5.420   8.487 -0.6077 -0.0363 -0.3426
   8323SM  H14A11003   4.900   5.395   8.384 -1.4345  2.5233 -0.8781
   8323SM  H14B11004   4.860   5.508   8.509 -2.1315 -0.7306 -1.3407
   8323SM  H14C11005   4.866   5.338   8.535 -1.5960  0.8044  0.0789
   8323SM   C1311006   5.136   5.302   8.505  0.1162 -0.5073  0.4694
   8323SM  H13A11007   5.243   5.305   8.523  0.3910  1.0581 -1.1257
   8323SM  H13B11008   5.131   5.287   8.398  0.9457 -1.4072  0.5383
   8323SM  H13C11009   5.093   5.213   8.548 -0.6169 -0.7885 -0.7916
   8323SM   C1211010   5.051   5.448   8.689  0.2039 -0.4816  0.3787
   8323SM  H12A11011   4.994   5.365   8.729 -0.8756  0.3830  0.6840
   8323SM  H12B11012   4.995   5.539   8.702  0.7970 -0.3869  2.8376
   8323SM   C1111013   5.191   5.452   8.767 -0.4294 -0.2579  0.1099
   8323SM  H11A11014   5.233   5.350   8.753  0.7952  0.2203  0.1820
   8323SM  H11B11015   5.180   5.458   8.877  1.0989 -0.8303  0.3139
   8323SM     P11016   5.318   5.685   8.792 -0.1522 -0.1076  0.0276
   8323SM   O1311017   5.444   5.744   8.752 -0.9372  0.2362 -0.1693
   8323SM   O1411018   5.204   5.776   8.778 -0.1975  0.1886  0.1137
   8323SM   O1111019   5.325   5.635   8.940 -0.5825 -0.2513 -0.1827
   8323SM   O1211020   5.286   5.544   8.715 -0.0305 -0.4554  0.4738
   8323SM   C1S11021   5.310   5.734   9.044  0.3402  0.8525 -0.3282
   8323SM   H1S11022   5.248   5.822   9.015 -2.3860 -0.8829 -0.1004
   8323SM   H1T11023   5.409   5.765   9.082  0.1033 -1.3721  2.3837
   8323SM    NF11024   5.179   5.791   9.256  0.0284  0.8094 -0.6370
   8323SM   HNF11025   5.221   5.807   9.345 -0.8075  0.5872 -0.1916
   8323SM   C2S11026   5.231   5.681   9.173 -0.7172  0.2441  0.5876
   8323SM   H2S11027   5.143   5.633   9.125 -0.3448  0.3468 -0.2119
   8323SM   C3S11028   5.320   5.574   9.242 -0.2838  0.2111  0.0404
   8323SM   H3S11029   5.413   5.629   9.267 -0.3867  0.5192 -0.2449
   8323SM    O311030   5.347   5.469   9.146 -0.6303 -0.1497 -0.2517
   8323SM   HO311031   5.351   5.520   9.064 -0.5709  1.3501  0.6335
   8323SM   C4S11032   5.265   5.517   9.365  0.6944 -0.3244  0.1972
   8323SM   H4S11033   5.291   5.566   9.460  0.2775 -1.1580  0.7545
   8323SM   C5S11034   5.179   5.411   9.377  1.2842 -0.4177 -0.9499
   8323SM   H5S11035   5.158   5.357   9.284 -0.4320  0.1235 -0.9180
   8323SM   C6S11036   5.124   5.355   9.507 -0.6139  0.0664 -0.3973
   8323SM   H6S11037   5.180   5.262   9.530 -0.5490  0.1229 -0.3250
   8323SM   H6T11038   5.022   5.312   9.497 -0.8917  0.3990  0.7892
   8323SM   C7S11039   5.151   5.435   9.643 -0.1167  0.0840 -0.0224
   8323SM   H7S11040   5.114   5.540   9.638  1.4150  0.6222 -0.4678
   8323SM   H7T11041   5.260   5.450   9.655 -0.3076  1.0623  0.6740
   8323SM   C8S11042   5.088   5.354   9.763 -0.2799 -0.2558  0.4189
   8323SM   H8S11043   5.136   5.254   9.769 -1.5705 -0.8621  1.0484
   8323SM   H8T11044   4.982   5.332   9.742 -0.4930  1.7682 -0.9267
   8323SM   C9S11045   5.116   5.422   9.888  0.2540 -0.0798 -0.4064
   8323SM   H9S11046   5.054   5.514   9.895 -2.3777 -1.8248  0.4156
   8323SM   H9T11047   5.225   5.439   9.904 -0.1081  0.8929  1.2798
   8323SM  C10S11048   5.078   5.349  10.020  0.7211  0.6748  0.2044
   8323SM  H10S11049   5.133   5.252  10.027 -2.5599 -1.2388  1.6640
   8323SM  H10T11050   4.973   5.316  10.030  1.1310 -0.5512  0.6397
   8323SM  C11S11051   5.120   5.431  10.147 -0.2075 -0.1604  0.1194
   8323SM  H11S11052   5.066   5.528  10.139 -0.9935 -0.6857 -1.2648
   8323SM  H11T11053   5.228   5.453  10.131  0.4326 -2.6475  0.6190
   8323SM  C12S11054   5.095   5.358  10.278  0.2183  0.4529  0.2154
   8323SM  H12S11055   5.168   5.275  10.287  0.0391  0.2116 -0.4830
   8323SM  H12T11056   4.991   5.319  10.282  0.3028  0.1246 -0.6385
   8323SM  C13S11057   5.100   5.458  10.394 -0.3069 -0.2292 -0.1319
   8323SM  H13S11058   5.041   5.549  10.370 -0.0860  0.1286  0.6535
   8323SM  H13T11059   5.207   5.483  10.410  0.2141 -1.8153 -0.9924
   8323SM  C14S11060   5.057   5.409  10.529  0.4443  0.4784 -0.2323
   8323SM  H14S11061   5.096   5.306  10.545 -3.4508 -0.9988  0.8953
   8323SM  H14T11062   4.947   5.395  10.525  0.3371  1.3468 -0.5137
   8323SM  C15S11063   5.105   5.486  10.655  0.8177 -0.4817 -1.1110
   8323SM  H15S11064   5.053   5.583  10.669  2.2388  0.2122 -0.3730
   8323SM  H15T11065   5.211   5.518  10.643  0.7463 -0.1842 -0.9455
   8323SM  C16S11066   5.075   5.396  10.773  0.2572  0.2015  0.2566
   8323SM  H16S11067   5.125   5.297  10.777  0.0440  0.0842  0.0273
   8323SM  H16T11068   4.965   5.377  10.775  0.4360 -0.8971  0.4580
   8323SM  C17S11069   5.105   5.471  10.907  0.4771  1.0064  0.1369
   8323SM  H17S11070   5.047   5.417  10.984  2.3968 -1.1356  0.1993
   8323SM  H17T11071   5.068   5.575  10.896  1.2361  1.1577 -1.3067
   8323SM  C18S11072   5.249   5.457  10.955 -0.4853 -0.5620  0.0464
   8323SM  H18S11073   5.274   5.525  11.040  0.6042  0.3404 -0.9757
   8323SM  H18T11074   5.305   5.489  10.865 -2.6604 -1.7033 -1.8240
   8323SM  H18U11075   5.272   5.352  10.983  2.8960  0.2362  0.6073
   8323SM   C1F11076   5.091   5.879   9.216 -0.0504  0.1548 -0.2197
   8323SM    OF11077   5.030   5.864   9.116  0.2031  0.1745 -0.1377
   8323SM   C2F11078   5.062   6.002   9.300 -0.1904  0.7121 -0.8164
   8323SM   H2F11079   4.981   6.063   9.255 -0.6459 -0.8442 -2.2367
   8323SM   H2G11080   5.145   6.075   9.295 -0.5204  1.0348 -1.7551
   8323SM   C3F11081   5.029   5.962   9.449  1.4178  0.2287  0.6149
   8323SM   H3F11082   5.018   6.051   9.515 -1.8371 -1.1621  2.1779
   8323SM   H3G11083   5.113   5.908   9.497  1.1180 -2.3664 -1.5744
   8323SM   C4F11084   4.887   5.893   9.453 -0.5533  0.0141  0.1901
   8323SM   H4F11085   4.904   5.790   9.415  0.8453  0.6137 -0.8739
   8323SM   H4G11086   4.815   5.945   9.385 -0.5875  1.1357  1.0436
   8323SM   C5F11087   4.813   5.885   9.593 -0.1723 -0.3587  0.1888
   8323SM   H5F11088   4.729   5.812   9.584 -0.0321 -0.6221  0.9368
   8323SM   H5G11089   4.771   5.985   9.615  1.3965  0.4778 -0.5136
   8323SM   C6F11090   4.905   5.848   9.717 -0.2215 -0.2065  0.3153
   8323SM   H6F11091   4.993   5.916   9.720  0.8937 -1.5247 -1.0887
   8323SM   H6G11092   4.958   5.753   9.695 -0.6299 -0.5312  0.7104
   8323SM   C7F11093   4.824   5.845   9.840  0.3194 -0.1087 -0.3405
   8323SM   H7F11094   4.752   5.761   9.834 -0.4722  0.6694 -2.7238
   8323SM   H7G11095   4.755   5.932   9.847 -0.3678 -0.5660 -1.2559
   8323SM   C8F11096   4.900   5.840   9.963 -0.6519  0.1129 -0.6632
   8323SM   H8F11097   4.964   5.930   9.977 -1.3760  0.3565  1.3343
   8323SM   H8G11098   4.964   5.749   9.969 -1.5528 -0.5133 -0.2517
   8323SM   C9F11099   4.794   5.835  10.076  0.8906 -0.3077 -0.5776
   8323SM   H9F11100   4.726   5.748  10.062 -0.1626  0.0462  1.8659
   8323SM   H9G11101   4.727   5.923  10.074 -1.3316 -1.8791  0.3449
   8323SM  C10F11102   4.859   5.833  10.212 -0.5274 -0.3444 -0.4455
   8323SM  H10F11103   4.918   5.926  10.227  2.1567 -2.1350  0.7788
   8323SM  H10G11104   4.929   5.747  10.215  0.1365  0.0439 -2.6438
   8323SM  C11F11105   4.764   5.808  10.333 -0.3438  0.6567 -0.4933
   8323SM  H11F11106   4.682   5.736  10.312 -1.6714  1.4989  1.4397
   8323SM  H11G11107   4.701   5.898  10.348 -0.3104  0.8007 -1.1477
   8323SM  C12F11108   4.838   5.758  10.462  0.1387 -0.1365  0.2253
   8323SM  H12F11109   4.930   5.819  10.475  0.3864 -0.4384 -0.1064
   8323SM  H12G11110   4.870   5.652  10.460  2.3038  0.4748  0.2707
   8323SM  C13F11111   4.743   5.781  10.580  0.2064 -0.1024  0.0684
   8323SM  H13F11112   4.648   5.733  10.550 -0.1846  0.2238  0.7568
   8323SM  H13G11113   4.720   5.890  10.581  0.8460  0.0585 -0.8372
   8323SM  C14F11114   4.794   5.728  10.713  1.0652 -0.9316 -0.2330
   8323SM  H14F11115   4.886   5.783  10.740  0.4768 -0.2210  0.3421
   8323SM  H14G11116   4.803   5.617  10.704  0.4822 -1.2767  2.4903
   8323SM  C15F11117   4.688   5.756  10.825  0.1378 -0.8275 -0.2059
   8323SM  H15F11118   4.588   5.721  10.792 -0.4204 -0.1661  0.7460
   8323SM  H15G11119   4.677   5.866  10.838  1.8201 -0.4128 -1.7665
   8323SM  C16F11120   4.733   5.694  10.956 -0.2788  0.0170  0.6235
   8323SM  H16F11121   4.744   5.585  10.937 -1.4383 -0.4315  2.3666
   8323SM  H16G11122   4.641   5.708  11.016 -1.0093  0.5496 -0.5868
   8323SM  C17F11123   4.851   5.765  11.026  0.3634 -0.2311  0.5701
   8323SM  H17F11124   4.823   5.870  11.050  0.4697  0.3028 -1.4495
   8323SM  H17G11125   4.932   5.786  10.954 -1.3062  0.4974 -1.1946
   8323SM  C18F11126   4.906   5.685  11.142 -1.0188 -0.5036  0.0739
   8323SM  H18F11127   4.921   5.578  11.115  3.3313 -0.2516  0.7515
   8323SM  H18G11128   4.833   5.691  11.226 -1.8430 -1.9881 -0.5050
   8323SM  C19F11129   5.044   5.739  11.185 -0.2096 -0.8804 -0.2394
   8323SM  H19F11130   5.026   5.845  11.215 -0.4773 -0.6249 -1.2849
   8323SM  H19G11131   5.112   5.724  11.099 -0.3458 -0.2239 -0.4679
   8323SM  C20F11132   5.083   5.659  11.304  0.1920  0.4391  0.0293
   8323SM  H20F11133   5.073   5.553  11.273 -3.6083  0.5914  0.1773
   8323SM  H20G11134   5.008   5.664  11.386  0.4367  1.5535  0.2048
   8323SM  C21F11135   5.221   5.698  11.351 -0.9995 -0.6212 -0.2302
   8323SM  H21F11136   5.217   5.804  11.386  0.7288 -0.7670  0.5040
   8323SM  H21G11137   5.286   5.678  11.264 -0.5179 -3.2731  0.6429
   8323SM  C22F11138   5.261   5.613  11.470  0.5180  0.4921  0.3258
   8323SM  H22F11139   5.370   5.622  11.486  0.1393  1.7269  2.8078
   8323SM  H22G11140   5.243   5.511  11.431  0.7844  1.0620 -1.3823
   8323SM  C23F11141   5.186   5.639  11.605 -0.4535  1.0249  0.2077
   8323SM  H23F11142   5.099   5.573  11.623 -0.0698  0.9497  2.0786
   8323SM  H23G11143   5.154   5.745  11.611  3.5731  2.4073  0.8541
   8323SM  H23H11144   5.258   5.635  11.691 -1.6038 -0.2213  1.1507
   8423SM     N11145   5.387   3.534   8.053  0.3292  0.0610  0.0813
   8423SM   C1511146   5.502   3.456   8.006  0.5379 -0.4575  0.3598
   8423SM  H15A11147   5.479   3.426   7.905 -0.4289  1.0864  0.0864
   8423SM  H15B11148   5.508   3.368   8.068  0.1117 -0.7015  0.0565
   8423SM  H15C11149   5.587   3.521   8.019 -0.3184  0.4779  1.4795
   8423SM   C1411150   5.414   3.592   8.190  0.3822  0.8485 -0.4040
   8423SM  H14A11151   5.338   3.665   8.216 -2.0161 -1.2299 -1.2156
   8423SM  H14B11152   5.507   3.645   8.203  0.2266  0.7147  1.6000
   8423SM  H14C11153   5.420   3.511   8.261 -2.5937 -0.2809 -1.3087
   8423SM   C1311154   5.379   3.643   7.955 -0.2560  0.5223 -0.3971
   8423SM  H13A11155   5.450   3.724   7.966  0.0630  0.4061 -1.4980
   8423SM  H13B11156   5.285   3.696   7.960 -0.4891  0.0043  2.2573
   8423SM  H13C11157   5.399   3.600   7.859 -2.4219 -2.4670  0.3442
   8423SM   C1211158   5.260   3.453   8.057 -0.3142 -0.0417  0.4564
   8423SM  H12A11159   5.230   3.431   7.956  0.2518 -0.3903  0.3570
   8423SM  H12B11160   5.175   3.504   8.099 -0.2891 -1.2784  2.1299
   8423SM   C1111161   5.272   3.318   8.133  0.0191 -0.6827 -0.6448
   8423SM  H11A11162   5.362   3.258   8.109  0.9419  0.2280  0.4549
   8423SM  H11B11163   5.184   3.252   8.116  0.3160 -1.3164  0.2590
   8423SM     P11164   5.147   3.378   8.355  0.3486  0.4255 -0.0834
   8423SM   O1311165   5.188   3.420   8.494  0.4947 -0.0252  0.3085
   8423SM   O1411166   5.060   3.469   8.283 -0.1436  0.0401 -0.2271
   8423SM   O1111167   5.069   3.235   8.369 -0.2875 -0.5023 -0.2041
   8423SM   O1211168   5.284   3.346   8.276 -0.4015  0.0844 -0.5222
   8423SM   C1S11169   5.126   3.121   8.426  0.1557  0.6506 -0.3054
   8423SM   H1S11170   5.235   3.122   8.404  0.2846 -3.3373 -0.4990
   8423SM   H1T11171   5.088   3.033   8.370 -2.3346  0.4872  1.4394
   8423SM    NF11172   5.181   2.981   8.630 -0.1004 -0.4370 -0.0847
   8423SM   HNF11173   5.127   2.899   8.643 -1.5100  0.3270 -0.7827
   8423SM   C2S11174   5.103   3.097   8.581 -0.3580 -0.5673  0.8517
   8423SM   H2S11175   5.134   3.193   8.628 -1.4596  0.3759 -0.2717
   8423SM   C3S11176   4.952   3.077   8.605 -0.5329  0.0354  0.2083
   8423SM   H3S11177   4.914   2.995   8.540 -2.4128 -0.0351  1.3159
   8423SM    O311178   4.876   3.181   8.551  0.1489 -0.0065 -0.1593
   8423SM   HO311179   4.931   3.232   8.492 -0.1727  2.2501  1.3708
   8423SM   C4S11180   4.918   3.041   8.748  0.1926  0.3308 -0.2490
   8423SM   H4S11181   4.911   2.932   8.759  0.5410  0.3655  0.3386
   8423SM   C5S11182   4.869   3.125   8.844  0.4630  0.3622 -0.1994
   8423SM   H5S11183   4.849   3.229   8.817 -0.9081  0.3939  0.8583
   8423SM   C6S11184   4.822   3.088   8.979 -0.4933  0.3486 -0.2758
   8423SM   H6S11185   4.732   3.149   8.999 -0.3186  0.2727  0.7927
   8423SM   H6T11186   4.893   3.140   9.047 -2.7699  1.8545  1.0673
   8423SM   C7S11187   4.808   2.940   9.015 -0.3738 -0.3063  0.0820
   8423SM   H7S11188   4.909   2.894   9.024  0.5468  1.5973 -0.0175
   8423SM   H7T11189   4.740   2.893   8.940 -0.8975  0.7551 -0.1281
   8423SM   C8S11190   4.740   2.918   9.150  0.6011 -0.1407 -0.5614
   8423SM   H8S11191   4.715   2.810   9.154  1.1770 -0.3056 -1.2287
   8423SM   H8T11192   4.652   2.986   9.155  0.9723  0.2938  0.2281
   8423SM   C9S11193   4.817   2.945   9.277 -0.5169 -0.7458  0.9954
   8423SM   H9S11194   4.862   3.047   9.279 -0.5061 -0.7490  0.9066
   8423SM   H9T11195   4.893   2.864   9.284 -1.1084 -1.2838  1.2483
   8423SM  C10S11196   4.728   2.917   9.397 -0.5797 -0.5306 -0.1648
   8423SM  H10S11197   4.682   2.816   9.393 -0.4722 -0.5784 -0.1789
   8423SM  H10T11198   4.642   2.988   9.390  0.2571  0.3795 -1.7347
   8423SM  C11S11199   4.792   2.929   9.532 -0.6549  0.1743 -0.8483
   8423SM  H11S11200   4.787   3.038   9.553 -1.7814  0.1683 -1.0157
   8423SM  H11T11201   4.893   2.883   9.530 -0.3824  0.3710  2.6818
   8423SM  C12S11202   4.704   2.862   9.638  0.0534 -0.2290 -0.1986
   8423SM  H12S11203   4.696   2.753   9.615  0.6790 -0.6746  1.5183
   8423SM  H12T11204   4.599   2.897   9.633  0.7493  2.3029  1.0638
   8423SM  C13S11205   4.745   2.873   9.783 -0.3098 -0.6170 -0.2957
   8423SM  H13S11206   4.756   2.980   9.808 -0.1878 -0.3962 -1.2908
   8423SM  H13T11207   4.853   2.848   9.780  0.2054  1.0603  1.8682
   8423SM  C14S11208   4.659   2.802   9.883 -0.8317  0.3311 -1.0132
   8423SM  H14S11209   4.647   2.695   9.858  2.1889  0.3209 -2.8748
   8423SM  H14T11210   4.557   2.846   9.891 -0.0724  1.8045  1.7148
   8423SM  C15S11211   4.717   2.813  10.023 -0.0281  0.2519  0.2524
   8423SM  H15S11212   4.828   2.803  10.016 -0.0684 -0.9293  1.0301
   8423SM  H15T11213   4.680   2.722  10.075  1.2492 -0.7039 -0.4511
   8423SM  C16S11214   4.677   2.938  10.102 -0.5626 -0.0853  0.1374
   8423SM  H16S11215   4.567   2.943  10.091 -0.4690 -0.2022 -1.1121
   8423SM  H16T11216   4.720   3.022  10.043  0.1931 -0.9123 -0.5403
   8423SM  C17S11217   4.720   2.938  10.245 -0.1645  0.1252  0.0595
   8423SM  H17S11218   4.830   2.919  10.247 -0.2497 -0.8607 -2.0559
   8423SM  H17T11219   4.677   2.855  10.306 -2.1780 -0.5296 -2.1017
   8423SM  C18S11220   4.670   3.064  10.316  0.2475  0.3216 -0.7750
   8423SM  H18S11221   4.704   3.065  10.422  0.5494  0.3483 -0.8709
   8423SM  H18T11222   4.559   3.071  10.318  0.3633  3.3075  0.0698
   8423SM  H18U11223   4.721   3.150  10.267  1.0799 -1.1477 -2.6046
   8423SM   C1F11224   5.314   2.982   8.656 -0.1406 -0.1119  0.4650
   8423SM    OF11225   5.373   3.088   8.639 -0.6225 -0.0552  0.1986
   8423SM   C2F11226   5.383   2.860   8.695  0.6256 -0.4425 -0.4677
   8423SM   H2F11227   5.415   2.817   8.598  0.1656  0.5345 -1.0666
   8423SM   H2G11228   5.313   2.792   8.747  1.2240 -1.6618 -1.1973
   8423SM   C3F11229   5.506   2.873   8.784 -0.6502 -0.1858 -0.2478
   8423SM   H3F11230   5.475   2.910   8.884  1.5904  0.2319  0.3438
   8423SM   H3G11231   5.583   2.944   8.747 -1.1338  0.3919 -0.1590
   8423SM   C4F11232   5.576   2.741   8.810  0.1069  0.0471  0.1475
   8423SM   H4F11233   5.637   2.726   8.719 -0.1148  0.2988 -0.0437
   8423SM   H4G11234   5.496   2.667   8.832 -1.5082  1.6948  0.1181
   8423SM   C5F11235   5.663   2.743   8.941  0.7333  0.0174 -0.3085
   8423SM   H5F11236   5.598   2.727   9.030 -0.0797 -1.1505 -1.0754
   8423SM   H5G11237   5.723   2.836   8.929 -1.7661  1.7639 -0.2664
   8423SM   C6F11238   5.750   2.617   8.954 -0.0843  0.3472 -0.2594
   8423SM   H6F11239   5.794   2.585   8.858  0.3507 -0.9934  0.3706
   8423SM   H6G11240   5.677   2.535   8.974  1.0139 -0.4484  0.5828
   8423SM   C7F11241   5.864   2.622   9.057  0.1296  0.0155  0.3365
   8423SM   H7F11242   5.945   2.683   9.013 -0.6751  0.4616 -0.5630
   8423SM   H7G11243   5.896   2.516   9.065 -0.7085 -0.3945 -1.3499
   8423SM   C8F11244   5.829   2.676   9.197  0.3679  0.3436  0.0313
   8423SM   H8F11245   5.781   2.776   9.191  0.1939  0.2820  0.4026
   8423SM   H8G11246   5.928   2.696   9.244  0.6306 -2.1633  0.6869
   8423SM   C9F11247   5.751   2.577   9.279 -0.9187 -0.1482 -0.0178
   8423SM   H9F11248   5.793   2.478   9.252 -1.3380  0.1130 -1.7248
   8423SM   H9G11249   5.645   2.577   9.245 -0.4365  0.8147 -1.6699
   8423SM  C10F11250   5.760   2.610   9.433  0.3420 -0.0952 -0.9273
   8423SM  H10F11251   5.858   2.663   9.436  1.0474 -1.4172  0.7598
   8423SM  H10G11252   5.742   2.527   9.504 -0.0193  1.0165  0.3235
   8423SM  C11F11253   5.658   2.712   9.472 -0.0126 -0.2250 -0.0941
   8423SM  H11F11254   5.560   2.661   9.485  0.6520 -0.7470  4.5902
   8423SM  H11G11255   5.657   2.792   9.395  0.4335  0.5655  0.7014
   8423SM  C12F11256   5.686   2.793   9.597  0.3502  0.7826 -0.1243
   8423SM  H12F11257   5.785   2.843   9.592 -0.1214  1.7227 -0.1912
   8423SM  H12G11258   5.689   2.712   9.674  1.3389 -0.6299 -1.5975
   8423SM  C13F11259   5.580   2.893   9.629  0.2536  0.0956  0.5127
   8423SM  H13F11260   5.478   2.851   9.635 -1.1041  3.2360  1.9950
   8423SM  H13G11261   5.591   2.971   9.551  0.5858  1.2313  1.6537
   8423SM  C14F11262   5.582   2.962   9.760 -0.0919  0.2446  0.1836
   8423SM  H14F11263   5.494   3.028   9.775 -1.5246 -1.8922  1.8454
   8423SM  H14G11264   5.675   3.021   9.755  0.2560 -0.3858 -1.0869
   8423SM  C15F11265   5.586   2.866   9.878  0.8615 -0.3539 -0.5548
   8423SM  H15F11266   5.666   2.790   9.881  1.9001  0.6666 -1.4416
   8423SM  H15G11267   5.491   2.809   9.882  0.4690  0.1137 -2.4551
   8423SM  C16F11268   5.588   2.948  10.009 -0.1859  0.0505 -0.5378
   8423SM  H16F11269   5.531   3.042   9.996 -0.6046  0.2869  2.3039
   8423SM  H16G11270   5.694   2.978  10.023 -0.0002 -0.6885 -0.3094
   8423SM  C17F11271   5.537   2.871  10.128  0.4376 -0.0554 -0.4315
   8423SM  H17F11272   5.571   2.766  10.109 -1.5001 -0.6082 -1.0567
   8423SM  H17G11273   5.426   2.862  10.122  0.3119 -0.0925  1.3583
   8423SM  C18F11274   5.582   2.932  10.264 -0.2078  0.4850 -0.1550
   8423SM  H18F11275   5.531   3.027  10.292 -1.8926 -0.5525  0.5044
   8423SM  H18G11276   5.689   2.959  10.261 -0.1151  0.2049  0.5336
   8423SM  C19F11277   5.557   2.828  10.377  0.2431 -0.0271 -0.0358
   8423SM  H19F11278   5.610   2.732  10.359 -1.7677 -1.4350  1.1623
   8423SM  H19G11279   5.453   2.788  10.380  0.3999 -0.4943  3.4499
   8423SM  C20F11280   5.599   2.865  10.521 -0.9420  0.1057 -0.1263
   8423SM  H20F11281   5.702   2.906  10.530 -1.2236  0.5914  1.0125
   8423SM  H20G11282   5.590   2.771  10.579 -3.0117 -0.1156 -0.7071
   8423SM  C21F11283   5.507   2.959  10.584  0.2538  0.7171 -0.9360
   8423SM  H21F11284   5.408   2.908  10.585 -0.5130  2.1161 -1.5115
   8423SM  H21G11285   5.504   3.053  10.524  4.5834  2.6269  1.3809
   8423SM  C22F11286   5.546   3.014  10.722  0.2140  0.5731 -0.2084
   8423SM  H22F11287   5.458   3.051  10.779  0.6323 -1.1344  1.6536
   8423SM  H22G11288   5.615   3.101  10.719  0.1812  0.9011  3.6251
   8423SM  C23F11289   5.612   2.913  10.824  0.4482  0.2363  0.5906
   8423SM  H23F11290   5.555   2.820  10.844 -1.4193  1.2387  0.1976
   8423SM  H23G11291   5.637   2.969  10.918  2.9663  2.3059 -1.1687
   8423SM  H23H11292   5.708   2.884  10.778  1.9937  1.0178  3.0791
   8523SM     N11293   6.170   3.874   8.327 -0.2281 -0.1860  0.3597
   8523SM   C1511294   6.254   3.772   8.254 -0.3999 -0.3458 -0.8327
   8523SM  H15A11295   6.317   3.714   8.320 -0.6322  0.1062 -0.2074
   8523SM  H15B11296   6.325   3.812   8.184  1.2628 -1.4099  0.1586
   8523SM  H15C11297   6.187   3.700   8.210 -0.4161  0.6527 -2.5405
   8523SM   C1411298   6.273   3.969   8.380  0.6960  0.2736  0.1420
   8523SM  H14A11299   6.313   4.034   8.304 -1.1992  0.1519 -1.0383
   8523SM  H14B11300   6.353   3.921   8.435  0.8805  0.3975 -0.0209
   8523SM  H14C11301   6.223   4.025   8.458 -1.1072 -2.7794  1.4144
   8523SM   C1311302   6.077   3.943   8.237 -0.5571  0.3237  0.1327
   8523SM  H13A11303   6.004   3.873   8.197  0.5615  0.1498 -1.7554
   8523SM  H13B11304   6.135   3.975   8.152 -0.3424  0.0152  0.1634
   8523SM  H13C11305   6.021   4.024   8.281 -0.5398  1.8762 -2.4533
   8523SM   C1211306   6.086   3.806   8.442 -0.1771 -0.0721 -0.1357
   8523SM  H12A11307   6.150   3.757   8.515 -0.9894 -1.3730 -0.2690
   8523SM  H12B11308   6.029   3.722   8.404 -1.8949  1.0829 -0.2078
   8523SM   C1111309   5.978   3.900   8.511 -0.2767 -0.0811 -0.3137
   8523SM  H11A11310   5.922   3.853   8.594  0.2647 -1.0270 -0.4793
   8523SM  H11B11311   5.889   3.916   8.446  0.1515 -1.0079 -1.1536
   8523SM     P11312   5.968   4.160   8.543  0.2016 -0.0844  0.3093
   8523SM   O1311313   6.044   4.262   8.618 -0.0836 -0.2535 -0.5927
   8523SM   O1411314   5.954   4.177   8.396  0.3995 -0.9540  0.8329
   8523SM   O1111315   5.829   4.147   8.611  0.2201 -0.2875 -0.0732
   8523SM   O1211316   6.040   4.022   8.557  0.3559 -0.4156 -0.0491
   8523SM   C1S11317   5.820   4.104   8.745 -0.3563  0.2636  0.4115
   8523SM   H1S11318   5.886   4.161   8.813 -0.6407  1.9144 -0.6249
   8523SM   H1T11319   5.852   3.998   8.741 -1.9469 -0.2310 -0.4282
   8523SM    NF11320   5.669   4.081   8.946  0.1379  0.1970  0.7067
   8523SM   HNF11321   5.618   3.999   8.971  0.5608  0.5890  3.1092
   8523SM   C2S11322   5.674   4.116   8.807 -0.0045  0.6444  0.6753
   8523SM   H2S11323   5.643   4.222   8.793 -2.4315 -0.2555 -1.8469
   8523SM   C3S11324   5.569   4.029   8.726 -1.0668  0.3708  0.2620
   8523SM   H3S11325   5.587   3.929   8.770  1.9219  1.0113  0.7325
   8523SM    O311326   5.585   4.028   8.581  0.4700  0.0292 -0.1439
   8523SM   HO311327   5.654   4.094   8.567 -0.1654  0.7261 -0.0552
   8523SM   C4S11328   5.430   4.069   8.766 -0.3122  0.0702  0.1583
   8523SM   H4S11329   5.414   4.178   8.771  1.6914  0.3543  3.0498
   8523SM   C5S11330   5.323   3.986   8.805 -0.3125 -0.0042  0.1309
   8523SM   H5S11331   5.331   3.876   8.806  2.8338  0.0879 -1.0624
   8523SM   C6S11332   5.192   4.046   8.857 -0.1597  0.2928 -0.2076
   8523SM   H6S11333   5.119   3.964   8.876  0.7966  0.0488  2.9012
   8523SM   H6T11334   5.137   4.113   8.787  0.5235 -0.8417 -1.8920
   8523SM   C7S11335   5.206   4.132   8.986 -0.1554  0.4638 -0.5604
   8523SM   H7S11336   5.101   4.147   9.017 -0.1877 -0.2731 -0.2895
   8523SM   H7T11337   5.252   4.231   8.965 -0.1426  1.0694  1.9583
   8523SM   C8S11338   5.281   4.060   9.102 -0.0154 -0.5377  0.0961
   8523SM   H8S11339   5.373   4.015   9.060 -0.0502 -0.3134 -0.2326
   8523SM   H8T11340   5.215   3.978   9.135 -1.9908  1.5691  1.6888
   8523SM   C9S11341   5.298   4.162   9.222 -0.3407  0.3346 -0.1679
   8523SM   H9S11342   5.200   4.215   9.231 -0.1559  1.1007 -2.0796
   8523SM   H9T11343   5.366   4.246   9.199 -1.1334  1.3110  0.9014
   8523SM  C10S11344   5.322   4.087   9.347  0.1428  0.3314 -0.5794
   8523SM  H10S11345   5.415   4.027   9.337  0.6825  1.1148 -0.3651
   8523SM  H10T11346   5.247   4.008   9.365  0.8177 -0.2625 -0.2950
   8523SM  C11S11347   5.333   4.169   9.472  0.5269 -0.1420 -0.3127
   8523SM  H11S11348   5.254   4.245   9.488  0.1140 -0.7478  0.6502
   8523SM  H11T11349   5.429   4.225   9.471 -0.3343  1.3968 -1.6227
   8523SM  C12S11350   5.355   4.077   9.597  0.3188 -0.2072 -0.1278
   8523SM  H12S11351   5.464   4.064   9.610  0.9354  3.5056 -0.3703
   8523SM  H12T11352   5.305   3.978   9.592  0.8858 -0.5741  1.1838
   8523SM  C13S11353   5.294   4.139   9.724 -0.2819  0.4015 -0.4095
   8523SM  H13S11354   5.183   4.136   9.716 -0.3063  1.5130 -0.7641
   8523SM  H13T11355   5.329   4.245   9.722 -1.0545  0.6930  0.4533
   8523SM  C14S11356   5.357   4.075   9.848 -0.0739  0.2554  0.2477
   8523SM  H14S11357   5.463   4.046   9.836  0.2549  1.7840 -0.9591
   8523SM  H14T11358   5.318   3.973   9.865  1.3981 -0.2312  0.8146
   8523SM  C15S11359   5.333   4.160   9.976  0.0746 -0.2024  0.2531
   8523SM  H15S11360   5.371   4.264   9.965  1.8975 -0.8766 -0.1811
   8523SM  H15T11361   5.394   4.109  10.054  0.1791  1.0495  1.0186
   8523SM  C16S11362   5.193   4.164  10.027 -0.3927 -0.1109  0.9738
   8523SM  H16S11363   5.129   4.210   9.949  0.1009 -2.4924 -0.9280
   8523SM  H16T11364   5.203   4.229  10.117  0.8184  1.6933 -0.3739
   8523SM  C17S11365   5.138   4.024  10.063 -0.2037  0.1042 -0.3927
   8523SM  H17S11366   5.199   3.978  10.144  0.8332 -1.1506 -1.8100
   8523SM  H17T11367   5.155   3.958   9.975 -0.3606 -0.4154 -0.0367
   8523SM  C18S11368   4.988   4.030  10.087  0.6925 -0.2757 -0.1147
   8523SM  H18S11369   4.950   3.932  10.123  0.4991 -0.3705 -0.5659
   8523SM  H18T11370   4.943   4.057   9.989 -2.2217 -0.7235  1.0125
   8523SM  H18U11371   4.958   4.111  10.156 -1.1003 -0.7903 -0.2564
   8523SM   C1F11372   5.738   4.147   9.039 -0.2805 -0.8490  0.3763
   8523SM    OF11373   5.801   4.246   9.003  0.5550 -0.2349 -0.0197
   8523SM   C2F11374   5.737   4.082   9.175  0.2500 -0.8800 -0.2453
   8523SM   H2F11375   5.805   3.995   9.185  0.3529 -0.6918  0.7760
   8523SM   H2G11376   5.630   4.060   9.199 -0.3546  2.8436  1.2434
   8523SM   C3F11377   5.777   4.190   9.277 -0.5122  0.8515 -0.1238
   8523SM   H3F11378   5.729   4.286   9.246 -1.1640  0.2424 -1.0526
   8523SM   H3G11379   5.888   4.201   9.274 -0.3682 -0.0490  1.1558
   8523SM   C4F11380   5.746   4.152   9.423 -0.6245 -0.1819  0.1780
   8523SM   H4F11381   5.812   4.065   9.444  0.2964  0.2768 -0.7202
   8523SM   H4G11382   5.640   4.121   9.428 -0.3649 -0.9275  1.3839
   8523SM   C5F11383   5.772   4.266   9.524 -0.0971 -0.7231  0.2524
   8523SM   H5F11384   5.704   4.350   9.495 -2.0919 -2.0027  1.0075
   8523SM   H5G11385   5.880   4.293   9.523  0.0780 -1.4204  0.1614
   8523SM   C6F11386   5.735   4.217   9.663 -0.0880 -0.4783 -0.1384
   8523SM   H6F11387   5.797   4.129   9.693  2.1863  0.8831 -0.6052
   8523SM   H6G11388   5.628   4.190   9.656 -0.1895 -0.1241  0.0425
   8523SM   C7F11389   5.743   4.328   9.773 -0.1013  0.5349  0.4272
   8523SM   H7F11390   5.674   4.409   9.742 -0.0827  0.0305 -1.0379
   8523SM   H7G11391   5.849   4.361   9.782  0.0267  0.4277 -0.5061
   8523SM   C8F11392   5.701   4.267   9.907 -0.7706 -0.4758 -0.7178
   8523SM   H8F11393   5.769   4.181   9.926  2.4485  1.7017 -1.5024
   8523SM   H8G11394   5.597   4.233   9.891 -0.5069 -1.0392 -1.2930
   8523SM   C9F11395   5.702   4.369  10.020  0.4028 -0.4582 -0.1831
   8523SM   H9F11396   5.645   4.460   9.990 -0.5993 -1.0155 -0.0125
   8523SM   H9G11397   5.805   4.408  10.034 -0.7431  2.7328  0.2416
   8523SM  C10F11398   5.649   4.323  10.151  0.0187  0.2200  0.0952
   8523SM  H10F11399   5.695   4.227  10.184  2.0242  1.3512  0.7997
   8523SM  H10G11400   5.538   4.316  10.149  0.0364 -0.6950  0.9509
   8523SM  C11F11401   5.693   4.421  10.262  0.3115  0.1387  0.2017
   8523SM  H11F11402   5.625   4.508  10.246  3.3551  2.6016 -0.2349
   8523SM  H11G11403   5.792   4.461  10.233  0.0721 -0.1573 -1.0663
   8523SM  C12F11404   5.694   4.361  10.406  0.5777  0.0444  0.3384
   8523SM  H12F11405   5.771   4.281  10.410  0.4249 -0.3191 -2.2961
   8523SM  H12G11406   5.593   4.328  10.440  1.2820 -1.7940  0.7722
   8523SM  C13F11407   5.736   4.468  10.504  0.2700 -0.5836 -0.4410
   8523SM  H13F11408   5.657   4.546  10.512  0.0384 -0.9047  0.4839
   8523SM  H13G11409   5.834   4.515  10.478 -1.3356  2.0952 -2.1566
   8523SM  C14F11410   5.739   4.416  10.648  0.3328  0.4134  0.1060
   8523SM  H14F11411   5.804   4.485  10.706 -0.3343  1.3555 -0.2393
   8523SM  H14G11412   5.794   4.320  10.649 -1.8752 -0.9248  0.9285
   8523SM  C15F11413   5.611   4.374  10.720  0.0601 -0.3739  0.6974
   8523SM  H15F11414   5.568   4.291  10.660 -1.0329  0.3795  0.3964
   8523SM  H15G11415   5.547   4.461  10.693  2.1833  0.3665 -2.5208
   8523SM  C16F11416   5.623   4.333  10.870 -0.1709  0.7904 -0.7050
   8523SM  H16F11417   5.518   4.332  10.906  0.0380 -1.1753 -0.0759
   8523SM  H16G11418   5.695   4.395  10.928 -0.4699  1.4748 -1.0510
   8523SM  C17F11419   5.683   4.186  10.877 -0.1357 -0.4259 -0.2830
   8523SM  H17F11420   5.787   4.189  10.839  0.4146 -0.9278  1.0898
   8523SM  H17G11421   5.623   4.109  10.825 -0.1797  0.0908 -1.0178
   8523SM  C18F11422   5.666   4.141  11.028 -0.1815  0.5478 -0.3439
   8523SM  H18F11423   5.561   4.134  11.061  0.7086 -1.8133  2.3843
   8523SM  H18G11424   5.730   4.206  11.091 -0.1047 -0.1658  0.3312
   8523SM  C19F11425   5.720   3.993  11.039  0.0440 -0.0316 -0.2329
   8523SM  H19F11426   5.821   3.996  10.992 -0.0809 -0.6662 -0.5578
   8523SM  H19G11427   5.651   3.922  10.988 -2.3233  0.5318  2.0033
   8523SM  C20F11428   5.730   3.943  11.187  0.3408  0.5673  1.1199
   8523SM  H20F11429   5.633   3.936  11.242  0.4610 -0.4849  1.2265
   8523SM  H20G11430   5.792   4.012  11.248 -1.3884  0.4923  3.0991
   8523SM  C21F11431   5.790   3.802  11.195 -0.4049  0.3756  0.4047
   8523SM  H21F11432   5.832   3.787  11.296  2.2174  1.6918 -0.4094
   8523SM  H21G11433   5.877   3.801  11.126 -0.4670  1.9606  0.2739
   8523SM  C22F11434   5.686   3.694  11.163 -0.4159  0.5621 -0.2324
   8523SM  H22F11435   5.618   3.731  11.084  0.1309 -1.0371 -1.4939
   8523SM  H22G11436   5.630   3.693  11.259 -0.4478  0.6347 -0.2512
   8523SM  C23F11437   5.731   3.561  11.117  0.6976  1.0799 -0.2164
   8523SM  H23F11438   5.768   3.495  11.197  2.3976  0.4044 -1.4964
   8523SM  H23G11439   5.824   3.584  11.060  1.0082 -0.3817 -0.3292
   8523SM  H23H11440   5.651   3.514  11.056  1.2285  0.6035 -0.5525
   8623SM     N11441   4.499   3.083   8.564 -0.0483  1.0293  0.1255
   8623SM   C1511442   4.564   3.209   8.526 -0.2696 -0.1158 -0.1889
   8623SM  H15A11443   4.529   3.281   8.598 -0.5017 -0.4986  0.0857
   8623SM  H15B11444   4.550   3.242   8.424  1.3370  4.2424  0.7808
   8623SM  H15C11445   4.671   3.207   8.543 -0.4509 -2.2014  1.0908
   8623SM   C1411446   4.350   3.091   8.545 -0.4764 -0.2385 -0.0100
   8623SM  H14A11447   4.312   2.995   8.575  0.0081 -0.5923 -0.5201
   8623SM  H14B11448   4.321   3.102   8.441 -1.1035  2.3949  0.3620
   8623SM  H14C11449   4.295   3.168   8.598  2.3399  2.2596 -0.4306
   8623SM   C1311450   4.555   2.973   8.485  0.1309  0.5094 -0.0804
   8623SM  H13A11451   4.661   2.981   8.465  0.0883  0.2951 -0.3916
   8623SM  H13B11452   4.514   2.971   8.385 -0.9709  1.6182  0.3241
   8623SM  H13C11453   4.541   2.877   8.532 -2.7240  0.1001 -1.5293
   8623SM   C1211454   4.524   3.054   8.711  0.3561  0.5649 -0.8268
   8623SM  H12A11455   4.517   3.147   8.765  2.0343  1.1438 -1.5239
   8623SM  H12B11456   4.628   3.022   8.716 -0.1569 -1.1231 -0.1495
   8623SM   C1111457   4.431   2.946   8.772 -0.0646 -0.3788 -0.3060
   8623SM  H11A11458   4.332   2.997   8.768 -0.1561 -0.6147 -1.2551
   8623SM  H11B11459   4.459   2.930   8.878  1.9250  0.3951 -0.6691
   8623SM     P11460   4.306   2.727   8.713 -0.1816  0.3412 -0.1893
   8623SM   O1311461   4.194   2.806   8.655  0.1881 -0.3147 -0.3572
   8623SM   O1411462   4.335   2.592   8.660 -0.0391  0.5311 -0.6436
   8623SM   O1111463   4.277   2.720   8.866 -0.6562  0.0381 -0.4079
   8623SM   O1211464   4.432   2.815   8.704  0.1913 -0.1629 -0.0742
   8623SM   C1S11465   4.182   2.629   8.920  0.2699  0.4029  0.7361
   8623SM   H1S11466   4.191   2.526   8.879  3.4133  0.5958  0.7272
   8623SM   H1T11467   4.078   2.652   8.890  0.0409 -1.2455  0.1231
   8623SM    NF11468   4.077   2.522   9.120  0.0547 -0.0061 -0.0278
   8623SM   HNF11469   3.989   2.566   9.134  1.6233  3.4872  0.0068
   8623SM   C2S11470   4.173   2.621   9.078  0.4196 -0.1621 -0.7335
   8623SM   H2S11471   4.267   2.591   9.130 -0.5883 -2.1003  0.0690
   8623SM   C3S11472   4.151   2.770   9.127 -0.4571  0.5401 -0.2977
   8623SM   H3S11473   4.057   2.792   9.072 -1.7133 -0.5915  1.3217
   8623SM    O311474   4.256   2.863   9.090  0.2160  0.1652  0.2199
   8623SM   HO311475   4.299   2.833   9.010  1.1407  2.2557 -0.1517
   8623SM   C4S11476   4.126   2.764   9.273  0.6649  0.2856 -0.5384
   8623SM   H4S11477   4.039   2.702   9.300  0.6237  0.8781  0.7712
   8623SM   C5S11478   4.197   2.817   9.376  0.8504 -0.2482 -0.2825
   8623SM   H5S11479   4.271   2.893   9.351 -0.2793  1.1857  0.5580
   8623SM   C6S11480   4.150   2.799   9.520 -0.8794 -0.0805  0.3002
   8623SM   H6S11481   4.214   2.722   9.568 -2.8315 -2.0017 -0.0096
   8623SM   H6T11482   4.054   2.743   9.524 -0.5481 -0.8348 -1.3373
   8623SM   C7S11483   4.173   2.931   9.600  0.1194 -0.3840  0.1021
   8623SM   H7S11484   4.098   3.008   9.573 -0.4905 -1.0803 -0.2446
   8623SM   H7T11485   4.272   2.981   9.594 -0.8166  1.4308 -0.9969
   8623SM   C8S11486   4.133   2.917   9.748 -0.1412  0.4486 -0.9170
   8623SM   H8S11487   4.023   2.897   9.750 -0.7820  3.4698  0.5457
   8623SM   H8T11488   4.150   3.007   9.810 -1.1918  0.2439 -0.3019
   8623SM   C9S11489   4.226   2.821   9.824 -0.0202  0.2242 -1.0589
   8623SM   H9S11490   4.330   2.820   9.785  1.5833 -0.4074  2.7825
   8623SM   H9T11491   4.193   2.716   9.805  1.1913 -0.1936 -0.9563
   8623SM  C10S11492   4.217   2.851   9.972 -0.0516 -0.3276  0.4953
   8623SM  H10S11493   4.114   2.890   9.989  0.3240 -0.6912  4.4509
   8623SM  H10T11494   4.273   2.936  10.014 -0.5982 -0.0376  0.6476
   8623SM  C11S11495   4.245   2.736  10.066 -0.1726 -0.0941  0.0001
   8623SM  H11S11496   4.351   2.703  10.062 -0.2238 -0.1598 -2.3491
   8623SM  H11T11497   4.192   2.645  10.030  0.9690 -0.5777 -0.5410
   8623SM  C12S11498   4.192   2.756  10.209  0.3094 -0.6394  0.4393
   8623SM  H12S11499   4.081   2.759  10.211  0.2772  1.3906 -1.0556
   8623SM  H12T11500   4.222   2.859  10.238 -0.4563  0.6491 -2.8408
   8623SM  C13S11501   4.240   2.645  10.302 -0.3502 -0.0157  0.2106
   8623SM  H13S11502   4.342   2.611  10.274 -0.8065 -0.3962 -1.0429
   8623SM  H13T11503   4.169   2.560  10.292 -1.9239  1.4002 -1.2795
   8623SM  C14S11504   4.251   2.690  10.457 -0.5269  0.0399 -0.2688
   8623SM  H14S11505   4.268   2.599  10.519  3.5155 -0.6718 -2.1146
   8623SM  H14T11506   4.148   2.726  10.482 -0.1176  1.1708 -0.1554
   8623SM  C15S11507   4.371   2.796  10.481  0.5618 -0.0531 -0.4688
   8623SM  H15S11508   4.346   2.895  10.435 -0.7356 -1.0512 -2.0172
   8623SM  H15T11509   4.462   2.755  10.434 -0.1026 -5.5708  2.2826
   8623SM  C16S11510   4.404   2.806  10.631 -0.0713 -0.4964 -0.1175
   8623SM  H16S11511   4.499   2.861  10.643 -0.1324 -0.1043 -1.3236
   8623SM  H16T11512   4.418   2.706  10.678  0.1625  0.3017  1.5867
   8623SM  C17S11513   4.301   2.877  10.708  0.5365 -0.9488  0.7480
   8623SM  H17S11514   4.196   2.846  10.688  0.0282  0.5496  1.0390
   8623SM  H17T11515   4.295   2.982  10.673 -0.9407 -1.5808 -1.0597
   8623SM  C18S11516   4.338   2.877  10.857  0.1866 -0.2141  0.2779
   8623SM  H18S11517   4.379   2.779  10.888  3.9572  0.7592 -1.1769
   8623SM  H18T11518   4.255   2.906  10.926  1.4382 -1.4754  2.4190
   8623SM  H18U11519   4.417   2.952  10.875 -2.0974  1.5985  4.0639
   8623SM   C1F11520   4.097   2.394   9.116 -0.1374 -0.2894 -0.0191
   8623SM    OF11521   4.210   2.354   9.093  0.2588 -0.0155 -0.1478
   8623SM   C2F11522   3.984   2.302   9.136 -0.5058  0.2233 -0.3384
   8623SM   H2F11523   3.969   2.236   9.048  0.6819  0.2511 -0.5798
   8623SM   H2G11524   3.883   2.348   9.147 -0.3112  0.5199  0.2225
   8623SM   C3F11525   4.001   2.211   9.268  0.4794 -0.0870  0.6365
   8623SM   H3F11526   4.008   2.275   9.358 -2.2407  0.5590  0.4856
   8623SM   H3G11527   4.100   2.162   9.261  0.8950  0.9166 -1.4427
   8623SM   C4F11528   3.885   2.102   9.276  0.6280 -0.0360 -0.0324
   8623SM   H4F11529   3.899   2.040   9.184 -0.5381 -0.2555 -0.0764
   8623SM   H4G11530   3.788   2.156   9.275  2.3024  3.2091 -0.2360
   8623SM   C5F11531   3.901   2.000   9.390  0.0137  0.0620 -0.4907
   8623SM   H5F11532   4.007   1.984   9.418  0.1214 -0.4203 -1.1407
   8623SM   H5G11533   3.854   1.903   9.363 -1.0680  0.4879 -0.1916
   8623SM   C6F11534   3.832   2.049   9.518 -0.2668  0.2252  0.0574
   8623SM   H6F11535   3.723   2.029   9.523 -0.1653 -0.5000 -0.4684
   8623SM   H6G11536   3.834   2.159   9.534 -1.4092  0.0057  1.8712
   8623SM   C7F11537   3.899   1.993   9.650  0.2170 -0.5383 -0.0866
   8623SM   H7F11538   4.006   2.022   9.659 -0.3113  1.2939  0.5625
   8623SM   H7G11539   3.888   1.884   9.628 -0.6110  0.1768 -3.9241
   8623SM   C8F11540   3.819   2.039   9.769 -0.1217  0.3543 -0.3694
   8623SM   H8F11541   3.712   2.014   9.754  0.1530 -1.4960  0.4954
   8623SM   H8G11542   3.823   2.149   9.778  0.3834  0.4758 -1.8224
   8623SM   C9F11543   3.866   1.970   9.894  0.0986 -0.4990  0.3385
   8623SM   H9F11544   3.976   1.987   9.902 -0.3374  3.3468  0.0260
   8623SM   H9G11545   3.847   1.861   9.879  0.7274 -0.3555 -1.9409
   8623SM  C10F11546   3.818   2.034  10.026  0.1258  0.0144 -0.1198
   8623SM  H10F11547   3.708   2.045  10.038  0.3618  1.4728  1.0168
   8623SM  H10G11548   3.851   2.140  10.026  3.3731 -0.8047 -2.7770
   8623SM  C11F11549   3.870   1.962  10.149 -0.7669 -0.1726  0.0410
   8623SM  H11F11550   3.981   1.968  10.154 -0.5728 -1.5502 -1.6923
   8623SM  H11G11551   3.832   1.859  10.136  0.3151 -0.5223 -0.4702
   8623SM  C12F11552   3.813   2.027  10.271 -0.2025  0.0557  0.2784
   8623SM  H12F11553   3.705   2.044  10.251  0.0985 -0.3571 -1.8764
   8623SM  H12G11554   3.865   2.124  10.287 -0.3637  0.3071 -0.6520
   8623SM  C13F11555   3.830   1.948  10.403  0.2596  0.4606  0.6035
   8623SM  H13F11556   3.929   1.898  10.398  0.2224  0.2696  1.4874
   8623SM  H13G11557   3.758   1.864  10.415 -0.2615  1.0486  1.7481
   8623SM  C14F11558   3.839   2.032  10.535 -0.1503  0.3220  0.5660
   8623SM  H14F11559   3.747   2.090  10.558  2.7166  4.9480  1.6182
   8623SM  H14G11560   3.923   2.103  10.520  1.1989 -1.3142  0.1262
   8623SM  C15F11561   3.874   1.963  10.666 -0.3759 -0.1548  0.3534
   8623SM  H15F11562   3.983   1.950  10.653 -0.3052  1.8223 -1.6659
   8623SM  H15G11563   3.838   1.858  10.671 -0.9770  0.0226 -0.2130
   8623SM  C16F11564   3.817   2.032  10.791  0.4122  0.5233 -0.5090
   8623SM  H16F11565   3.706   2.036  10.785  0.3560 -1.5986 -2.2177
   8623SM  H16G11566   3.853   2.137  10.782 -0.7991  0.9928 -0.0823
   8623SM  C17F11567   3.868   1.972  10.926 -0.2511 -1.4362 -0.0172
   8623SM  H17F11568   3.979   1.969  10.918 -0.2816  0.3359 -1.6134
   8623SM  H17G11569   3.834   1.867  10.933 -0.8304 -1.2457  0.0939
   8623SM  C18F11570   3.817   2.058  11.046 -0.7737  0.0882 -0.4924
   8623SM  H18F11571   3.706   2.067  11.045 -0.9135 -1.3205 -0.3880
   8623SM  H18G11572   3.863   2.159  11.041  2.5048 -1.2289  0.2554
   8623SM  C19F11573   3.866   1.992  11.178 -0.4116  0.3588  0.0052
   8623SM  H19F11574   3.975   2.012  11.174 -0.3006 -0.2262 -0.0173
   8623SM  H19G11575   3.837   1.885  11.177  1.2961 -0.1510 -2.2982
   8623SM  C20F11576   3.811   2.066  11.300  0.1240  0.1110  0.2041
   8623SM  H20F11577   3.805   2.008  11.395  0.8968 -2.0412 -1.0053
   8623SM  H20G11578   3.705   2.086  11.273  0.0792 -1.7933 -1.2024
   8623SM  C21F11579   3.895   2.189  11.337 -0.3726  0.0186 -0.8216
   8623SM  H21F11580   3.904   2.258  11.250  0.9439  1.3882  0.3482
   8623SM  H21G11581   3.998   2.153  11.359  0.4954  1.3248 -2.4561
   8623SM  C22F11582   3.851   2.285  11.450 -0.0837 -0.6808 -0.2613
   8623SM  H22F11583   3.945   2.340  11.475 -1.1477  0.5653  1.1630
   8623SM  H22G11584   3.821   2.226  11.539  1.3897  0.2415  0.8949
   8623SM  C23F11585   3.747   2.390  11.411  0.7385 -0.5749 -0.2134
   8623SM  H23F11586   3.649   2.339  11.401  1.6664 -2.2785 -1.1062
   8623SM  H23G11587   3.781   2.433  11.315  0.0534  2.1225  0.6611
   8623SM  H23H11588   3.738   2.480  11.475  0.3411  0.2032 -1.3458
   8723SM     N11589   4.846   2.717   8.229  0.1731 -0.1622  0.0562
   8723SM   C1511590   4.706   2.730   8.184  0.6177  0.9825 -0.0317
   8723SM  H15A11591   4.639   2.700   8.262  2.5592 -1.1102  0.9557
   8723SM  H15B11592   4.685   2.674   8.095  0.8777  0.3433  0.3024
   8723SM  H15C11593   4.690   2.835   8.160  1.4262  1.0116 -0.4808
   8723SM   C1411594   4.942   2.767   8.128 -0.2409  0.0701 -0.3166
   8723SM  H14A11595   4.914   2.730   8.030 -1.2772 -0.7667  0.2812
   8723SM  H14B11596   5.040   2.735   8.160 -0.5462 -0.9254 -0.3585
   8723SM  H14C11597   4.925   2.872   8.108  0.6352  0.1622 -0.6177
   8723SM   C1311598   4.854   2.803   8.350 -0.3018  0.2281 -0.4321
   8723SM  H13A11599   4.957   2.793   8.379  0.8345  2.2994 -3.3157
   8723SM  H13B11600   4.793   2.770   8.433 -1.0086 -2.1403 -1.7717
   8723SM  H13C11601   4.828   2.907   8.337 -2.4486 -0.2159 -0.0778
   8723SM   C1211602   4.869   2.570   8.269  0.0447 -0.0459  0.0171
   8723SM  H12A11603   4.873   2.505   8.182 -0.5425 -0.7246  0.4895
   8723SM  H12B11604   4.789   2.536   8.333 -0.7113 -0.3532 -1.0592
   8723SM   C1111605   4.996   2.535   8.349 -0.2816  0.3203  0.4626
   8723SM  H11A11606   4.992   2.428   8.378 -0.0838 -0.2391 -1.4292
   8723SM  H11B11607   4.982   2.592   8.443 -0.2302  1.1446 -0.0212
   8723SM     P11608   5.224   2.653   8.355 -0.2531  0.3857  0.3009
   8723SM   O1311609   5.361   2.616   8.315 -0.0563 -0.5053  0.4699
   8723SM   O1411610   5.188   2.795   8.329 -0.4495  0.2077 -0.4386
   8723SM   O1111611   5.214   2.616   8.508 -0.1282 -0.3997  0.2237
   8723SM   O1211612   5.121   2.559   8.283 -0.5477 -0.1826  0.1612
   8723SM   C1S11613   5.256   2.500   8.568 -0.2497  0.6412  0.7514
   8723SM   H1S11614   5.351   2.461   8.527 -0.0884  1.5002  0.3083
   8723SM   H1T11615   5.176   2.427   8.540  0.1665  1.0620 -1.7260
   8723SM    NF11616   5.293   2.371   8.780  0.3825  0.1935  0.1800
   8723SM   HNF11617   5.232   2.305   8.824 -1.2699 -0.1087 -2.3651
   8723SM   C2S11618   5.243   2.499   8.729  0.1770 -0.5947 -0.7267
   8723SM   H2S11619   5.299   2.581   8.778 -0.2782 -1.3477  1.1278
   8723SM   C3S11620   5.099   2.526   8.778 -0.2721 -1.0497  0.5459
   8723SM   H3S11621   5.024   2.462   8.728 -0.1340 -1.2311  0.5693
   8723SM    O311622   5.039   2.654   8.735  0.1870  0.1027  0.7120
   8723SM   HO311623   5.100   2.681   8.666  0.0031 -3.2165 -0.9330
   8723SM   C4S11624   5.088   2.512   8.930 -0.2855  0.0376  0.7443
   8723SM   H4S11625   5.070   2.409   8.962  1.5578 -1.3467 -2.2106
   8723SM   C5S11626   5.083   2.615   9.012  0.9364  0.4102 -0.8806
   8723SM   H5S11627   5.108   2.718   8.980 -0.4667  1.4412  1.1382
   8723SM   C6S11628   5.047   2.607   9.158  0.1703 -0.0284  0.5935
   8723SM   H6S11629   4.956   2.667   9.178  1.0896  1.3728  0.7160
   8723SM   H6T11630   5.135   2.647   9.213  1.1831  1.6589 -2.0369
   8723SM   C7S11631   5.022   2.463   9.216  0.0471  0.1754 -0.8200
   8723SM   H7S11632   5.105   2.394   9.191  0.6723  0.1911  1.0721
   8723SM   H7T11633   4.927   2.430   9.169 -0.7665  2.5284 -0.9892
   8723SM   C8S11634   5.011   2.477   9.369 -0.1468  0.1402 -0.0047
   8723SM   H8S11635   4.939   2.559   9.388  0.8217  0.9784  0.1627
   8723SM   H8T11636   5.110   2.510   9.407  0.1304  0.1555 -0.7305
   8723SM   C9S11637   4.966   2.343   9.439 -0.4137  0.3965 -0.3149
   8723SM   H9S11638   5.030   2.254   9.418 -1.7203 -1.1779  1.8918
   8723SM   H9T11639   4.867   2.310   9.403 -0.6631 -1.0155  1.4709
   8723SM  C10S11640   4.963   2.345   9.586 -0.2898  0.0305  0.4211
   8723SM  H10S11641   5.058   2.376   9.635 -0.2292 -0.3961  0.5779
   8723SM  H10T11642   4.953   2.243   9.628  2.4942 -0.0054  1.2246
   8723SM  C11S11643   4.846   2.435   9.632  0.3432 -1.0880  0.0775
   8723SM  H11S11644   4.746   2.416   9.586  0.7696 -0.5088 -1.1327
   8723SM  H11T11645   4.879   2.531   9.588  1.6166 -2.3320 -1.8473
   8723SM  C12S11646   4.847   2.440   9.782  0.2789  0.1776 -0.5742
   8723SM  H12S11647   4.788   2.531   9.809 -0.4269 -1.0920  2.7202
   8723SM  H12T11648   4.952   2.459   9.813 -0.9313  4.1733  1.9753
   8723SM  C13S11649   4.777   2.325   9.849 -0.6447 -0.3118 -0.3465
   8723SM  H13S11650   4.804   2.235   9.790 -2.3979  0.8561 -3.1309
   8723SM  H13T11651   4.668   2.334   9.832 -0.6668 -1.8877 -1.1988
   8723SM  C14S11652   4.809   2.326  10.002  0.1948 -0.6814 -0.5825
   8723SM  H14S11653   4.917   2.323  10.025 -0.2574  1.9050  2.6078
   8723SM  H14T11654   4.769   2.228  10.037  0.1779 -0.1324  1.0322
   8723SM  C15S11655   4.736   2.434  10.090 -0.0564 -0.5669  0.0590
   8723SM  H15S11656   4.627   2.434  10.069 -0.1060  2.3189 -0.0858
   8723SM  H15T11657   4.780   2.533  10.062 -0.0647 -1.1491 -2.1808
   8723SM  C16S11658   4.767   2.408  10.240 -0.2826  0.2566 -0.3886
   8723SM  H16S11659   4.873   2.439  10.256  0.2228 -1.7138  0.3111
   8723SM  H16T11660   4.758   2.300  10.265  2.5737 -0.0215 -0.1297
   8723SM  C17S11661   4.679   2.495  10.330 -0.1096  0.0353 -0.3361
   8723SM  H17S11662   4.571   2.484  10.305  0.2900 -1.7811 -1.4461
   8723SM  H17T11663   4.705   2.600  10.308  0.9932  0.4443  2.5200
   8723SM  C18S11664   4.701   2.476  10.484 -0.7321 -0.6353 -0.0349
   8723SM  H18S11665   4.654   2.378  10.507 -0.0989 -1.2627 -1.3552
   8723SM  H18T11666   4.652   2.555  10.546 -1.0881 -0.6846 -0.2505
   8723SM  H18U11667   4.809   2.474  10.509 -0.9455 -0.3267  0.9883
   8723SM   C1F11668   5.421   2.341   8.774 -0.0666  0.3402 -0.2373
   8723SM    OF11669   5.498   2.421   8.727  0.3641  0.0955  0.5399
   8723SM   C2F11670   5.461   2.217   8.848  0.3698  0.6666  0.5513
   8723SM   H2F11671   5.513   2.146   8.780 -1.7958 -1.4448  0.9596
   8723SM   H2G11672   5.369   2.155   8.859 -0.2887  1.2216 -1.4284
   8723SM   C3F11673   5.531   2.243   8.982 -0.2702  0.2732  0.5678
   8723SM   H3F11674   5.607   2.324   8.974  0.4460 -0.5631 -2.1003
   8723SM   H3G11675   5.588   2.149   9.005  0.2506  0.1033 -1.2618
   8723SM   C4F11676   5.449   2.286   9.101  0.2859 -0.3155  0.2951
   8723SM   H4F11677   5.363   2.216   9.114  0.2322 -0.2367  0.3615
   8723SM   H4G11678   5.402   2.385   9.086  1.2664  0.4492  1.9863
   8723SM   C5F11679   5.527   2.283   9.230  0.2110 -0.0414 -0.2979
   8723SM   H5F11680   5.631   2.314   9.207  1.4040 -3.1782  0.3800
   8723SM   H5G11681   5.535   2.174   9.251  1.3878 -0.5180 -2.8009
   8723SM   C6F11682   5.465   2.359   9.345 -0.3358  0.6829  0.0715
   8723SM   H6F11683   5.357   2.333   9.350  0.2163 -1.8637 -0.1548
   8723SM   H6G11684   5.468   2.467   9.318  2.0538 -0.0298 -3.1131
   8723SM   C7F11685   5.532   2.312   9.470 -0.2494  0.0501  0.1765
   8723SM   H7F11686   5.640   2.341   9.469 -0.2094 -0.0541  0.9211
   8723SM   H7G11687   5.535   2.201   9.477  0.0548  0.0588  0.2262
   8723SM   C8F11688   5.467   2.354   9.600  0.1797  0.4651  0.1287
   8723SM   H8F11689   5.375   2.291   9.604  1.6080 -1.9638 -2.0433
   8723SM   H8G11690   5.454   2.462   9.580  0.8654  0.2266 -1.7915
   8723SM   C9F11691   5.558   2.338   9.712  0.1702 -0.5191  0.3677
   8723SM   H9F11692   5.655   2.383   9.682 -0.9242  0.9979 -1.1039
   8723SM   H9G11693   5.573   2.229   9.725 -0.0161 -0.4384  1.3243
   8723SM  C10F11694   5.504   2.414   9.837  0.1964  0.4046  0.5074
   8723SM  H10F11695   5.396   2.395   9.853  0.0118  1.1473  0.1826
   8723SM  H10G11696   5.510   2.524   9.824 -0.1551  0.4900  1.0476
   8723SM  C11F11697   5.579   2.355   9.964  0.0689 -0.5891  0.2727
   8723SM  H11F11698   5.684   2.385   9.942 -0.8661  3.3456  0.3407
   8723SM  H11G11699   5.558   2.246   9.971 -2.9281 -0.0376  1.0232
   8723SM  C12F11700   5.546   2.436  10.093  1.2826 -0.0588  0.2552
   8723SM  H12F11701   5.443   2.475  10.081  1.6470  0.1497 -3.3216
   8723SM  H12G11702   5.611   2.526  10.100  3.5799 -1.7158  1.4387
   8723SM  C13F11703   5.564   2.352  10.212 -0.0765  0.2116  0.4152
   8723SM  H13F11704   5.672   2.326  10.214 -0.3815 -1.3633 -1.3256
   8723SM  H13G11705   5.506   2.258  10.224  2.6172 -1.3726  2.0840
   8723SM  C14F11706   5.525   2.428  10.339 -0.0110 -0.4782  1.0413
   8723SM  H14F11707   5.444   2.500  10.318  0.9571 -0.1391 -2.2222
   8723SM  H14G11708   5.614   2.485  10.373 -0.4536  1.5247 -0.9467
   8723SM  C15F11709   5.497   2.318  10.453 -0.4985 -0.2087 -0.4018
   8723SM  H15F11710   5.598   2.284  10.482 -0.1026  1.5509  0.4644
   8723SM  H15G11711   5.444   2.229  10.415  0.9239 -1.3559  0.2068
   8723SM  C16F11712   5.438   2.377  10.588  0.2311 -0.0103 -0.2213
   8723SM  H16F11713   5.488   2.474  10.606 -0.6090  0.4136 -0.1144
   8723SM  H16G11714   5.457   2.302  10.668  0.1617 -0.1734 -0.3563
   8723SM  C17F11715   5.288   2.407  10.567  0.2328  0.0061  0.2451
   8723SM  H17F11716   5.241   2.316  10.521  0.3204  0.4314 -0.7145
   8723SM  H17G11717   5.272   2.498  10.506  0.5415  0.0438  0.2181
   8723SM  C18F11718   5.214   2.448  10.696 -0.3989 -0.4460 -0.0859
   8723SM  H18F11719   5.194   2.369  10.771  0.3005  2.3723  3.3399
   8723SM  H18G11720   5.116   2.477  10.653  0.0464  1.1097 -0.1208
   8723SM  C19F11721   5.290   2.549  10.783  0.1028  0.0301 -0.0664
   8723SM  H19F11722   5.312   2.636  10.717 -0.8674  0.4395  0.1319
   8723SM  H19G11723   5.388   2.506  10.813 -1.9570 -3.1290  2.8531
   8723SM  C20F11724   5.217   2.597  10.906  0.3932 -0.6873  0.1575
   8723SM  H20F11725   5.217   2.519  10.985  2.9541 -1.1222 -0.1681
   8723SM  H20G11726   5.112   2.621  10.879  0.8012  0.4629 -0.5116
   8723SM  C21F11727   5.274   2.729  10.968 -0.0666 -0.2491  0.1968
   8723SM  H21F11728   5.270   2.816  10.900  1.1978 -0.0116  0.4049
   8723SM  H21G11729   5.383   2.715  10.985  0.2682  3.1096  1.5155
   8723SM  C22F11730   5.212   2.754  11.106  0.0570  0.0558 -0.0469
   8723SM  H22F11731   5.279   2.830  11.153  2.0718  0.3176 -3.0339
   8723SM  H22G11732   5.222   2.662  11.167 -1.7086  0.8724  1.5593
   8723SM  C23F11733   5.061   2.810  11.095 -0.5083  0.5479 -0.4893
   8723SM  H23F11734   5.015   2.818  11.195  0.3779 -0.5234  0.0252
   8723SM  H23G11735   4.991   2.751  11.031 -0.3287  0.8619 -0.9878
   8723SM  H23H11736   5.064   2.915  11.059  0.8364  0.2907 -1.1773
   8823SM     N11737   2.092   3.555   8.380 -0.0279 -0.3420  0.1148
   8823SM   C1511738   2.109   3.459   8.264  0.4200  0.4000  0.6550
   8823SM  H15A11739   2.050   3.491   8.179  3.1934  1.2551 -1.0780
   8823SM  H15B11740   2.092   3.354   8.281  0.0935 -0.0127 -1.8071
   8823SM  H15C11741   2.212   3.461   8.230  0.1845 -0.3902 -0.1562
   8823SM   C1411742   2.162   3.679   8.329 -0.0327  0.0490  0.7393
   8823SM  H14A11743   2.146   3.707   8.226  0.3427  1.7377  1.1113
   8823SM  H14B11744   2.267   3.653   8.339 -0.5236 -2.8014 -0.5764
   8823SM  H14C11745   2.131   3.762   8.390 -5.4635  0.9870 -2.6525
   8823SM   C1311746   1.950   3.580   8.398  0.8072 -0.3769 -0.2927
   8823SM  H13A11747   1.923   3.627   8.491  1.9092 -0.7471  0.2336
   8823SM  H13B11748   1.892   3.489   8.394 -0.8897  0.6111  0.6109
   8823SM  H13C11749   1.904   3.624   8.310 -0.7483 -0.3933  0.4821
   8823SM   C1211750   2.150   3.514   8.510 -0.3042  0.5732  0.1075
   8823SM  H12A11751   2.140   3.591   8.586 -0.6714  0.1893  0.4529
   8823SM  H12B11752   2.256   3.494   8.501 -0.4921 -0.5813  0.3039
   8823SM   C1111753   2.093   3.382   8.583 -0.1654  0.0498  0.2796
   8823SM  H11A11754   1.990   3.403   8.617 -0.0263  0.9073  0.2017
   8823SM  H11B11755   2.154   3.381   8.677 -0.0959 -0.8888  0.2350
   8823SM     P11756   2.216   3.170   8.515  0.2295 -0.0326 -0.1437
   8823SM   O1311757   2.197   3.064   8.409  0.4516  0.4866  0.5946
   8823SM   O1411758   2.340   3.245   8.514 -0.2636 -0.3629 -0.1046
   8823SM   O1111759   2.206   3.112   8.664  0.1364  0.1583  0.1412
   8823SM   O1211760   2.094   3.262   8.504  0.4404  0.3503  0.2413
   8823SM   C1S11761   2.099   3.036   8.714  0.4334 -0.0099 -0.4014
   8823SM   H1S11762   2.093   2.934   8.672  2.7822 -0.6634  0.6493
   8823SM   H1T11763   2.001   3.085   8.695  0.6216  0.6105  0.1612
   8823SM    NF11764   2.022   2.919   8.919  0.1078 -0.0261 -0.2017
   8823SM   HNF11765   1.945   2.950   8.974  1.1341 -0.8027  1.7770
   8823SM   C2S11766   2.124   3.011   8.864 -0.1583  0.1798  0.4034
   8823SM   H2S11767   2.220   2.957   8.858 -0.2243  0.1792 -1.0398
   8823SM   C3S11768   2.147   3.131   8.953 -0.3232 -0.6708  0.7514
   8823SM   H3S11769   2.055   3.192   8.960  0.0914 -0.1684  2.1410
   8823SM    O311770   2.242   3.220   8.890 -0.0837 -0.2325  0.3076
   8823SM   HO311771   2.223   3.185   8.803 -0.4654 -1.2359  0.7769
   8823SM   C4S11772   2.183   3.102   9.091  0.1152  0.1477 -0.9193
   8823SM   H4S11773   2.098   3.080   9.158  3.1713 -1.2983  2.8615
   8823SM   C5S11774   2.309   3.079   9.133  0.1815 -0.7088  0.0320
   8823SM   H5S11775   2.378   3.081   9.048 -1.5875  0.7222 -1.4608
   8823SM   C6S11776   2.367   3.014   9.258 -0.6671 -0.4987 -0.1371
   8823SM   H6S11777   2.413   3.097   9.316 -0.3785  2.5350 -4.2632
   8823SM   H6T11778   2.450   2.949   9.223 -0.2460 -0.3498  0.5662
   8823SM   C7S11779   2.269   2.932   9.340 -0.1066  0.0590  0.2158
   8823SM   H7S11780   2.238   2.842   9.285 -1.3121  0.5218  0.0964
   8823SM   H7T11781   2.176   2.992   9.352  0.6370  1.4324 -0.5523
   8823SM   C8S11782   2.320   2.907   9.477 -0.6725 -0.6523  0.2496
   8823SM   H8S11783   2.346   3.001   9.529  0.9677 -1.4768  1.0015
   8823SM   H8T11784   2.402   2.838   9.448 -1.3805 -0.7789 -1.5962
   8823SM   C9S11785   2.223   2.839   9.581  0.1978  0.0447 -0.1146
   8823SM   H9S11786   2.187   2.742   9.540 -1.6251  0.3358  0.7377
   8823SM   H9T11787   2.134   2.905   9.588 -0.0430 -0.0141 -1.9765
   8823SM  C10S11788   2.280   2.819   9.719 -0.1069  0.2104 -0.1156
   8823SM  H10S11789   2.343   2.902   9.758 -0.9811  1.3239 -0.9899
   8823SM  H10T11790   2.352   2.736   9.706 -0.1159 -0.0274  1.2181
   8823SM  C11S11791   2.166   2.780   9.819  0.4427 -0.0925 -0.8304
   8823SM  H11S11792   2.110   2.698   9.770 -0.4961 -0.2169  0.3821
   8823SM  H11T11793   2.097   2.866   9.835  2.0451  0.8275  1.8785
   8823SM  C12S11794   2.213   2.718   9.953 -0.0228  0.5002  1.0374
   8823SM  H12S11795   2.293   2.790   9.981  0.6820  0.4811 -0.7655
   8823SM  H12T11796   2.268   2.622   9.938  0.1643  0.8707 -1.0134
   8823SM  C13S11797   2.100   2.720  10.054 -0.3640  0.4205  0.4482
   8823SM  H13S11798   2.015   2.658  10.018  0.7197 -1.7175  1.4386
   8823SM  H13T11799   2.071   2.825  10.077  0.3080  0.8423 -0.5679
   8823SM  C14S11800   2.154   2.661  10.186  0.5087 -0.3774  0.2109
   8823SM  H14S11801   2.255   2.706  10.198  0.8489 -1.6142  2.6211
   8823SM  H14T11802   2.162   2.553  10.165 -1.3404  0.0721 -3.6060
   8823SM  C15S11803   2.065   2.701  10.306 -0.1885  0.8785  0.1872
   8823SM  H15S11804   1.966   2.652  10.293  0.3697 -0.6050  1.1747
   8823SM  H15T11805   2.063   2.812  10.301  2.5129  1.0199  0.6649
   8823SM  C16S11806   2.114   2.662  10.445  0.3502 -0.2700  0.4150
   8823SM  H16S11807   2.224   2.677  10.440  0.1490  1.7649  0.9693
   8823SM  H16T11808   2.094   2.555  10.467  0.4806 -0.3518  0.1366
   8823SM  C17S11809   2.069   2.748  10.562  0.2486 -0.3545 -1.0954
   8823SM  H17S11810   2.122   2.846  10.563 -0.0173 -0.2117 -0.6911
   8823SM  H17T11811   2.099   2.702  10.659  0.6987  3.6757  0.8732
   8823SM  C18S11812   1.918   2.780  10.583  0.1992  0.1321  0.2745
   8823SM  H18S11813   1.891   2.826  10.681  1.6196  0.1904  0.6748
   8823SM  H18T11814   1.868   2.682  10.569 -1.9406  1.3937 -1.3762
   8823SM  H18U11815   1.884   2.846  10.501 -1.6991 -2.2815 -0.9984
   8823SM   C1F11816   2.027   2.789   8.890 -0.5638  0.8558  0.6800
   8823SM    OF11817   2.136   2.749   8.842 -0.2490 -0.2572 -0.4640
   8823SM   C2F11818   1.903   2.707   8.907  0.2410  0.4347  0.1763
   8823SM   H2F11819   1.885   2.660   8.808  1.8856  2.4686 -1.1817
   8823SM   H2G11820   1.819   2.779   8.913  0.4861  1.0285 -2.3850
   8823SM   C3F11821   1.911   2.599   9.020 -0.4148 -0.1873 -0.2518
   8823SM   H3F11822   1.982   2.522   8.984 -0.2928  0.4521 -1.4215
   8823SM   H3G11823   1.808   2.558   9.028 -0.0512 -1.6761 -2.3275
   8823SM   C4F11824   1.954   2.673   9.154 -0.3221 -0.0072  0.5796
   8823SM   H4F11825   1.871   2.747   9.157 -1.7218 -1.4665 -0.0473
   8823SM   H4G11826   2.052   2.723   9.145 -1.4824  2.1201 -1.1105
   8823SM   C5F11827   1.953   2.590   9.283 -0.5375 -0.3361 -0.0075
   8823SM   H5F11828   2.045   2.536   9.314 -0.0762  0.2941 -0.2542
   8823SM   H5G11829   1.877   2.512   9.261 -2.6252  0.5874  3.3132
   8823SM   C6F11830   1.882   2.658   9.398  0.1618 -0.3921 -0.0009
   8823SM   H6F11831   1.773   2.663   9.379  0.1388 -1.2829 -0.1284
   8823SM   H6G11832   1.921   2.760   9.419 -1.4430  0.0561  0.9762
   8823SM   C7F11833   1.879   2.565   9.522 -0.6800  0.4281 -0.1567
   8823SM   H7F11834   1.988   2.562   9.545 -0.4985 -1.8728 -1.1267
   8823SM   H7G11835   1.850   2.462   9.494  1.0943 -0.2856  0.5364
   8823SM   C8F11836   1.795   2.618   9.638 -0.2202 -0.5074  0.2443
   8823SM   H8F11837   1.815   2.725   9.659 -2.1925  0.1813 -1.0717
   8823SM   H8G11838   1.815   2.566   9.734  2.9193 -0.0524 -0.0595
   8823SM   C9F11839   1.640   2.604   9.614 -0.5690 -0.1106 -0.1912
   8823SM   H9F11840   1.635   2.537   9.526  0.5951 -0.7130  0.1964
   8823SM   H9G11841   1.588   2.699   9.587 -0.5517  0.5411  1.8433
   8823SM  C10F11842   1.574   2.538   9.738  0.1270 -0.2920 -0.1771
   8823SM  H10F11843   1.631   2.445   9.760  1.8272  0.7408 -0.1166
   8823SM  H10G11844   1.477   2.500   9.699  2.3130 -3.5185 -3.1292
   8823SM  C11F11845   1.548   2.616   9.865 -0.3171 -0.0939  0.2911
   8823SM  H11F11846   1.475   2.695   9.838 -0.9653 -0.2667  1.4806
   8823SM  H11G11847   1.647   2.658   9.895 -1.0500  1.1907  1.0277
   8823SM  C12F11848   1.511   2.530   9.988 -0.5372 -0.7628  0.0048
   8823SM  H12F11849   1.417   2.471   9.987 -1.7777  0.9560  2.6669
   8823SM  H12G11850   1.475   2.604  10.063  0.1500 -0.7377  0.3227
   8823SM  C13F11851   1.628   2.460  10.056 -1.2777 -1.1542 -0.8283
   8823SM  H13F11852   1.705   2.441   9.978 -1.6279  0.4865 -1.6057
   8823SM  H13G11853   1.583   2.361  10.081 -0.4678 -1.2418  0.3588
   8823SM  C14F11854   1.688   2.520  10.185  0.1654 -0.4013  0.1352
   8823SM  H14F11855   1.735   2.617  10.160  1.2379 -1.0784 -0.5388
   8823SM  H14G11856   1.767   2.456  10.232 -0.2348  0.4334  2.0306
   8823SM  C15F11857   1.579   2.538  10.300  0.1189  0.0135  0.7354
   8823SM  H15F11858   1.510   2.451  10.299 -1.7771  1.4161  2.5457
   8823SM  H15G11859   1.518   2.625  10.270 -0.9168 -0.7243  0.6571
   8823SM  C16F11860   1.630   2.574  10.437 -0.4885  0.5032 -0.1195
   8823SM  H16F11861   1.687   2.670  10.432  0.8904 -0.3002 -0.5961
   8823SM  H16G11862   1.712   2.506  10.468  0.0841  0.5302 -1.4700
   8823SM  C17F11863   1.528   2.581  10.548 -0.4096 -0.2713  0.3656
   8823SM  H17F11864   1.445   2.652  10.525  1.0446  1.7094  0.9729
   8823SM  H17G11865   1.578   2.611  10.643  1.4993 -1.0693 -0.3555
   8823SM  C18F11866   1.461   2.446  10.564 -0.6863 -0.4749  0.1448
   8823SM  H18F11867   1.532   2.364  10.541 -1.5839 -1.3703  0.4832
   8823SM  H18G11868   1.394   2.443  10.476 -1.1548 -1.1143  0.5138
   8823SM  C19F11869   1.392   2.415  10.698  0.5280 -0.1254 -0.3346
   8823SM  H19F11870   1.301   2.363  10.662  0.2139  0.9582 -1.1627
   8823SM  H19G11871   1.363   2.513  10.739 -1.1323 -0.8532  0.2866
   8823SM  C20F11872   1.491   2.330  10.776  0.3082 -0.1022 -0.0644
   8823SM  H20F11873   1.592   2.376  10.780  0.7244 -1.0989  1.8443
   8823SM  H20G11874   1.501   2.235  10.718  1.7713 -0.0835  0.1336
   8823SM  C21F11875   1.446   2.300  10.916  0.0272 -0.7589 -0.2429
   8823SM  H21F11876   1.540   2.257  10.955  1.8142 -0.0284 -3.4143
   8823SM  H21G11877   1.363   2.226  10.917 -0.8623  0.1937 -0.5532
   8823SM  C22F11878   1.424   2.428  10.999  0.3230  0.1404  1.2153
   8823SM  H22F11879   1.324   2.472  10.979  0.3247  1.1448  3.0932
   8823SM  H22G11880   1.495   2.510  10.974 -0.9496  0.5398 -1.4713
   8823SM  C23F11881   1.417   2.398  11.150  0.4266 -1.0806 -0.3712
   8823SM  H23F11882   1.355   2.310  11.175 -1.5551  0.6636  1.2885
   8823SM  H23G11883   1.358   2.479  11.198  1.3567  0.9416 -2.4472
   8823SM  H23H11884   1.514   2.379  11.201 -0.2053 -2.0585  0.5113
   8923SM     N11885   6.315   2.678   8.228  0.2497 -0.3130 -0.5559
   8923SM   C1511886   6.352   2.573   8.129  0.0504 -0.1500  0.0849
   8923SM  H15A11887   6.411   2.492   8.169  0.1776 -0.5757 -0.9200
   8923SM  H15B11888   6.411   2.597   8.042  0.1518 -1.2311 -0.1632
   8923SM  H15C11889   6.268   2.510   8.102 -0.2035 -0.2497  1.0751
   8923SM   C1411890   6.421   2.782   8.232  0.4672  0.7076  0.6423
   8923SM  H14A11891   6.517   2.734   8.239  0.3339  0.1681 -0.7654
   8923SM  H14B11892   6.408   2.837   8.324 -3.2354 -0.5681  1.0639
   8923SM  H14C11893   6.413   2.842   8.142 -1.6963  1.6235  1.3696
   8923SM   C1311894   6.194   2.744   8.180 -0.4503  0.1837 -0.2775
   8923SM  H13A11895   6.158   2.818   8.251 -1.3005  0.3028 -0.8124
   8923SM  H13B11896   6.116   2.669   8.178  1.7102 -2.1592 -0.4894
   8923SM  H13C11897   6.215   2.781   8.081 -1.2350 -1.0208 -0.9096
   8923SM   C1211898   6.291   2.617   8.363 -0.1181  0.2516  0.2667
   8923SM  H12A11899   6.382   2.573   8.401 -0.8005  0.5674  2.4457
   8923SM  H12B11900   6.217   2.538   8.356 -0.1775  0.3704 -0.5900
   8923SM   C1111901   6.243   2.707   8.482 -0.0911 -0.6916  0.0048
   8923SM  H11A11902   6.227   2.639   8.569  1.6756  2.1712  2.8112
   8923SM  H11B11903   6.150   2.761   8.457  1.3278  1.1045 -1.7446
   8923SM     P11904   6.464   2.773   8.605 -0.4017  0.0260 -0.2199
   8923SM   O1311905   6.494   2.627   8.582  0.3202 -0.1490 -0.0661
   8923SM   O1411906   6.575   2.871   8.578 -0.3424 -0.0778  0.4359
   8923SM   O1111907   6.417   2.793   8.757 -0.1647  0.4412 -0.7731
   8923SM   O1211908   6.340   2.804   8.517  0.1614 -0.0942 -0.2299
   8923SM   C1S11909   6.315   2.891   8.790 -0.2627 -0.3532 -0.3173
   8923SM   H1S11910   6.237   2.885   8.712  0.2996  1.7372 -1.1093
   8923SM   H1T11911   6.363   2.991   8.799 -0.3139 -0.5054  2.6663
   8923SM    NF11912   6.138   2.941   8.952  0.3001  0.0464  0.2884
   8923SM   HNF11913   6.172   3.016   9.007  2.5492  0.0482 -1.0061
   8923SM   C2S11914   6.248   2.848   8.924 -0.3014 -0.0021  0.1866
   8923SM   H2S11915   6.198   2.752   8.904  0.2921 -0.3192  0.2027
   8923SM   C3S11916   6.345   2.840   9.042 -0.3571  0.7655 -0.5830
   8923SM   H3S11917   6.371   2.946   9.064  4.4713  0.1476 -2.1205
   8923SM    O311918   6.468   2.774   9.003 -0.7033 -0.5663  0.0426
   8923SM   HO311919   6.469   2.780   8.907 -2.0675  0.0114  0.0467
   8923SM   C4S11920   6.293   2.763   9.166 -0.1412 -0.1104  0.6404
   8923SM   H4S11921   6.309   2.825   9.255 -0.5428  0.9366 -0.0082
   8923SM   C5S11922   6.235   2.644   9.175  0.2616 -0.4031 -0.3168
   8923SM   H5S11923   6.224   2.577   9.088  4.1450 -2.3776  0.5083
   8923SM   C6S11924   6.188   2.578   9.304  0.0807 -0.9573 -0.6695
   8923SM   H6S11925   6.245   2.483   9.316 -0.3699 -0.9368  2.2876
   8923SM   H6T11926   6.083   2.546   9.286 -0.6650  0.4951  0.8031
   8923SM   C7S11927   6.165   2.661   9.436 -0.2629  0.8376  0.1522
   8923SM   H7S11928   6.100   2.746   9.405 -0.3109  0.3158 -1.2517
   8923SM   H7T11929   6.258   2.713   9.468 -0.2762 -0.4901  2.5699
   8923SM   C8S11930   6.119   2.582   9.562 -0.4052  0.2526  0.1789
   8923SM   H8S11931   6.194   2.504   9.584 -1.1905 -0.3439  0.8334
   8923SM   H8T11932   6.036   2.514   9.533  0.6235 -1.9631  2.1095
   8923SM   C9S11933   6.082   2.679   9.674  0.0410  0.2431  0.1551
   8923SM   H9S11934   6.014   2.753   9.627 -0.3186  0.1602  0.5283
   8923SM   H9T11935   6.171   2.724   9.722 -0.2034 -0.7159  1.5833
   8923SM  C10S11936   6.007   2.604   9.778 -0.1431 -0.2969  0.1498
   8923SM  H10S11937   6.010   2.493   9.775 -0.1650 -0.2710 -1.7294
   8923SM  H10T11938   5.899   2.623   9.759  0.5683  3.1615 -1.2618
   8923SM  C11S11939   6.040   2.655   9.915  0.6821 -0.4682  0.3061
   8923SM  H11S11940   6.056   2.764   9.903 -0.8099 -0.3864 -1.3815
   8923SM  H11T11941   6.137   2.609   9.944  0.3983 -1.7590 -0.6914
   8923SM  C12S11942   5.938   2.616  10.021 -0.9834 -0.5229 -0.1899
   8923SM  H12S11943   5.924   2.505  10.024  0.1752 -0.6928  3.0947
   8923SM  H12T11944   5.842   2.671  10.012  0.3645  1.6500 -2.0780
   8923SM  C13S11945   5.997   2.638  10.161 -0.2697 -0.1262 -0.2597
   8923SM  H13S11946   6.020   2.746  10.174 -1.7703  0.0824  1.0048
   8923SM  H13T11947   6.093   2.585  10.178 -0.0201  0.7913  1.4450
   8923SM  C14S11948   5.893   2.612  10.277 -0.3167  0.1819 -0.1286
   8923SM  H14S11949   5.861   2.505  10.275  0.9652 -0.2122 -0.4709
   8923SM  H14T11950   5.806   2.681  10.269 -1.5076 -1.1046  0.9982
   8923SM  C15S11951   5.960   2.626  10.419  0.0266 -0.6583 -0.0969
   8923SM  H15S11952   5.995   2.731  10.426 -1.4812 -0.0913 -0.6588
   8923SM  H15T11953   6.050   2.562  10.431  0.9343 -0.1392 -3.1534
   8923SM  C16S11954   5.854   2.590  10.533 -0.2081  0.8148 -0.4288
   8923SM  H16S11955   5.819   2.486  10.517 -0.6102  0.6589  1.2876
   8923SM  H16T11956   5.765   2.656  10.527 -0.3955  0.6940  0.8389
   8923SM  C17S11957   5.913   2.600  10.682  0.1486 -0.2924  0.3924
   8923SM  H17S11958   5.962   2.699  10.693  0.6122 -0.4810  0.0496
   8923SM  H17T11959   5.995   2.525  10.687  0.6409  0.1580 -0.7742
   8923SM  C18S11960   5.801   2.570  10.782 -0.3415  0.0635 -0.3984
   8923SM  H18S11961   5.841   2.571  10.886  2.5183  2.7251 -1.3711
   8923SM  H18T11962   5.758   2.469  10.766 -1.1671  0.2476  0.4995
   8923SM  H18U11963   5.738   2.662  10.775 -0.0403  0.4024  0.9724
   8923SM   C1F11964   6.022   2.942   8.883  0.1532 -0.1321 -0.0471
   8923SM    OF11965   6.002   2.857   8.802 -0.5176  0.6015  0.1851
   8923SM   C2F11966   5.927   3.057   8.906 -0.1709  0.2494  0.7379
   8923SM   H2F11967   5.823   3.020   8.895  0.5613 -2.0161  0.9538
   8923SM   H2G11968   5.944   3.138   8.832  1.4570 -2.5170 -2.1688
   8923SM   C3F11969   5.947   3.122   9.042  0.3738  0.5160 -0.0591
   8923SM   H3F11970   5.877   3.207   9.055 -1.6913 -1.0692 -0.3598
   8923SM   H3G11971   6.050   3.163   9.052  0.9623 -1.0935  1.0312
   8923SM   C4F11972   5.897   3.028   9.155  0.0362  0.9412  0.5879
   8923SM   H4F11973   5.961   2.938   9.147  0.0295  1.0110 -0.2770
   8923SM   H4G11974   5.796   2.985   9.137  0.9570 -1.5892  0.9993
   8923SM   C5F11975   5.914   3.087   9.295  0.3800  0.3145 -0.1823
   8923SM   H5F11976   5.886   3.010   9.369  0.0490  1.3244  0.7690
   8923SM   H5G11977   5.858   3.183   9.303 -1.2584 -0.6350  0.1689
   8923SM   C6F11978   6.058   3.124   9.327  0.8359 -0.3042  0.0071
   8923SM   H6F11979   6.073   3.230   9.300  0.2686  0.1949  1.5675
   8923SM   H6G11980   6.121   3.065   9.256 -1.3595 -2.5540 -0.2129
   8923SM   C7F11981   6.098   3.085   9.465 -0.0159 -0.1911  0.3403
   8923SM   H7F11982   6.205   3.112   9.478 -0.5817  1.7805  1.3242
   8923SM   H7G11983   6.085   2.974   9.470  0.8786 -0.3857 -1.0069
   8923SM   C8F11984   6.027   3.144   9.592  0.0316  0.1502 -0.0392
   8923SM   H8F11985   5.920   3.115   9.576  0.2299  0.0941 -1.3855
   8923SM   H8G11986   6.040   3.254   9.593 -1.2405  0.4341  4.2263
   8923SM   C9F11987   6.087   3.086   9.717  0.3056  0.3895 -0.1904
   8923SM   H9F11988   6.197   3.092   9.707  0.4292  1.2518  1.2620
   8923SM   H9G11989   6.081   2.976   9.722  3.4776  0.1722  1.8627
   8923SM  C10F11990   6.038   3.162   9.841  0.2499 -0.1067 -0.4490
   8923SM  H10F11991   5.928   3.174   9.846  0.0402 -2.2555  2.0621
   8923SM  H10G11992   6.081   3.264   9.852  0.0328 -0.0957  0.3373
   8923SM  C11F11993   6.083   3.099   9.972  0.2116 -0.3247  0.1418
   8923SM  H11F11994   6.194   3.109   9.981  0.4108  0.4668 -2.3910
   8923SM  H11G11995   6.055   2.992   9.964  0.3197 -0.5953  2.5995
   8923SM  C12F11996   6.009   3.154  10.093 -0.2764  0.2039 -0.0398
   8923SM  H12F11997   5.902   3.142  10.066 -0.2139  1.5548 -1.0434
   8923SM  H12G11998   6.034   3.259  10.120  1.1863 -0.5652  1.7962
   8923SM  C13F11999   6.040   3.074  10.226 -0.7301 -0.1359  0.3998
   8923SM  H13F12000   6.147   3.044  10.239 -0.5582  0.0353 -0.5337
   8923SM  H13G12001   5.991   2.976  10.209 -1.1577 -0.1057  1.4049
   8923SM  C14F12002   5.976   3.142  10.346 -0.1161  0.5761 -0.4268
   8923SM  H14F12003   5.872   3.167  10.318  0.6422  0.7344 -3.4023
   8923SM  H14G12004   6.035   3.236  10.357  0.8272 -0.0407 -0.0556
   8923SM  C15F12005   5.988   3.061  10.479 -0.4507  0.3053 -0.1807
   8923SM  H15F12006   6.086   3.009  10.485 -0.3435  0.1723 -2.2986
   8923SM  H15G12007   5.910   2.982  10.482  1.5491 -1.8447  3.4856
   8923SM  C16F12008   5.977   3.137  10.610 -0.3670  0.4940 -0.6548
   8923SM  H16F12009   5.882   3.194  10.601 -0.7344 -0.0972 -0.5721
   8923SM  H16G12010   6.065   3.204  10.613 -1.4668  1.9850 -0.6558
   8923SM  C17F12011   5.966   3.051  10.737 -0.5358 -0.4058  0.5129
   8923SM  H17F12012   6.039   2.968  10.741 -2.0271 -1.7420  0.8825
   8923SM  H17G12013   5.867   3.001  10.734 -0.4424 -0.5492 -0.6402
   8923SM  C18F12014   5.978   3.120  10.876  0.2814 -0.6132 -0.3023
   8923SM  H18F12015   5.889   3.186  10.883 -1.4527 -2.9774  2.2190
   8923SM  H18G12016   6.070   3.180  10.892  0.3877  0.1111 -3.1685
   8923SM  C19F12017   5.960   3.034  11.005 -0.5132 -0.4027 -0.2532
   8923SM  H19F12018   6.040   2.957  11.004 -1.0864 -1.0191 -1.2100
   8923SM  H19G12019   5.865   2.977  11.014  0.3742 -1.6171  2.4840
   8923SM  C20F12020   5.983   3.114  11.136 -1.0314  0.2253 -0.3911
   8923SM  H20F12021   5.896   3.179  11.158 -1.1103 -0.6266  2.1518
   8923SM  H20G12022   6.077   3.172  11.126  0.5271 -1.2152  3.7889
   8923SM  C21F12023   6.014   3.028  11.259  0.9111 -0.3359  0.3811
   8923SM  H21F12024   6.113   2.982  11.240  1.0448  0.1420 -0.0922
   8923SM  H21G12025   5.936   2.949  11.266  1.6902 -1.0868  0.8916
   8923SM  C22F12026   6.027   3.104  11.391 -0.1329 -0.7141  0.2818
   8923SM  H22F12027   5.925   3.133  11.424 -0.1628  0.9211 -1.1093
   8923SM  H22G12028   6.082   3.198  11.369  0.0498 -0.6087  1.1487
   8923SM  C23F12029   6.086   3.022  11.502  0.0834  0.6963  0.1213
   8923SM  H23F12030   6.102   3.073  11.600 -0.8783 -1.0699  1.2544
   8923SM  H23G12031   6.188   2.982  11.484  0.5075  0.3394  2.8115
   8923SM  H23H12032   6.022   2.932  11.514 -0.4053  0.9652 -0.4375
   9023SM     N12033   0.590   3.202   8.673 -0.8730  0.5153  0.3210
   9023SM   C1512034   0.595   3.067   8.607  0.1533 -0.0230 -0.9031
   9023SM  H15A12035   0.591   2.995   8.688 -2.1096 -0.4561 -1.3113
   9023SM  H15B12036   0.676   3.057   8.537  1.9678  1.6888  0.7973
   9023SM  H15C12037   0.500   3.044   8.561 -0.4745  0.6021  0.0220
   9023SM   C1412038   0.729   3.250   8.718 -0.3915  0.1602 -0.5357
   9023SM  H14A12039   0.800   3.261   8.636 -2.7132  0.5084 -2.6089
   9023SM  H14B12040   0.766   3.181   8.792 -3.1369  0.3323  1.0932
   9023SM  H14C12041   0.707   3.349   8.754 -1.4475 -0.8030  1.5971
   9023SM   C1312042   0.538   3.301   8.575 -0.6560 -0.1757 -0.4427
   9023SM  H13A12043   0.435   3.280   8.550 -1.0099  2.1234 -1.2001
   9023SM  H13B12044   0.599   3.311   8.486  1.2491 -0.1835  0.8259
   9023SM  H13C12045   0.534   3.397   8.625 -1.8173  0.0250 -0.8747
   9023SM   C1212046   0.502   3.189   8.791  0.2026 -0.6821  0.1608
   9023SM  H12A12047   0.403   3.209   8.752  0.9002 -0.6044 -1.6952
   9023SM  H12B12048   0.520   3.271   8.860 -0.0170 -1.2021  0.8467
   9023SM   C1112049   0.501   3.056   8.872  0.2209 -0.8892  0.2737
   9023SM  H11A12050   0.433   2.978   8.832 -1.0744 -0.7728  2.0958
   9023SM  H11B12051   0.454   3.079   8.970  3.7650  0.4591  1.8460
   9023SM     P12052   0.720   3.028   9.016 -0.0134 -0.4333 -0.1386
   9023SM   O1312053   0.845   2.952   8.999 -0.4144 -0.0368 -0.5917
   9023SM   O1412054   0.735   3.172   9.041 -0.5834  0.7500  0.2462
   9023SM   O1112055   0.627   2.971   9.131  0.2411 -0.2627 -0.3802
   9023SM   O1212056   0.636   2.997   8.890  0.1719  0.0232  0.4719
   9023SM   C1S12057   0.628   2.826   9.142 -0.1314 -0.0129 -0.2233
   9023SM   H1S12058   0.730   2.787   9.160 -0.1906  0.1577  0.5204
   9023SM   H1T12059   0.593   2.784   9.045 -0.3877 -1.0818  0.3074
   9023SM    NF12060   0.559   2.643   9.285 -0.2415 -0.3406 -0.0807
   9023SM   HNF12061   0.493   2.584   9.240 -0.4674  0.8778 -1.4521
   9023SM   C2S12062   0.530   2.783   9.255  0.4499  0.4172  0.3133
   9023SM   H2S12063   0.551   2.841   9.347  1.3073  0.8207 -0.1309
   9023SM   C3S12064   0.385   2.813   9.216  0.1668  0.0502 -0.2113
   9023SM   H3S12065   0.376   2.752   9.123  0.4370 -1.3335  0.6354
   9023SM    O312066   0.362   2.949   9.180 -0.0940 -0.6321 -0.1686
   9023SM   HO312067   0.454   2.974   9.166 -0.0052  0.8422  2.4316
   9023SM   C4S12068   0.291   2.756   9.325  0.1477 -0.0777  0.3209
   9023SM   H4S12069   0.273   2.647   9.316  1.9471 -0.5706  2.0946
   9023SM   C5S12070   0.232   2.823   9.427  0.4199 -0.2003 -0.7090
   9023SM   H5S12071   0.261   2.928   9.447  2.8860 -0.7128 -1.2452
   9023SM   C6S12072   0.150   2.754   9.533  0.0385 -0.6987 -0.4962
   9023SM   H6S12073   0.127   2.650   9.501 -0.1900  0.1809 -3.5025
   9023SM   H6T12074   0.049   2.800   9.544  0.8573  1.1432 -0.3163
   9023SM   C7S12075   0.235   2.756   9.670 -1.3254  0.7843  0.1073
   9023SM   H7S12076   0.253   2.862   9.698  2.3454  0.2354  0.2473
   9023SM   H7T12077   0.339   2.718   9.659 -1.1099  1.6174 -0.9627
   9023SM   C8S12078   0.165   2.700   9.791 -0.2228 -0.2868 -0.5071
   9023SM   H8S12079   0.140   2.593   9.773  0.5253 -0.4400 -0.6523
   9023SM   H8T12080   0.068   2.753   9.803  0.2235 -0.0038  3.2453
   9023SM   C9S12081   0.226   2.720   9.930  0.1227  0.1425  0.4259
   9023SM   H9S12082   0.247   2.827   9.953  2.5147  0.1961 -1.5464
   9023SM   H9T12083   0.318   2.659   9.941 -0.8263 -1.2284  0.9756
   9023SM  C10S12084   0.128   2.662  10.035  0.7828 -0.7174 -0.4238
   9023SM  H10S12085   0.133   2.553  10.015 -0.0787 -0.5840 -1.4214
   9023SM  H10T12086   0.025   2.703  10.027  0.8367 -0.1954  1.2313
   9023SM  C11S12087   0.196   2.676  10.169  0.1466 -0.1516 -0.5417
   9023SM  H11S12088   0.228   2.781  10.186  0.4191 -0.6613  2.7279
   9023SM  H11T12089   0.286   2.611  10.170  0.4472  0.2559 -0.9262
   9023SM  C12S12090   0.109   2.629  10.290  0.2123 -0.3328 -0.3345
   9023SM  H12S12091   0.080   2.522  10.289  0.7242 -0.4739 -0.1684
   9023SM  H12T12092   0.012   2.685  10.293  0.1891 -0.4003  0.2502
   9023SM  C13S12093   0.198   2.659  10.413 -0.1905 -0.3390 -0.2561
   9023SM  H13S12094   0.235   2.764  10.405 -0.3822 -0.2696 -0.2401
   9023SM  H13T12095   0.285   2.590  10.410  1.1414  1.1938  1.0681
   9023SM  C14S12096   0.128   2.634  10.551  0.0711 -0.9055  0.0323
   9023SM  H14S12097   0.100   2.527  10.559 -2.3418 -0.2826  0.5350
   9023SM  H14T12098   0.033   2.689  10.564  1.2950  1.1884  0.5882
   9023SM  C15S12099   0.220   2.669  10.670 -0.1077 -0.3789 -0.6361
   9023SM  H15S12100   0.248   2.774  10.649  0.9233 -0.3954  0.5373
   9023SM  H15T12101   0.316   2.612  10.663 -1.1950 -2.5012  0.5240
   9023SM  C16S12102   0.141   2.657  10.805  0.4195 -0.5269  0.3984
   9023SM  H16S12103   0.098   2.555  10.811 -1.2783  0.1065 -0.3591
   9023SM  H16T12104   0.058   2.731  10.800  1.7949  1.1917  1.7022
   9023SM  C17S12105   0.224   2.700  10.932 -0.0803 -0.0371 -0.2327
   9023SM  H17S12106   0.310   2.631  10.949 -1.1109 -0.9568  1.5541
   9023SM  H17T12107   0.153   2.689  11.016  0.5060  0.7701  0.3834
   9023SM  C18S12108   0.259   2.843  10.923 -0.0516 -0.5406 -0.3040
   9023SM  H18S12109   0.312   2.876  11.015 -0.8940  1.0632 -0.3565
   9023SM  H18T12110   0.168   2.906  10.917  0.9664  1.0299 -0.0850
   9023SM  H18U12111   0.318   2.866  10.831 -1.5342  2.1275 -0.6883
   9023SM   C1F12112   0.674   2.594   9.332  0.3983  0.9392 -0.0841
   9023SM    OF12113   0.761   2.668   9.378 -0.0831 -0.5294  0.4010
   9023SM   C2F12114   0.688   2.447   9.330 -0.1545  0.1724 -0.0873
   9023SM   H2F12115   0.738   2.416   9.236  1.4460 -1.1557  1.1311
   9023SM   H2G12116   0.591   2.393   9.326 -0.5898  0.8354  1.1264
   9023SM   C3F12117   0.760   2.392   9.459 -0.0077 -0.4941 -0.4990
   9023SM   H3F12118   0.858   2.441   9.475 -0.0274 -0.4338 -0.5657
   9023SM   H3G12119   0.774   2.281   9.461  0.2192 -0.4701 -0.7293
   9023SM   C4F12120   0.676   2.426   9.584 -0.3179 -0.0458  0.4347
   9023SM   H4F12121   0.583   2.365   9.586  0.1433 -0.7553  1.7590
   9023SM   H4G12122   0.639   2.529   9.570 -0.3046 -0.1418 -0.3099
   9023SM   C5F12123   0.753   2.410   9.706  0.0715 -0.4055  0.1087
   9023SM   H5F12124   0.825   2.493   9.724  1.0629 -0.9198 -1.3024
   9023SM   H5G12125   0.808   2.313   9.708 -1.9083 -1.5774  0.2163
   9023SM   C6F12126   0.651   2.415   9.824 -0.3520  0.0129  0.3221
   9023SM   H6F12127   0.586   2.325   9.828 -2.8399  1.6857 -0.4763
   9023SM   H6G12128   0.593   2.509   9.818  0.7058  0.7306  1.0155
   9023SM   C7F12129   0.719   2.407   9.967 -0.2925  0.4018  0.7786
   9023SM   H7F12130   0.798   2.485   9.964 -0.3890  0.4800 -1.0595
   9023SM   H7G12131   0.770   2.309   9.972 -0.2603  0.4620  1.7465
   9023SM   C8F12132   0.634   2.428  10.092 -0.4406  0.3238 -0.0970
   9023SM   H8F12133   0.577   2.333  10.089  2.0061 -1.3169  1.7877
   9023SM   H8G12134   0.558   2.510  10.085 -2.0681 -1.1856 -0.8861
   9023SM   C9F12135   0.714   2.429  10.219 -0.1393  0.0682  0.4903
   9023SM   H9F12136   0.799   2.500  10.220  0.6044 -0.8117  1.7582
   9023SM   H9G12137   0.769   2.333  10.215 -0.1979  0.0652 -0.3762
   9023SM  C10F12138   0.617   2.422  10.340 -0.6213 -0.1717  0.1765
   9023SM  H10F12139   0.560   2.327  10.335  0.7340 -1.1178  1.6862
   9023SM  H10G12140   0.545   2.506  10.341 -0.0697  0.3113 -0.2601
   9023SM  C11F12141   0.700   2.408  10.471  0.3766 -0.0021 -0.1177
   9023SM  H11F12142   0.769   2.495  10.479 -0.9966  1.0440  0.9229
   9023SM  H11G12143   0.757   2.313  10.467 -1.3225 -1.0406 -0.6842
   9023SM  C12F12144   0.598   2.402  10.595  0.2973 -0.7226 -0.1482
   9023SM  H12F12145   0.541   2.308  10.580 -0.9273 -0.0378  0.1012
   9023SM  H12G12146   0.527   2.487  10.588 -0.8178 -1.6755 -0.8172
   9023SM  C13F12147   0.677   2.419  10.724 -0.1388 -0.3685  0.3595
   9023SM  H13F12148   0.719   2.521  10.734  0.3779 -0.3731 -1.4318
   9023SM  H13G12149   0.758   2.344  10.739  0.9849  1.1162  1.9904
   9023SM  C14F12150   0.587   2.403  10.848  0.4707  0.4813  0.5229
   9023SM  H14F12151   0.544   2.301  10.848  0.4459  0.4298  3.2790
   9023SM  H14G12152   0.500   2.473  10.847  0.3367  0.3137  0.3885
   9023SM  C15F12153   0.666   2.403  10.974 -0.6035 -0.3400  0.1017
   9023SM  H15F12154   0.693   2.509  10.992  0.2940 -0.2918 -1.4055
   9023SM  H15G12155   0.759   2.347  10.951  0.1426  0.1657  1.6577
   9023SM  C16F12156   0.608   2.324  11.096  0.0943  0.2683  0.1309
   9023SM  H16F12157   0.692   2.315  11.168  0.6912  1.6164 -0.3429
   9023SM  H16G12158   0.578   2.221  11.069  0.2428  0.4855 -0.9258
   9023SM  C17F12159   0.490   2.397  11.167 -0.2840 -0.6730  0.2290
   9023SM  H17F12160   0.454   2.324  11.242 -0.1398 -1.3968 -0.3992
   9023SM  H17G12161   0.411   2.405  11.090 -0.2650 -1.7251  0.0800
   9023SM  C18F12162   0.517   2.536  11.235  0.2940 -0.4999  0.7943
   9023SM  H18F12163   0.548   2.600  11.149 -0.7795  2.1709  2.2701
   9023SM  H18G12164   0.601   2.538  11.308 -0.6333  2.4586  1.9289
   9023SM  C19F12165   0.381   2.600  11.286  0.1774  0.0740 -1.0095
   9023SM  H19F12166   0.360   2.563  11.389 -1.1470  2.2107 -0.4307
   9023SM  H19G12167   0.301   2.571  11.214  0.6278 -1.6128 -0.8532
   9023SM  C20F12168   0.385   2.755  11.294 -0.2599 -0.1044 -0.2418
   9023SM  H20F12169   0.428   2.804  11.204  1.1010  0.9232  0.9118
   9023SM  H20G12170   0.446   2.791  11.380  0.5669  0.0684 -0.8869
   9023SM  C21F12171   0.246   2.818  11.295 -0.0852 -0.1065  0.4526
   9023SM  H21F12172   0.185   2.746  11.353  0.5559 -0.7519  0.3334
   9023SM  H21G12173   0.206   2.813  11.191  1.3959 -0.4659 -0.1302
   9023SM  C22F12174   0.246   2.958  11.357  0.2680  0.4684 -0.7000
   9023SM  H22F12175   0.326   3.018  11.308 -0.8439 -0.1441 -3.4165
   9023SM  H22G12176   0.284   2.942  11.460  1.4701 -0.4466 -1.2694
   9023SM  C23F12177   0.108   3.024  11.349 -0.0394 -0.8534  0.4090
   9023SM  H23F12178   0.086   3.049  11.243 -4.0788  3.5343  1.9115
   9023SM  H23G12179   0.113   3.126  11.394  1.1454 -0.1192 -1.2616
   9023SM  H23H12180   0.020   2.965  11.382 -1.7075  0.6502 -1.1503
   9123SM     N12181   5.877   4.854   8.505  0.5533 -0.3233 -0.1368
   9123SM   C1512182   5.944   4.780   8.619 -0.6177 -0.4146  0.5199
   9123SM  H15A12183   6.048   4.769   8.592 -0.7963 -1.0918  0.0578
   9123SM  H15B12184   5.904   4.683   8.646 -0.5926 -1.4833 -2.8535
   9123SM  H15C12185   5.949   4.836   8.711  0.7334  0.0934  0.1575
   9123SM   C1412186   5.898   4.763   8.387 -0.5935 -0.0132 -0.1230
   9123SM  H14A12187   5.846   4.669   8.385  0.7377 -0.7810  0.1209
   9123SM  H14B12188   6.001   4.731   8.388  0.1444  1.8976 -2.7995
   9123SM  H14C12189   5.895   4.819   8.295  0.8559 -1.8648 -1.3714
   9123SM   C1312190   5.733   4.876   8.528 -0.3040  0.4228 -0.6510
   9123SM  H13A12191   5.714   4.923   8.623  2.2622 -2.3466  1.4142
   9123SM  H13B12192   5.671   4.789   8.517 -0.8861  0.8942 -1.1787
   9123SM  H13C12193   5.690   4.941   8.453  0.9464  1.6451 -0.3543
   9123SM   C1212194   5.956   4.990   8.494 -0.0278  0.1373  0.0966
   9123SM  H12A12195   5.943   5.050   8.405 -1.0861 -0.6055 -0.2666
   9123SM  H12B12196   6.060   4.960   8.491  0.3944  1.5897 -1.7279
   9123SM   C1112197   5.946   5.090   8.614 -0.8385  0.3755  0.0267
   9123SM  H11A12198   5.843   5.126   8.596 -0.4981  2.0928  1.2671
   9123SM  H11B12199   6.026   5.167   8.604  0.8698 -1.4775 -1.4444
   9123SM     P12200   5.970   5.121   8.868 -0.2126 -0.1265  0.1457
   9123SM   O1312201   6.101   5.106   8.939 -0.0451  0.1860  0.2282
   9123SM   O1412202   5.931   5.263   8.837 -0.7435  0.0056 -0.0206
   9123SM   O1112203   5.858   5.054   8.961  0.0399  0.6892  0.3515
   9123SM   O1212204   5.969   5.026   8.741 -0.6394 -0.2431  0.8265
   9123SM   C1S12205   5.884   4.938   9.046  0.2706 -0.3577  0.2292
   9123SM   H1S12206   5.934   4.982   9.136 -0.2408  1.3858 -0.3113
   9123SM   H1T12207   5.956   4.869   8.996  0.4783  0.8058 -1.1155
   9123SM    NF12208   5.777   4.759   9.184 -0.5580 -0.0132 -0.0704
   9123SM   HNF12209   5.772   4.664   9.156 -2.7488  0.4395 -1.5093
   9123SM   C2S12210   5.756   4.855   9.070 -0.1256 -0.1355  0.1531
   9123SM   H2S12211   5.682   4.927   9.111  1.9029  1.6285  0.8605
   9123SM   C3S12212   5.702   4.791   8.940  0.3978 -0.0655  0.0183
   9123SM   H3S12213   5.779   4.744   8.875 -0.1770  2.3501 -2.6300
   9123SM    O312214   5.649   4.880   8.844 -0.4919 -0.0415 -0.5345
   9123SM   HO312215   5.702   4.955   8.872 -1.5891  0.6878 -0.3495
   9123SM   C4S12216   5.590   4.697   8.972  0.4208 -0.2512  0.0797
   9123SM   H4S12217   5.490   4.733   9.002  0.2646 -1.0924  0.5945
   9123SM   C5S12218   5.596   4.563   8.977 -0.0351 -0.0194 -0.1613
   9123SM   H5S12219   5.690   4.510   8.953 -1.7824 -2.6922 -1.7545
   9123SM   C6S12220   5.487   4.462   9.015 -0.6613 -0.3026  0.5725
   9123SM   H6S12221   5.527   4.364   9.051 -1.3307 -0.4793  0.8435
   9123SM   H6T12222   5.425   4.435   8.927 -2.1837  1.2947  1.1070
   9123SM   C7S12223   5.388   4.517   9.114  1.1594  0.4713  0.1068
   9123SM   H7S12224   5.302   4.447   9.126  1.0649  0.3092 -1.3441
   9123SM   H7T12225   5.342   4.612   9.080  1.6231  1.0416  1.0171
   9123SM   C8S12226   5.453   4.540   9.253 -0.5047 -0.4891  0.7018
   9123SM   H8S12227   5.529   4.619   9.238  0.7904 -1.6046  1.1008
   9123SM   H8T12228   5.519   4.455   9.281  1.6421  1.4577  1.8914
   9123SM   C9S12229   5.352   4.561   9.367  0.5298  0.5204 -0.3237
   9123SM   H9S12230   5.272   4.483   9.372  0.2079  0.7677 -1.4528
   9123SM   H9T12231   5.289   4.647   9.339 -0.2720 -0.7337 -2.6294
   9123SM  C10S12232   5.419   4.588   9.502  0.4228  0.2862 -0.3654
   9123SM  H10S12233   5.463   4.689   9.512  1.3651 -0.1369 -0.1415
   9123SM  H10T12234   5.496   4.509   9.518 -1.3818 -1.1974  1.6163
   9123SM  C11S12235   5.329   4.555   9.621  0.0140  0.1799 -0.3281
   9123SM  H11S12236   5.289   4.451   9.619 -1.4071  0.6749  1.0266
   9123SM  H11T12237   5.246   4.627   9.599 -1.8876 -1.8157 -0.0708
   9123SM  C12S12238   5.392   4.580   9.757  0.1666  0.7060  0.6881
   9123SM  H12S12239   5.436   4.681   9.772  0.0389  0.7071  1.0717
   9123SM  H12T12240   5.482   4.515   9.746 -0.3194  0.3301 -1.5307
   9123SM  C13S12241   5.305   4.554   9.879  0.1310 -0.6335 -0.0655
   9123SM  H13S12242   5.275   4.447   9.877 -0.9823 -0.3308  0.0692
   9123SM  H13T12243   5.212   4.613   9.866  0.4408  0.3052  1.7075
   9123SM  C14S12244   5.360   4.594  10.019 -0.2129  0.8637 -0.1223
   9123SM  H14S12245   5.384   4.702  10.026 -1.1732  1.0785  0.0750
   9123SM  H14T12246   5.461   4.552  10.034 -0.0660  1.2417 -0.0565
   9123SM  C15S12247   5.276   4.527  10.134  0.2367 -0.9543 -0.0691
   9123SM  H15S12248   5.274   4.417  10.123 -1.1470 -0.9040 -0.5780
   9123SM  H15T12249   5.170   4.557  10.114 -0.4478 -1.9001  1.8864
   9123SM  C16S12250   5.315   4.557  10.283 -0.0513 -0.3119  0.1117
   9123SM  H16S12251   5.309   4.666  10.305  1.1147 -0.6486  2.4521
   9123SM  H16T12252   5.424   4.540  10.300 -0.1262 -0.9005  0.0056
   9123SM  C17S12253   5.242   4.470  10.385 -0.4457  0.2002 -0.1192
   9123SM  H17S12254   5.255   4.367  10.346 -0.3818  0.9756 -2.3150
   9123SM  H17T12255   5.133   4.486  10.375 -0.3866  0.8944  0.3107
   9123SM  C18S12256   5.289   4.498  10.518  0.0053  0.3196 -0.2761
   9123SM  H18S12257   5.400   4.484  10.523 -0.3077 -2.5260  0.5932
   9123SM  H18T12258   5.258   4.426  10.597  1.5733 -1.0410 -0.8426
   9123SM  H18U12259   5.266   4.602  10.550 -1.3535 -0.3307  0.9876
   9123SM   C1F12260   5.809   4.798   9.309  0.1788  0.0433 -0.9316
   9123SM    OF12261   5.810   4.916   9.338 -0.0514  0.7023  0.2358
   9123SM   C2F12262   5.842   4.695   9.416  0.0799  0.2203 -0.3563
   9123SM   H2F12263   5.941   4.658   9.383  0.6628  0.6193  0.8863
   9123SM   H2G12264   5.769   4.612   9.409  0.4182 -0.1023 -0.0178
   9123SM   C3F12265   5.857   4.746   9.560  0.9799 -0.0102 -0.1535
   9123SM   H3F12266   5.932   4.828   9.566  1.5765 -0.5123 -0.5922
   9123SM   H3G12267   5.906   4.657   9.606  1.5691 -0.7497 -2.0993
   9123SM   C4F12268   5.723   4.781   9.618  0.7368 -0.5949 -1.0177
   9123SM   H4F12269   5.656   4.692   9.614 -1.2020  0.2211  4.3043
   9123SM   H4G12270   5.681   4.857   9.549  1.6479  2.4967  1.5879
   9123SM   C5F12271   5.725   4.831   9.763  0.3934 -0.1121  0.5310
   9123SM   H5F12272   5.619   4.853   9.790 -0.3294  0.8882 -2.6251
   9123SM   H5G12273   5.780   4.928   9.765 -1.9300  1.3267 -0.4935
   9123SM   C6F12274   5.786   4.735   9.867  0.8507 -0.1618  0.1406
   9123SM   H6F12275   5.884   4.687   9.844  0.5000  0.1880 -2.4861
   9123SM   H6G12276   5.709   4.656   9.856 -0.2977  0.5261  2.6650
   9123SM   C7F12277   5.778   4.790  10.014  0.0966 -0.4559  0.2827
   9123SM   H7F12278   5.860   4.865  10.022  0.4412 -0.7288 -0.5300
   9123SM   H7G12279   5.791   4.701  10.079  0.1190 -0.1386  0.7120
   9123SM   C8F12280   5.644   4.854  10.070  0.7642 -0.1297 -0.0732
   9123SM   H8F12281   5.552   4.796  10.045  0.8944  0.0876 -1.1313
   9123SM   H8G12282   5.639   4.941  10.001  2.2756 -0.0966 -0.1556
   9123SM   C9F12283   5.661   4.910  10.211 -0.0228  0.0780 -0.2579
   9123SM   H9F12284   5.587   4.992  10.226 -0.4927 -0.6099  1.3757
   9123SM   H9G12285   5.763   4.952  10.228 -0.0380  0.5449 -1.2448
   9123SM  C10F12286   5.615   4.819  10.328  0.7682 -0.2991 -0.5011
   9123SM  H10F12287   5.692   4.745  10.357 -0.4114 -1.0891  0.7157
   9123SM  H10G12288   5.536   4.749  10.292  2.2091 -1.7234 -1.0191
   9123SM  C11F12289   5.567   4.898  10.455  0.6284 -0.0099  0.7004
   9123SM  H11F12290   5.506   4.987  10.428  1.1145  0.3643  0.8241
   9123SM  H11G12291   5.666   4.935  10.488  1.4821 -1.3046 -0.3026
   9123SM  C12F12292   5.508   4.817  10.571  0.1879  0.6106 -0.2327
   9123SM  H12F12293   5.582   4.747  10.617  1.4063  1.6349 -0.5816
   9123SM  H12G12294   5.416   4.763  10.540 -1.1327  1.8850  1.3611
   9123SM  C13F12295   5.476   4.904  10.693  0.3709  0.3422 -0.6436
   9123SM  H13F12296   5.439   4.839  10.775  1.7532  0.2059 -0.0999
   9123SM  H13G12297   5.388   4.967  10.668 -0.6193 -0.4957  0.6039
   9123SM  C14F12298   5.596   4.982  10.742 -0.1788  0.2685  0.3509
   9123SM  H14F12299   5.641   5.061  10.677 -1.0968 -0.9684 -1.8806
   9123SM  H14G12300   5.677   4.906  10.752  1.5449  1.6002 -2.1869
   9123SM  C15F12301   5.589   5.042  10.896  0.3388  0.1593  1.0373
   9123SM  H15F12302   5.564   4.947  10.947 -0.3133 -2.2680 -3.2598
   9123SM  H15G12303   5.513   5.122  10.911 -1.0058 -1.1773  1.6254
   9123SM  C16F12304   5.716   5.099  10.943  0.3719 -0.2034  0.1000
   9123SM  H16F12305   5.794   5.035  10.897  0.1035 -0.4107 -0.0670
   9123SM  H16G12306   5.719   5.104  11.054  1.0887  2.3350  0.0376
   9123SM  C17F12307   5.752   5.235  10.884 -0.3746 -0.0188 -0.5827
   9123SM  H17F12308   5.689   5.319  10.922  0.9565  0.7063  0.0842
   9123SM  H17G12309   5.740   5.237  10.773 -4.3538  1.5739 -0.3015
   9123SM  C18F12310   5.897   5.269  10.893  0.8749 -0.2186  0.8841
   9123SM  H18F12311   5.953   5.193  10.836  0.3673  0.8440 -1.1343
   9123SM  H18G12312   5.935   5.269  10.998  0.2754  0.0112  1.1094
   9123SM  C19F12313   5.928   5.409  10.838 -0.5853 -0.2123 -0.1871
   9123SM  H19F12314   5.875   5.484  10.901  1.0068 -0.6475  1.7800
   9123SM  H19G12315   5.907   5.414  10.730  0.3045 -2.4295 -0.5127
   9123SM  C20F12316   6.083   5.447  10.839  0.6811 -0.2050  0.1953
   9123SM  H20F12317   6.092   5.547  10.792 -1.6782 -1.0058 -2.1992
   9123SM  H20G12318   6.128   5.368  10.776  1.2044  0.1652  0.1055
   9123SM  C21F12319   6.144   5.437  10.986  1.2376 -0.0977 -0.2144
   9123SM  H21F12320   6.110   5.344  11.037 -1.6877  1.6376  1.2887
   9123SM  H21G12321   6.096   5.523  11.036  1.1190  0.9802 -2.0972
   9123SM  C22F12322   6.294   5.436  10.999 -0.4576  0.3792 -0.3684
   9123SM  H22F12323   6.343   5.519  10.942 -1.2524  1.0929 -0.0356
   9123SM  H22G12324   6.326   5.347  10.940  0.6047 -1.1591  2.3866
   9123SM  C23F12325   6.340   5.437  11.146  0.2398  0.3822  0.1567
   9123SM  H23F12326   6.449   5.419  11.148 -0.1141 -2.1873 -0.1788
   9123SM  H23G12327   6.299   5.344  11.191  0.3614 -0.8822 -2.1838
   9123SM  H23H12328   6.322   5.531  11.202  0.9082  1.1698 -0.8952
   9223SM     N12329   0.380   2.550   8.287 -0.6227  0.5651  0.4923
   9223SM   C1512330   0.508   2.513   8.357 -1.0460 -0.8651  0.1883
   9223SM  H15A12331   0.533   2.408   8.349  0.4867 -0.6651  1.7611
   9223SM  H15B12332   0.484   2.524   8.462 -2.0141 -1.0809  0.0042
   9223SM  H15C12333   0.593   2.574   8.331 -1.0545 -0.7296  0.4751
   9223SM   C1412334   0.395   2.693   8.256  0.1631 -0.4424  0.0626
   9223SM  H14A12335   0.414   2.746   8.349 -2.1367 -1.6323  1.3003
   9223SM  H14B12336   0.310   2.742   8.211  0.2021  0.6447  1.0961
   9223SM  H14C12337   0.481   2.717   8.195  0.3759 -2.4367 -0.4970
   9223SM   C1312338   0.376   2.485   8.155  0.4675  0.6791  0.4737
   9223SM  H13A12339   0.473   2.464   8.112 -0.0432 -0.3457 -0.2072
   9223SM  H13B12340   0.319   2.539   8.081 -1.0881  2.4369  2.7975
   9223SM  H13C12341   0.329   2.387   8.161  3.1546 -0.7158  0.3341
   9223SM   C1212342   0.267   2.513   8.381  0.3581  0.3224 -0.5452
   9223SM  H12A12343   0.259   2.405   8.392 -2.3496  0.6807  2.0906
   9223SM  H12B12344   0.176   2.550   8.336 -0.3161  1.1955  1.4360
   9223SM   C1112345   0.249   2.585   8.512 -0.6238 -0.1125 -0.1067
   9223SM  H11A12346   0.339   2.583   8.577 -1.4625  2.0769  1.2104
   9223SM  H11B12347   0.176   2.519   8.563 -0.3715 -1.0127 -0.8749
   9223SM     P12348   0.269   2.847   8.558 -0.2537  0.6842 -0.1945
   9223SM   O1312349   0.419   2.831   8.561  0.1544  0.1690  0.2656
   9223SM   O1412350   0.216   2.956   8.477  0.3888  0.1119  0.0409
   9223SM   O1112351   0.224   2.859   8.709  0.3119  0.1534  0.0651
   9223SM   O1212352   0.198   2.715   8.504 -0.6468  0.5230  0.0086
   9223SM   C1S12353   0.106   2.787   8.752 -0.3024 -0.9469 -0.3539
   9223SM   H1S12354   0.118   2.677   8.745  1.0610 -0.9588  1.4316
   9223SM   H1T12355   0.017   2.828   8.699 -0.9153  0.1730  1.4163
   9223SM    NF12356   0.013   2.725   8.980 -0.2007 -1.1221  0.5128
   9223SM   HNF12357  -0.078   2.746   9.016  0.0511 -1.9021  1.6561
   9223SM   C2S12358   0.082   2.825   8.901  0.2379  0.2198 -0.2534
   9223SM   H2S12359   0.188   2.833   8.934 -0.6521  0.9493  2.7653
   9223SM   C3S12360   0.029   2.971   8.915  0.0125  0.2289 -0.1952
   9223SM   H3S12361  -0.075   2.969   8.877 -0.1466 -2.0960  0.2602
   9223SM    O312362   0.109   3.062   8.841 -0.3390 -0.2777 -0.3615
   9223SM   HO312363   0.156   3.003   8.781 -0.2501 -0.6635  0.0815
   9223SM   C4S12364   0.039   3.020   9.058  0.0480  0.4362  0.3051
   9223SM   H4S12365   0.140   3.042   9.094  1.0737  0.9632 -2.6027
   9223SM   C5S12366  -0.070   3.028   9.140  0.0243  0.4053 -0.6973
   9223SM   H5S12367  -0.169   3.008   9.096 -0.2771 -0.9648  0.4881
   9223SM   C6S12368  -0.083   3.058   9.285  0.7052  0.1763  0.4329
   9223SM   H6S12369  -0.090   3.166   9.308  1.5153  0.3183  0.0598
   9223SM   H6T12370   0.001   3.017   9.346 -0.6493 -0.8663  1.6472
   9223SM   C7S12371  -0.203   2.982   9.349 -0.1243 -0.8691  0.5793
   9223SM   H7S12372  -0.175   2.875   9.346  1.8758 -0.3635 -0.8490
   9223SM   H7T12373  -0.293   3.017   9.293  2.7014  2.1379 -2.5921
   9223SM   C8S12374  -0.223   3.023   9.491 -0.3530  0.0721  0.1261
   9223SM   H8S12375  -0.273   3.122   9.494  1.4395  1.0130  0.2240
   9223SM   H8T12376  -0.123   3.045   9.534  0.0916  0.8459 -1.2202
   9223SM   C9S12377  -0.301   2.918   9.573  0.2518 -0.2306 -0.4085
   9223SM   H9S12378  -0.276   2.813   9.546 -1.1210 -1.1099  1.4372
   9223SM   H9T12379  -0.405   2.945   9.546  0.7241  2.6071  0.3180
   9223SM  C10S12380  -0.278   2.943   9.719 -0.6836  0.0862 -0.1062
   9223SM  H10S12381  -0.317   3.044   9.744 -2.7879 -0.2443 -1.8156
   9223SM  H10T12382  -0.169   2.937   9.739 -0.6202  1.1696 -0.0505
   9223SM  C11S12383  -0.337   2.838   9.813  0.3303 -1.3412  0.9743
   9223SM  H11S12384  -0.300   2.737   9.782  0.1341 -1.1701  0.1567
   9223SM  H11T12385  -0.447   2.843   9.801  0.3715  0.2202  1.0099
   9223SM  C12S12386  -0.325   2.884   9.958 -0.2372 -0.3166  0.1599
   9223SM  H12S12387  -0.354   2.991   9.964  1.6095  0.1709  1.0880
   9223SM  H12T12388  -0.219   2.875   9.989 -0.6236 -1.3100  1.2701
   9223SM  C13S12389  -0.417   2.808  10.043  0.6234  0.0425  0.3866
   9223SM  H13S12390  -0.409   2.698  10.025 -1.7871  0.1935 -2.4346
   9223SM  H13T12391  -0.523   2.837  10.028  1.2790  3.1818  1.1794
   9223SM  C14S12392  -0.388   2.827  10.193 -0.5769  0.0916  0.0998
   9223SM  H14S12393  -0.474   2.783  10.249 -0.0209  2.3070  2.9228
   9223SM  H14T12394  -0.379   2.935  10.217  1.7691 -0.2453  0.8970
   9223SM  C15S12395  -0.259   2.757  10.242 -0.0568 -0.4658 -0.0122
   9223SM  H15S12396  -0.161   2.797  10.208  1.1798 -0.4212  3.1707
   9223SM  H15T12397  -0.261   2.650  10.212 -0.8060 -1.5171  3.3122
   9223SM  C16S12398  -0.265   2.745  10.398  0.2296 -0.1550  0.0823
   9223SM  H16S12399  -0.201   2.659  10.425 -1.4342 -1.0419  1.3226
   9223SM  H16T12400  -0.371   2.738  10.429 -0.3760  2.8723 -0.8749
   9223SM  C17S12401  -0.194   2.862  10.468  0.9770  0.5980  0.6461
   9223SM  H17S12402  -0.231   2.959  10.428 -4.0743 -0.8005  1.2513
   9223SM  H17T12403  -0.087   2.869  10.441  0.9983 -2.5246 -0.4496
   9223SM  C18S12404  -0.186   2.855  10.622  0.2198 -0.2447 -0.0912
   9223SM  H18S12405  -0.287   2.862  10.667  0.5265 -0.8273  0.7077
   9223SM  H18T12406  -0.128   2.943  10.658 -1.3519  0.9863 -0.4394
   9223SM  H18U12407  -0.138   2.761  10.657  0.0596 -0.4073 -0.3054
   9223SM   C1F12408   0.052   2.605   9.002 -0.4791 -0.0156 -0.1043
   9223SM    OF12409   0.165   2.570   8.972  0.1898 -0.2811  0.0920
   9223SM   C2F12410  -0.050   2.515   9.055  0.1656 -0.3487  0.2758
   9223SM   H2F12411  -0.022   2.408   9.041  3.3238  0.2998  1.0190
   9223SM   H2G12412  -0.151   2.537   9.013 -0.0899  0.6905  1.3669
   9223SM   C3F12413  -0.050   2.535   9.210  0.3040 -0.1919  0.4861
   9223SM   H3F12414  -0.075   2.640   9.237  2.0059 -0.0809  1.7750
   9223SM   H3G12415   0.048   2.510   9.255 -0.8667 -0.5156  3.0585
   9223SM   C4F12416  -0.157   2.449   9.280  0.0496  0.6670 -0.0824
   9223SM   H4F12417  -0.112   2.349   9.302 -1.7819  0.1586  1.6129
   9223SM   H4G12418  -0.250   2.430   9.222 -0.6809 -2.0132  1.7917
   9223SM   C5F12419  -0.191   2.500   9.418  0.6431  0.0539 -0.3329
   9223SM   H5F12420  -0.265   2.583   9.409  0.2558 -0.3384 -0.8114
   9223SM   H5G12421  -0.102   2.538   9.472  1.6290 -0.5639 -1.4952
   9223SM   C6F12422  -0.253   2.379   9.499 -0.0763  0.0780  0.3745
   9223SM   H6F12423  -0.191   2.288   9.509 -1.7462 -1.0518  0.8345
   9223SM   H6G12424  -0.359   2.355   9.477  0.0583 -0.3974  0.2467
   9223SM   C7F12425  -0.287   2.425   9.649 -0.6193  0.1766 -0.4344
   9223SM   H7F12426  -0.343   2.348   9.706 -0.9435  0.6973 -0.0515
   9223SM   H7G12427  -0.339   2.523   9.656  0.2959  0.5695  1.6856
   9223SM   C8F12428  -0.158   2.436   9.737 -0.3240  0.0111 -0.3837
   9223SM   H8F12429  -0.093   2.520   9.703  2.9134 -1.9310  0.5965
   9223SM   H8G12430  -0.093   2.347   9.741 -2.0296 -1.2640 -0.0883
   9223SM   C9F12431  -0.208   2.463   9.888  0.3857 -0.6745 -0.1229
   9223SM   H9F12432  -0.293   2.534   9.879  0.1208 -1.0721 -0.7695
   9223SM   H9G12433  -0.124   2.515   9.939  1.5789 -1.5786 -1.1086
   9223SM  C10F12434  -0.244   2.332   9.961  0.4592  0.1255  0.7900
   9223SM  H10F12435  -0.162   2.258   9.949  0.6162  0.4712 -0.5225
   9223SM  H10G12436  -0.338   2.289   9.920 -0.6459  2.5141  0.6428
   9223SM  C11F12437  -0.262   2.352  10.115  0.5268 -0.0663  0.6499
   9223SM  H11F12438  -0.344   2.427  10.118  0.3445 -0.0214 -2.3134
   9223SM  H11G12439  -0.172   2.398  10.160 -0.7913  0.7597  2.5807
   9223SM  C12F12440  -0.308   2.228  10.186  0.0428  0.3893  0.4990
   9223SM  H12F12441  -0.231   2.149  10.189  0.9005  1.1539 -0.5549
   9223SM  H12G12442  -0.388   2.180  10.125  1.0067 -0.1695 -0.3515
   9223SM  C13F12443  -0.367   2.242  10.332 -0.1806 -0.5896 -0.0096
   9223SM  H13F12444  -0.393   2.141  10.370 -2.2886 -0.4932 -1.0204
   9223SM  H13G12445  -0.459   2.304  10.333 -0.4730 -1.0206  0.0782
   9223SM  C14F12446  -0.277   2.310  10.438 -0.5171  0.0484  0.4710
   9223SM  H14F12447  -0.256   2.415  10.410  0.6439  0.0742  1.3438
   9223SM  H14G12448  -0.177   2.263  10.426 -1.3958 -2.2483  1.4506
   9223SM  C15F12449  -0.315   2.292  10.579 -0.2540 -0.1187 -0.2254
   9223SM  H15F12450  -0.323   2.183  10.600  0.0104 -0.1782 -0.4277
   9223SM  H15G12451  -0.424   2.312  10.594 -0.8009 -3.4710  1.3165
   9223SM  C16F12452  -0.223   2.356  10.680  0.0163 -0.2462 -0.6179
   9223SM  H16F12453  -0.251   2.462  10.701  0.5677 -0.1899 -0.1547
   9223SM  H16G12454  -0.120   2.349  10.639  1.0318 -2.0120  1.9896
   9223SM  C17F12455  -0.229   2.281  10.820 -0.0196  0.7010 -0.4378
   9223SM  H17F12456  -0.174   2.185  10.806  0.5232  1.1336 -1.4075
   9223SM  H17G12457  -0.335   2.260  10.845 -0.1631 -1.1487 -2.2871
   9223SM  C18F12458  -0.166   2.359  10.938  0.2106 -0.3758 -0.4711
   9223SM  H18F12459  -0.220   2.456  10.939  0.4218 -0.1774  2.8471
   9223SM  H18G12460  -0.057   2.381  10.929  0.2590 -1.0432 -1.8795
   9223SM  C19F12461  -0.193   2.294  11.073 -0.6740 -0.0429 -0.3907
   9223SM  H19F12462  -0.141   2.345  11.157 -3.6043 -0.1799  1.6343
   9223SM  H19G12463  -0.159   2.188  11.071 -0.5394 -0.0517  0.9779
   9223SM  C20F12464  -0.349   2.294  11.106  0.4028 -0.1115  0.4271
   9223SM  H20F12465  -0.390   2.201  11.061 -2.9508  0.8184  1.2747
   9223SM  H20G12466  -0.405   2.375  11.055 -0.1612 -0.2544  0.8032
   9223SM  C21F12467  -0.384   2.294  11.246 -0.4043 -0.0266 -0.6639
   9223SM  H21F12468  -0.484   2.323  11.284  0.2118 -1.0438  1.9356
   9223SM  H21G12469  -0.321   2.373  11.292 -0.8456  0.1944 -0.4270
   9223SM  C22F12470  -0.334   2.169  11.322 -0.2237  0.2272  0.5992
   9223SM  H22F12471  -0.234   2.132  11.291 -0.2215  0.1478  0.6985
   9223SM  H22G12472  -0.417   2.099  11.297 -0.7844  1.5051 -1.3227
   9223SM  C23F12473  -0.340   2.186  11.478  0.1817 -0.1198  0.1189
   9223SM  H23F12474  -0.337   2.093  11.537  1.2383 -0.6064 -0.6663
   9223SM  H23G12475  -0.436   2.233  11.507 -0.3473 -0.2220 -1.3658
   9223SM  H23H12476  -0.258   2.253  11.513 -1.4700  2.7750 -1.1663
   9323SM     N12477   6.669   5.526   8.755  0.2535 -0.1427  0.1192
   9323SM   C1512478   6.559   5.426   8.736  0.6461 -0.5501 -0.7470
   9323SM  H15A12479   6.469   5.472   8.699 -0.1846  0.7472  2.5135
   9323SM  H15B12480   6.531   5.402   8.838  1.5164  1.6863  0.0970
   9323SM  H15C12481   6.590   5.342   8.677  0.5769 -1.4936  0.5194
   9323SM   C1412482   6.711   5.577   8.616  0.5265  0.1707 -0.0494
   9323SM  H14A12483   6.802   5.636   8.620 -0.3667  1.5739  0.2021
   9323SM  H14B12484   6.630   5.619   8.559  0.1702  1.2553  1.1968
   9323SM  H14C12485   6.741   5.492   8.556  2.7522  1.2153 -0.5214
   9323SM   C1312486   6.619   5.639   8.845 -0.1894 -0.0851  0.5883
   9323SM  H13A12487   6.612   5.605   8.947  1.3897 -0.2656  0.6605
   9323SM  H13B12488   6.526   5.680   8.807 -0.1344 -0.2262  0.2923
   9323SM  H13C12489   6.695   5.715   8.847  0.0561 -0.2594 -0.7851
   9323SM   C1212490   6.787   5.464   8.827  0.3626  0.3540 -0.5872
   9323SM  H12A12491   6.872   5.528   8.807  0.4542  1.0997  1.9391
   9323SM  H12B12492   6.809   5.372   8.774 -0.4596 -2.0312  2.8586
   9323SM   C1112493   6.761   5.424   8.973  0.1817  0.1263 -0.2363
   9323SM  H11A12494   6.743   5.516   9.033  0.4531  1.3796 -2.0194
   9323SM  H11B12495   6.848   5.375   9.023 -1.7509 -2.0096  1.2467
   9323SM     P12496   6.655   5.183   9.001 -0.2647 -0.0516  0.0207
   9323SM   O1312497   6.524   5.133   9.049 -0.2282  0.8188 -0.3650
   9323SM   O1412498   6.712   5.119   8.876  0.4121 -0.0728  0.3840
   9323SM   O1112499   6.761   5.162   9.121  0.3388 -0.0275 -0.2047
   9323SM   O1212500   6.644   5.338   8.977  0.3824 -0.2331  0.3257
   9323SM   C1S12501   6.735   5.208   9.256  0.3636 -0.0440 -0.0003
   9323SM   H1S12502   6.635   5.175   9.292  0.3471 -0.4295 -0.3870
   9323SM   H1T12503   6.717   5.318   9.253  1.8344  0.2532  1.0094
   9323SM    NF12504   6.801   5.221   9.499 -0.1161 -0.3123 -0.2381
   9323SM   HNF12505   6.838   5.308   9.530  2.8690 -1.7076  0.5729
   9323SM   C2S12506   6.838   5.173   9.363 -0.5263  0.3228 -0.7427
   9323SM   H2S12507   6.844   5.062   9.366  1.3826  0.3722 -1.3218
   9323SM   C3S12508   6.982   5.228   9.323  0.3207 -0.3277  0.3602
   9323SM   H3S12509   6.984   5.337   9.344 -0.3708 -0.4246  0.9577
   9323SM    O312510   7.024   5.210   9.191  0.1600  0.7061 -0.0712
   9323SM   HO312511   6.955   5.155   9.154  0.0023  0.0229  1.1630
   9323SM   C4S12512   7.083   5.159   9.413 -0.2233  0.4483  0.3622
   9323SM   H4S12513   7.105   5.056   9.380  0.0993  0.8595 -0.7282
   9323SM   C5S12514   7.162   5.212   9.512  0.7117  0.3457  0.0582
   9323SM   H5S12515   7.145   5.320   9.526 -2.7980 -0.1823  0.7397
   9323SM   C6S12516   7.268   5.157   9.599 -0.5743  1.0513  0.2034
   9323SM   H6S12517   7.370   5.191   9.573 -0.4326 -0.9207 -2.0897
   9323SM   H6T12518   7.278   5.047   9.586 -1.9615  0.9897 -0.5459
   9323SM   C7S12519   7.232   5.181   9.751 -0.0661  0.5112  0.0642
   9323SM   H7S12520   7.126   5.153   9.769 -0.0334  1.0930  1.3094
   9323SM   H7T12521   7.240   5.289   9.775  1.3343  0.3945  0.2276
   9323SM   C8S12522   7.331   5.108   9.849  0.4369  0.4057 -0.1068
   9323SM   H8S12523   7.433   5.150   9.837  0.7184 -0.8212 -2.8218
   9323SM   H8T12524   7.346   4.999   9.832 -1.7370  0.0099  0.2514
   9323SM   C9S12525   7.295   5.133  10.000 -0.1931 -0.3941 -0.4622
   9323SM   H9S12526   7.195   5.179  10.015 -0.6821 -1.3692 -0.6318
   9323SM   H9T12527   7.375   5.195  10.046  2.0289 -2.3394 -1.4608
   9323SM  C10S12528   7.283   4.998  10.075 -0.3598  0.5628  0.4363
   9323SM  H10S12529   7.297   5.005  10.185  2.1429  2.0974  0.1238
   9323SM  H10T12530   7.370   4.940  10.036  0.3478  0.0962  2.5766
   9323SM  C11S12531   7.149   4.924  10.035  0.6620  0.0246 -0.3277
   9323SM  H11S12532   7.137   4.914   9.925  1.1272 -1.5715 -0.2528
   9323SM  H11T12533   7.058   4.971  10.078 -0.0241 -1.8677  0.3614
   9323SM  C12S12534   7.151   4.774  10.077  0.4085  0.5759  0.6090
   9323SM  H12S12535   7.242   4.723  10.037  0.1422  1.2030 -0.8670
   9323SM  H12T12536   7.066   4.728  10.023  1.0772  0.1832 -0.1361
   9323SM  C13S12537   7.141   4.760  10.229 -0.5090 -0.1947  0.1212
   9323SM  H13S12538   7.063   4.829  10.271 -2.0335 -1.7779  0.0003
   9323SM  H13T12539   7.239   4.790  10.271 -0.4842 -3.1284  2.4539
   9323SM  C14S12540   7.103   4.626  10.288 -0.3215  0.6615  0.5663
   9323SM  H14S12541   7.191   4.566  10.259 -2.8809 -3.4516  0.5636
   9323SM  H14T12542   7.028   4.569  10.230  1.3155  0.0518 -1.0150
   9323SM  C15S12543   7.080   4.630  10.440  0.1578  0.0788  0.2722
   9323SM  H15S12544   7.163   4.693  10.480  0.5829 -0.6422  0.5551
   9323SM  H15T12545   6.990   4.678  10.483  0.5965 -0.9560  2.4965
   9323SM  C16S12546   7.080   4.495  10.512 -0.3861 -0.7547 -0.0267
   9323SM  H16S12547   7.190   4.476  10.520  0.6014  3.4884 -0.9622
   9323SM  H16T12548   7.029   4.418  10.450 -0.9555  0.2592 -0.8597
   9323SM  C17S12549   7.007   4.488  10.643  0.1465 -0.5883  0.4431
   9323SM  H17S12550   6.908   4.537  10.631 -0.3982 -1.7978 -0.1805
   9323SM  H17T12551   7.061   4.546  10.720  1.3965  0.1345 -0.9108
   9323SM  C18S12552   6.975   4.340  10.689 -0.0124 -0.4007 -0.5494
   9323SM  H18S12553   6.964   4.337  10.800 -1.2968  1.9533 -0.5437
   9323SM  H18T12554   7.050   4.266  10.654  2.0844  1.0315  0.5998
   9323SM  H18U12555   6.878   4.309  10.646  1.0817 -2.3675 -1.7286
   9323SM   C1F12556   6.702   5.156   9.560  0.6032  0.2985 -0.2655
   9323SM    OF12557   6.654   5.052   9.514  0.0935 -0.0242 -0.1637
   9323SM   C2F12558   6.651   5.205   9.689  0.0034 -0.7777  0.3129
   9323SM   H2F12559   6.541   5.216   9.682 -0.3007 -3.3239  0.1404
   9323SM   H2G12560   6.699   5.302   9.717 -1.1979 -0.1537  0.2701
   9323SM   C3F12561   6.671   5.119   9.813  0.1808  0.2196  0.1206
   9323SM   H3F12562   6.666   5.012   9.785  1.6731 -0.5918  2.6165
   9323SM   H3G12563   6.585   5.140   9.881  1.2582 -0.7716  1.8678
   9323SM   C4F12564   6.802   5.140   9.900  0.2917 -0.0358  0.1129
   9323SM   H4F12565   6.834   5.244   9.878  1.1990 -0.0125  1.4420
   9323SM   H4G12566   6.882   5.076   9.860  1.1058  0.6508  0.5985
   9323SM   C5F12567   6.779   5.107  10.050  0.7513 -0.1965  0.2686
   9323SM   H5F12568   6.880   5.119  10.096  1.4441 -1.6728 -0.7532
   9323SM   H5G12569   6.758   4.998  10.046  2.4364 -0.5188 -1.6970
   9323SM   C6F12570   6.669   5.196  10.119 -0.1061  0.4232  0.1347
   9323SM   H6F12571   6.569   5.162  10.083 -0.6214  0.9002  1.0887
   9323SM   H6G12572   6.674   5.301  10.085  1.0143  0.3898  0.1604
   9323SM   C7F12573   6.680   5.187  10.270  0.4054 -0.4176  0.1987
   9323SM   H7F12574   6.776   5.228  10.307 -1.0690  0.6929  3.1028
   9323SM   H7G12575   6.662   5.082  10.303  1.9550 -1.6303 -2.5055
   9323SM   C8F12576   6.580   5.272  10.339  0.4144 -0.9097 -0.0183
   9323SM   H8F12577   6.477   5.249  10.304 -0.3703 -0.1428  1.6480
   9323SM   H8G12578   6.604   5.380  10.326  0.1248 -0.5350  2.1442
   9323SM   C9F12579   6.586   5.262  10.491 -0.4393 -1.0569  0.2734
   9323SM   H9F12580   6.557   5.359  10.537 -0.1171 -0.9883  0.3351
   9323SM   H9G12581   6.691   5.243  10.524 -0.0528  2.0689  1.1496
   9323SM  C10F12582   6.487   5.159  10.560 -0.2825 -0.7402 -0.1335
   9323SM  H10F12583   6.522   5.055  10.540  1.6565 -0.4305  1.3064
   9323SM  H10G12584   6.384   5.158  10.519 -0.3067 -0.7744 -0.0708
   9323SM  C11F12585   6.482   5.170  10.714  0.1799  0.7029 -0.0642
   9323SM  H11F12586   6.417   5.092  10.759  0.5763 -0.6165 -1.6721
   9323SM  H11G12587   6.432   5.268  10.732 -0.6695  0.4023 -0.7132
   9323SM  C12F12588   6.618   5.170  10.780  0.8266 -0.0941  0.1718
   9323SM  H12F12589   6.660   5.266  10.745 -2.3093  0.9599 -1.0775
   9323SM  H12G12590   6.681   5.093  10.730 -0.9301 -1.1832 -0.4685
   9323SM  C13F12591   6.601   5.178  10.931  0.0055 -0.2752  0.3285
   9323SM  H13F12592   6.574   5.076  10.965  0.4707 -0.7675 -0.7086
   9323SM  H13G12593   6.522   5.251  10.956  0.8892  1.0062 -0.4645
   9323SM  C14F12594   6.722   5.238  10.996 -0.1663  0.1634  0.0630
   9323SM  H14F12595   6.730   5.349  10.995 -1.8539  0.3385  1.5082
   9323SM  H14G12596   6.815   5.198  10.951  1.3037  1.6507  1.6081
   9323SM  C15F12597   6.717   5.222  11.148 -0.2544  0.1767 -0.0496
   9323SM  H15F12598   6.659   5.128  11.156 -1.0927  0.5264 -1.7185
   9323SM  H15G12599   6.665   5.313  11.185  0.4065  0.4343  0.2795
   9323SM  C16F12600   6.860   5.210  11.202  0.4070  0.0624 -0.4443
   9323SM  H16F12601   6.908   5.308  11.180 -0.7398  0.1666 -2.8545
   9323SM  H16G12602   6.911   5.128  11.147 -1.1997 -1.0858 -0.2936
   9323SM  C17F12603   6.874   5.164  11.355 -0.0128 -0.1979 -0.0014
   9323SM  H17F12604   6.839   5.059  11.364 -0.3182 -0.0627  0.3568
   9323SM  H17G12605   6.812   5.233  11.415 -0.6767 -0.2485 -0.6183
   9323SM  C18F12606   7.023   5.174  11.403 -0.3051 -0.1025 -0.2009
   9323SM  H18F12607   7.058   5.279  11.393 -0.2704 -0.0295  0.6618
   9323SM  H18G12608   7.093   5.107  11.348  0.1323  0.3065 -0.1432
   9323SM  C19F12609   7.033   5.141  11.553 -0.3589 -0.2801  0.3458
   9323SM  H19F12610   6.997   5.037  11.568  0.4769 -0.6169  0.1100
   9323SM  H19G12611   6.960   5.208  11.603  0.6906  0.1666  1.3399
   9323SM  C20F12612   7.175   5.151  11.620 -0.3480 -0.0357 -0.0904
   9323SM  H20F12613   7.222   5.250  11.608  1.4017 -0.7277  0.7548
   9323SM  H20G12614   7.238   5.076  11.568  0.1487  1.5922 -1.9594
   9323SM  C21F12615   7.169   5.141  11.771  0.6200 -0.2828  0.4883
   9323SM  H21F12616   7.122   5.045  11.801 -1.1464  0.6511  0.8771
   9323SM  H21G12617   7.090   5.215  11.796 -1.5243 -1.5184 -2.1312
   9323SM  C22F12618   7.301   5.169  11.842  0.9658  0.2425  0.2920
   9323SM  H22F12619   7.297   5.149  11.951  0.2296  0.2130  0.2661
   9323SM  H22G12620   7.338   5.273  11.826  3.9352 -0.8622 -0.5981
   9323SM  C23F12621   7.420   5.083  11.787 -0.6720 -0.0080  0.0136
   9323SM  H23F12622   7.423   5.075  11.676 -0.1508 -2.7289  0.1535
   9323SM  H23G12623   7.402   4.977  11.815 -3.6849  0.0800 -1.2597
   9323SM  H23H12624   7.518   5.109  11.833  0.2194  1.2553 -2.4062
   9423SM     N12625   5.697   6.615   8.312 -0.6982  0.4877  0.0898
   9423SM   C1512626   5.729   6.669   8.171 -0.1632 -0.0941 -0.3819
   9423SM  H15A12627   5.819   6.630   8.127  0.3469  0.4451  0.1772
   9423SM  H15B12628   5.731   6.777   8.173  0.7551 -0.0746 -1.4954
   9423SM  H15C12629   5.646   6.647   8.105 -1.6089 -1.5804  1.8022
   9423SM   C1412630   5.662   6.471   8.291 -0.7940  0.3671 -0.4000
   9423SM  H14A12631   5.745   6.413   8.254 -0.1962 -0.6068  2.2605
   9423SM  H14B12632   5.589   6.473   8.211 -1.0034  0.9063 -0.1954
   9423SM  H14C12633   5.621   6.423   8.378  1.7997  0.5259  1.0027
   9423SM   C1312634   5.818   6.620   8.398  0.2388  0.3424  0.1705
   9423SM  H13A12635   5.907   6.562   8.376 -0.1421  0.5418 -2.2524
   9423SM  H13B12636   5.797   6.582   8.496  0.3183 -0.5142 -0.1375
   9423SM  H13C12637   5.850   6.723   8.404 -0.6377  0.5327  2.3013
   9423SM   C1212638   5.579   6.691   8.374 -0.3343 -0.0076  0.2889
   9423SM  H12A12639   5.492   6.671   8.314 -0.6573  0.3522  0.6299
   9423SM  H12B12640   5.595   6.797   8.358  1.4312 -0.4096 -0.8620
   9423SM   C1112641   5.562   6.663   8.530  0.2608  0.5204  0.3629
   9423SM  H11A12642   5.473   6.722   8.559 -1.5322 -0.7254 -2.2551
   9423SM  H11B12643   5.647   6.700   8.591  1.1354  0.0893 -0.5700
   9423SM     P12644   5.594   6.439   8.660 -0.4183 -0.6384  0.3045
   9423SM   O1312645   5.521   6.315   8.682 -0.1331 -0.3915 -1.0163
   9423SM   O1412646   5.741   6.420   8.635 -0.0946  0.0845 -0.4450
   9423SM   O1112647   5.581   6.533   8.791 -0.5032  0.0010  0.3248
   9423SM   O1212648   5.532   6.522   8.539 -0.7018  0.4912 -0.0199
   9423SM   C1S12649   5.608   6.485   8.919 -0.1986 -0.6334  0.9394
   9423SM   H1S12650   5.704   6.429   8.931  0.4230  0.3894  0.8561
   9423SM   H1T12651   5.523   6.417   8.940 -1.9874  0.7849 -1.2873
   9423SM    NF12652   5.589   6.528   9.167  0.5114 -0.4891 -1.0460
   9423SM   HNF12653   5.501   6.524   9.214 -0.5740  0.4633 -2.8923
   9423SM   C2S12654   5.585   6.593   9.033 -0.4203  0.4151  0.1921
   9423SM   H2S12655   5.677   6.654   9.027 -0.3374  0.3931  1.1400
   9423SM   C3S12656   5.458   6.676   8.999  0.0023 -0.4695  0.1776
   9423SM   H3S12657   5.374   6.604   8.984 -0.4122  0.0985 -0.2589
   9423SM    O312658   5.456   6.748   8.876  0.1719 -0.3927 -0.4949
   9423SM   HO312659   5.522   6.706   8.820  1.5105  1.6969 -0.6018
   9423SM   C4S12660   5.430   6.764   9.112  0.4250 -0.2662  0.4003
   9423SM   H4S12661   5.512   6.837   9.123  1.2842 -1.1762  0.1841
   9423SM   C5S12662   5.320   6.765   9.193 -0.1868  0.0183  0.5639
   9423SM   H5S12663   5.231   6.701   9.182  0.3971 -1.0204  1.7036
   9423SM   C6S12664   5.302   6.866   9.303 -0.6235 -0.5842  0.1349
   9423SM   H6S12665   5.201   6.912   9.298 -0.6661 -0.8117 -2.9710
   9423SM   H6T12666   5.378   6.947   9.309 -2.8446  1.5222  1.9429
   9423SM   C7S12667   5.298   6.792   9.443  0.2066 -0.2371 -0.2768
   9423SM   H7S12668   5.391   6.734   9.460  0.8998  0.0323 -2.7600
   9423SM   H7T12669   5.216   6.717   9.441  2.2129 -2.5872 -2.6907
   9423SM   C8S12670   5.285   6.893   9.554  0.3506 -0.3592  0.8215
   9423SM   H8S12671   5.181   6.934   9.556  0.7394  0.6331  1.5148
   9423SM   H8T12672   5.348   6.983   9.541 -1.1782  0.7815  0.9400
   9423SM   C9S12673   5.324   6.831   9.696  0.0467  0.3262 -0.4263
   9423SM   H9S12674   5.422   6.779   9.687 -1.4922 -3.2217  1.6122
   9423SM   H9T12675   5.251   6.749   9.708 -1.0775  1.2636 -0.6467
   9423SM  C10S12676   5.323   6.918   9.821  0.1394  0.1710  0.3420
   9423SM  H10S12677   5.225   6.969   9.826 -0.3324 -0.4399 -1.6353
   9423SM  H10T12678   5.402   6.995   9.810 -0.8392  1.3896  1.6205
   9423SM  C11S12679   5.345   6.843   9.957  0.4208  0.0522 -1.2050
   9423SM  H11S12680   5.441   6.787   9.952  1.3651  1.2365  1.7100
   9423SM  H11T12681   5.277   6.764   9.994  1.4376  0.2923  1.3272
   9423SM  C12S12682   5.354   6.943  10.068  0.0258  0.2114 -1.0527
   9423SM  H12S12683   5.272   7.014  10.045  0.2095  0.9830  0.6008
   9423SM  H12T12684   5.453   6.992  10.058 -1.0228  3.0679  1.2334
   9423SM  C13S12685   5.332   6.880  10.208 -0.6396 -0.8435  0.3910
   9423SM  H13S12686   5.406   6.805  10.242  0.8510 -0.0143 -0.9031
   9423SM  H13T12687   5.233   6.830  10.218 -2.2165  2.1065  0.5737
   9423SM  C14S12688   5.333   6.981  10.320  0.9101 -0.1457 -0.2748
   9423SM  H14S12689   5.260   7.061  10.294 -0.8056 -1.1621  1.1721
   9423SM  H14T12690   5.431   7.032  10.330  0.6771  0.4058 -0.7346
   9423SM  C15S12691   5.300   6.920  10.455 -0.4832  0.4858 -0.1339
   9423SM  H15S12692   5.387   6.860  10.490 -0.4537  0.4908 -0.1990
   9423SM  H15T12693   5.215   6.849  10.451  0.6048 -0.8662 -0.1892
   9423SM  C16S12694   5.276   7.025  10.554  0.3131 -0.0177  0.3417
   9423SM  H16S12695   5.176   7.071  10.533  0.9394  1.3184  0.1490
   9423SM  H16T12696   5.348   7.110  10.549  0.6422 -0.3439 -0.5147
   9423SM  C17S12697   5.267   6.965  10.698  0.4729 -0.0453 -0.2700
   9423SM  H17S12698   5.363   6.918  10.728 -1.0835 -2.0472  1.8874
   9423SM  H17T12699   5.177   6.900  10.698  0.8931 -0.6314  0.2213
   9423SM  C18S12700   5.243   7.074  10.808 -0.0334  0.1592  0.3723
   9423SM  H18S12701   5.139   7.112  10.805 -0.6945 -1.4713  1.2336
   9423SM  H18T12702   5.322   7.151  10.804 -0.8604  0.9794 -0.4857
   9423SM  H18U12703   5.254   7.022  10.906  1.3902 -1.9345 -0.8137
   9423SM   C1F12704   5.696   6.456   9.208  0.6471  0.3443 -0.3600
   9423SM    OF12705   5.790   6.456   9.134  0.2856 -0.0841  0.1578
   9423SM   C2F12706   5.689   6.378   9.333  0.6309  0.2647  0.6338
   9423SM   H2F12707   5.680   6.270   9.310  1.6781  0.5254 -1.1290
   9423SM   H2G12708   5.599   6.417   9.386  0.7707 -0.7648  1.6552
   9423SM   C3F12709   5.817   6.391   9.420  0.1361 -0.1541 -0.3520
   9423SM   H3F12710   5.859   6.493   9.434 -1.4112  0.4628  0.0632
   9423SM   H3G12711   5.903   6.345   9.368  0.0975  0.8431 -1.3421
   9423SM   C4F12712   5.790   6.334   9.561 -0.2576  0.2424  0.7678
   9423SM   H4F12713   5.757   6.230   9.541 -0.1457  0.5285 -1.0597
   9423SM   H4G12714   5.699   6.381   9.604 -2.6242 -1.4203 -2.0313
   9423SM   C5F12715   5.905   6.331   9.654  0.3277  0.4108 -0.3987
   9423SM   H5F12716   5.970   6.421   9.639  0.8878  0.1027  0.1091
   9423SM   H5G12717   5.969   6.244   9.627  2.0673  1.1054  1.2477
   9423SM   C6F12718   5.869   6.307   9.805  0.3778 -0.0155 -0.2072
   9423SM   H6F12719   5.811   6.214   9.822 -1.1127  0.7518 -0.9191
   9423SM   H6G12720   5.808   6.391   9.846  2.7077 -0.1580  4.0909
   9423SM   C7F12721   5.993   6.273   9.893 -0.2564  0.2162 -0.2114
   9423SM   H7F12722   6.065   6.357   9.880 -0.3745  0.1044 -1.7305
   9423SM   H7G12723   6.051   6.195   9.840 -0.1686  0.7657 -0.9346
   9423SM   C8F12724   5.971   6.223  10.038  0.3757  0.4244 -0.4433
   9423SM   H8F12725   6.074   6.204  10.075 -1.0786 -1.5974  3.0334
   9423SM   H8G12726   5.913   6.128  10.040  1.7616 -0.4734 -1.2149
   9423SM   C9F12727   5.904   6.319  10.140  0.0333  0.4952  0.5384
   9423SM   H9F12728   5.795   6.301  10.128  0.2159 -0.0662 -0.3571
   9423SM   H9G12729   5.912   6.425  10.106 -1.2106  0.5037  0.2159
   9423SM  C10F12730   5.944   6.312  10.291 -0.3953  0.3108 -0.3795
   9423SM  H10F12731   6.045   6.353  10.315  0.2198 -1.0889 -0.4841
   9423SM  H10G12732   5.952   6.202  10.305  0.2534  0.3760 -0.1812
   9423SM  C11F12733   5.836   6.376  10.378 -0.6257 -0.5296 -0.8383
   9423SM  H11F12734   5.743   6.316  10.376 -1.9663  1.4600 -2.0299
   9423SM  H11G12735   5.803   6.473  10.334 -3.5488  0.2798  2.6952
   9423SM  C12F12736   5.874   6.373  10.524  0.0005 -0.0376  0.0189
   9423SM  H12F12737   5.948   6.451  10.550  0.7295 -0.4154 -0.8660
   9423SM  H12G12738   5.938   6.284  10.542  1.5806  1.1002  0.1520
   9423SM  C13F12739   5.757   6.373  10.621 -0.4588  0.5768 -1.0509
   9423SM  H13F12740   5.700   6.281  10.595  0.8405 -0.8789  0.9648
   9423SM  H13G12741   5.693   6.463  10.615  0.2394  1.3302  1.6756
   9423SM  C14F12742   5.801   6.363  10.773  0.3166 -0.0465 -0.1846
   9423SM  H14F12743   5.848   6.457  10.807  1.8107  0.2671 -2.8516
   9423SM  H14G12744   5.881   6.286  10.780 -1.4300 -2.2946 -2.6792
   9423SM  C15F12745   5.683   6.318  10.863  0.3301  0.3321 -0.0498
   9423SM  H15F12746   5.666   6.209  10.848 -2.2732  0.8005 -1.0937
   9423SM  H15G12747   5.592   6.376  10.835 -0.6619 -0.4198  1.4982
   9423SM  C16F12748   5.712   6.358  11.009  0.5943 -0.4165 -0.0191
   9423SM  H16F12749   5.619   6.344  11.068  0.3826  1.8093  0.2601
   9423SM  H16G12750   5.745   6.462  11.027 -0.9076 -0.1434  1.3945
   9423SM  C17F12751   5.811   6.259  11.067 -0.0761  0.2329 -0.0337
   9423SM  H17F12752   5.916   6.279  11.034  0.4220  1.9686  2.3221
   9423SM  H17G12753   5.785   6.160  11.022 -0.0250  1.1583 -2.2389
   9423SM  C18F12754   5.795   6.245  11.220 -0.9305 -0.1433  0.3436
   9423SM  H18F12755   5.698   6.265  11.271 -0.7254  0.8609  0.3619
   9423SM  H18G12756   5.853   6.329  11.263 -0.7440  0.4538 -1.0023
   9423SM  C19F12757   5.844   6.114  11.280  0.6200  0.4507 -0.0586
   9423SM  H19F12758   5.771   6.032  11.266  2.0746 -0.7699 -0.7886
   9423SM  H19G12759   5.841   6.125  11.391 -3.0333 -0.0751 -0.0078
   9423SM  C20F12760   5.980   6.068  11.233  0.1861  0.7063 -0.8430
   9423SM  H20F12761   6.065   6.133  11.263  1.0651 -0.9104  0.3533
   9423SM  H20G12762   5.972   6.066  11.122  0.3727 -0.1323 -0.8487
   9423SM  C21F12763   6.002   5.924  11.283 -0.6211 -0.2225 -0.0994
   9423SM  H21F12764   6.096   5.893  11.232 -0.2523 -0.2651  0.5854
   9423SM  H21G12765   5.919   5.862  11.244 -0.3336  0.3750 -1.7420
   9423SM  C22F12766   6.026   5.914  11.428  0.7005  0.0202 -0.4300
   9423SM  H22F12767   5.935   5.949  11.482  1.2761 -0.3978  0.8633
   9423SM  H22G12768   6.111   5.980  11.457 -0.4535  2.2309 -1.7776
   9423SM  C23F12769   6.049   5.767  11.465  0.1644  0.2423 -0.1289
   9423SM  H23F12770   6.156   5.757  11.495  1.4277 -0.3054 -4.1055
   9423SM  H23G12771   6.026   5.698  11.380  0.2121  1.9393 -1.5715
   9423SM  H23H12772   5.987   5.736  11.551 -0.6080 -1.7159 -1.3138
   9523SM     N12773   2.670   3.067   8.699  0.2798  0.2996 -0.3197
   9523SM   C1512774   2.708   3.215   8.703 -0.0108  0.4812 -0.1269
   9523SM  H15A12775   2.741   3.235   8.804 -0.5035  1.4390 -0.1482
   9523SM  H15B12776   2.634   3.284   8.667  0.7948  0.0208 -2.8929
   9523SM  H15C12777   2.792   3.232   8.638 -1.2419 -1.6894 -2.4494
   9523SM   C1412778   2.583   3.041   8.818 -0.3320 -0.4428 -0.0072
   9523SM  H14A12779   2.506   3.116   8.825  1.0208  1.0103 -0.1333
   9523SM  H14B12780   2.646   3.032   8.905 -0.5434  1.1315  0.3408
   9523SM  H14C12781   2.539   2.943   8.806  0.2896 -0.6146 -0.9757
   9523SM   C1312782   2.586   3.050   8.572  0.1381 -0.6481 -0.0792
   9523SM  H13A12783   2.497   3.106   8.597  0.2768 -0.6073  0.3292
   9523SM  H13B12784   2.555   2.951   8.541  1.2241 -1.4454  1.2728
   9523SM  H13C12785   2.641   3.090   8.488  0.6585 -1.8878 -0.3624
   9523SM   C1212786   2.792   2.984   8.704 -0.2529 -0.6915  0.1856
   9523SM  H12A12787   2.862   3.013   8.627 -1.5616  1.3257 -0.2972
   9523SM  H12B12788   2.768   2.879   8.695 -1.9182 -0.3462  0.2517
   9523SM   C1112789   2.885   3.000   8.836  0.0097  0.2066 -0.2529
   9523SM  H11A12790   2.968   2.926   8.825 -0.7949 -0.8223  0.3946
   9523SM  H11B12791   2.819   2.970   8.921  1.3191  0.3468  0.8565
   9523SM     P12792   3.062   3.171   8.913  0.0381 -0.1715  0.6594
   9523SM   O1312793   3.156   3.164   8.802 -0.4515  0.2334 -0.4855
   9523SM   O1412794   3.052   3.295   8.990  0.2274 -0.1938  0.3889
   9523SM   O1112795   3.095   3.049   9.016  0.7289 -0.1381  0.0308
   9523SM   O1212796   2.917   3.139   8.870 -0.1084  0.0556  0.2096
   9523SM   C1S12797   3.182   3.064   9.129 -0.1219 -0.7598 -0.2503
   9523SM   H1S12798   3.217   3.169   9.142 -0.3929 -0.4833 -1.5471
   9523SM   H1T12799   3.274   3.002   9.123  0.4992  0.1696 -0.7017
   9523SM    NF12800   3.176   3.072   9.387  0.0934  0.0909  0.4302
   9523SM   HNF12801   3.212   2.997   9.442  0.2447 -0.4610 -0.4050
   9523SM   C2S12802   3.097   3.036   9.263 -0.6221 -0.0531  0.0326
   9523SM   H2S12803   3.011   3.106   9.254 -1.8377 -1.2967  1.3868
   9523SM   C3S12804   3.030   2.895   9.255  0.2643  0.3729  0.4786
   9523SM   H3S12805   3.112   2.822   9.275  0.4381  0.4298 -0.0289
   9523SM    O312806   2.976   2.852   9.129  0.3133 -0.5820 -0.1610
   9523SM   HO312807   3.016   2.910   9.063  1.0119 -1.2818 -0.3656
   9523SM   C4S12808   2.930   2.872   9.364 -0.1312  0.1156  0.4692
   9523SM   H4S12809   2.979   2.837   9.456  1.1645  1.6017  0.3843
   9523SM   C5S12810   2.794   2.882   9.358 -0.0997 -0.4807 -0.4149
   9523SM   H5S12811   2.755   2.924   9.264 -1.5223 -2.2778 -0.6831
   9523SM   C6S12812   2.695   2.839   9.471 -0.9398  0.2587  1.0150
   9523SM   H6S12813   2.630   2.760   9.427 -0.0069 -0.2719  0.5763
   9523SM   H6T12814   2.619   2.914   9.501 -0.6911  0.3486  1.4193
   9523SM   C7S12815   2.752   2.782   9.604  0.2927 -0.2076  0.1000
   9523SM   H7S12816   2.816   2.860   9.650  0.0563  0.4120 -0.5926
   9523SM   H7T12817   2.814   2.692   9.583  0.6126  0.4754 -2.1949
   9523SM   C8S12818   2.636   2.737   9.691 -0.0286  0.8557 -0.3987
   9523SM   H8S12819   2.564   2.684   9.626  1.1001 -0.8735 -0.3145
   9523SM   H8T12820   2.580   2.823   9.732 -1.7036 -0.3001 -0.1732
   9523SM   C9S12821   2.680   2.645   9.800  0.3816 -0.2432 -0.1610
   9523SM   H9S12822   2.758   2.701   9.857 -0.4758 -0.6005  1.4198
   9523SM   H9T12823   2.729   2.557   9.753 -1.5800 -1.0728 -0.7490
   9523SM  C10S12824   2.568   2.607   9.900  0.3143 -0.2975  0.1566
   9523SM  H10S12825   2.501   2.538   9.845 -0.7236  0.3350  0.5996
   9523SM  H10T12826   2.506   2.695   9.926  0.8539  0.8158 -2.0770
   9523SM  C11S12827   2.618   2.555  10.037 -0.2287 -0.1025  0.4713
   9523SM  H11S12828   2.658   2.643  10.091  1.1136  0.0946 -0.7775
   9523SM  H11T12829   2.697   2.477  10.029  0.3294  0.4347  0.6172
   9523SM  C12S12830   2.509   2.495  10.123 -0.3538  0.4969 -0.2983
   9523SM  H12S12831   2.468   2.407  10.069  1.8787 -1.1410  0.5190
   9523SM  H12T12832   2.429   2.569  10.142 -2.6589 -1.5159 -1.7058
   9523SM  C13S12833   2.577   2.443  10.254  0.4746 -0.5781  0.0341
   9523SM  H13S12834   2.635   2.529  10.294 -1.1087  1.0836 -1.1029
   9523SM  H13T12835   2.649   2.364  10.224  0.1589 -0.2574 -1.6405
   9523SM  C14S12836   2.492   2.388  10.369 -0.3672 -0.4865  0.4600
   9523SM  H14S12837   2.469   2.284  10.338  1.6146 -0.3260 -1.8179
   9523SM  H14T12838   2.395   2.441  10.379 -0.2743 -0.3273  0.5208
   9523SM  C15S12839   2.573   2.404  10.496 -0.3565 -0.1418 -0.0955
   9523SM  H15S12840   2.675   2.434  10.466 -0.1299 -0.0878  0.7028
   9523SM  H15T12841   2.582   2.306  10.549 -1.4916 -0.5611 -0.6337
   9523SM  C16S12842   2.502   2.493  10.597  0.3217 -0.0309 -0.7827
   9523SM  H16S12843   2.474   2.585  10.541 -0.2913  0.0237 -0.3958
   9523SM  H16T12844   2.565   2.498  10.688 -1.7931 -3.2968  1.0790
   9523SM  C17S12845   2.368   2.433  10.648  0.7376  0.4934  0.2712
   9523SM  H17S12846   2.299   2.401  10.567  0.4794 -2.0098  1.3796
   9523SM  H17T12847   2.304   2.513  10.690 -0.1180  0.5137 -1.0313
   9523SM  C18S12848   2.393   2.319  10.743 -0.2629  0.0092  0.1956
   9523SM  H18S12849   2.450   2.239  10.690  0.4795 -0.5394  1.7818
   9523SM  H18T12850   2.296   2.293  10.789  0.1386  2.5958  2.7753
   9523SM  H18U12851   2.444   2.365  10.830  1.1523  0.2215 -0.6986
   9523SM   C1F12852   3.198   3.203   9.421  0.2288 -0.0568 -0.1875
   9523SM    OF12853   3.139   3.294   9.367  0.1222 -0.1109 -0.0255
   9523SM   C2F12854   3.289   3.220   9.537  0.8462  0.2930  0.3577
   9523SM   H2F12855   3.347   3.314   9.531  1.3029  0.0539  0.9508
   9523SM   H2G12856   3.370   3.144   9.532  1.8327  1.3881 -1.7289
   9523SM   C3F12857   3.205   3.233   9.667 -0.2681 -0.2170  0.9432
   9523SM   H3F12858   3.133   3.149   9.673  0.8734 -1.2840  0.1425
   9523SM   H3G12859   3.145   3.326   9.674 -0.4427 -0.1826 -0.6759
   9523SM   C4F12860   3.297   3.229   9.797 -0.7000  0.3715 -0.2038
   9523SM   H4F12861   3.363   3.319   9.796 -2.9845  2.1452 -0.9032
   9523SM   H4G12862   3.353   3.133   9.793 -0.9703  0.0918  1.8957
   9523SM   C5F12863   3.213   3.239   9.929 -0.5400  0.3836  1.0756
   9523SM   H5F12864   3.134   3.161   9.922  1.0803 -1.4039  1.8873
   9523SM   H5G12865   3.179   3.344   9.942  1.3525  0.9777  1.4792
   9523SM   C6F12866   3.286   3.204  10.062  0.2077 -0.7369  0.2586
   9523SM   H6F12867   3.353   3.290  10.085 -3.0281  2.3188 -0.8756
   9523SM   H6G12868   3.340   3.108  10.046 -1.4930 -1.5727 -0.7699
   9523SM   C7F12869   3.187   3.187  10.181 -0.1967 -0.1184  0.3103
   9523SM   H7F12870   3.121   3.100  10.161 -0.8106  0.1617  1.0554
   9523SM   H7G12871   3.133   3.284  10.182  1.0434  0.6606 -1.4422
   9523SM   C8F12872   3.267   3.150  10.307 -0.1731  0.7944 -0.4650
   9523SM   H8F12873   3.334   3.236  10.329 -0.8520  0.7129  2.2857
   9523SM   H8G12874   3.332   3.064  10.284  1.2982  2.2635 -2.0972
   9523SM   C9F12875   3.187   3.119  10.436  0.2805 -0.0242 -0.5426
   9523SM   H9F12876   3.234   3.169  10.523 -1.7738 -1.7143  1.6925
   9523SM   H9G12877   3.188   3.008  10.448 -1.8156 -0.2809 -1.9596
   9523SM  C10F12878   3.034   3.168  10.432 -0.5325 -0.0057 -0.8616
   9523SM  H10F12879   2.978   3.147  10.339 -1.3818  0.4161 -0.4509
   9523SM  H10G12880   3.048   3.276  10.457  1.3468 -0.9600  2.9230
   9523SM  C11F12881   2.946   3.108  10.547  0.6646 -0.2238  0.1131
   9523SM  H11F12882   2.927   2.999  10.545 -2.4441  0.2342 -0.1071
   9523SM  H11G12883   2.846   3.148  10.519  1.6778  1.8726 -0.7404
   9523SM  C12F12884   2.982   3.152  10.691 -0.0971  0.2711 -0.0139
   9523SM  H12F12885   2.993   3.263  10.692 -0.0348  0.2846  2.1149
   9523SM  H12G12886   3.073   3.102  10.728 -0.2419 -0.9347 -1.2069
   9523SM  C13F12887   2.868   3.116  10.791  0.3568 -0.4158 -0.2261
   9523SM  H13F12888   2.869   3.007  10.814 -0.6543 -0.4858 -0.4933
   9523SM  H13G12889   2.771   3.124  10.739 -0.1426 -1.9101  0.4228
   9523SM  C14F12890   2.864   3.207  10.919  0.7465  0.1202 -0.0543
   9523SM  H14F12891   2.832   3.311  10.899 -3.5034 -0.9009  0.5613
   9523SM  H14G12892   2.966   3.222  10.961 -0.2762  2.6053  1.7757
   9523SM  C15F12893   2.775   3.141  11.031 -0.7298 -0.3019 -0.0575
   9523SM  H15F12894   2.811   3.036  11.031  0.1163 -0.0212 -0.8857
   9523SM  H15G12895   2.670   3.136  10.995 -0.6015 -1.8862 -0.2873
   9523SM  C16F12896   2.795   3.195  11.175  0.1931 -0.1063 -0.4599
   9523SM  H16F12897   2.747   3.294  11.189  1.0728  0.1116  1.1499
   9523SM  H16G12898   2.903   3.218  11.188 -0.3803  2.4956  0.2327
   9523SM  C17F12899   2.745   3.103  11.290  0.7606  0.7444 -0.7491
   9523SM  H17F12900   2.813   3.015  11.295  0.0270  0.2159 -0.0388
   9523SM  H17G12901   2.649   3.060  11.255  1.1101 -1.3291  0.6607
   9523SM  C18F12902   2.743   3.169  11.434  0.3130 -0.2321  0.2156
   9523SM  H18F12903   2.704   3.090  11.501  0.7706 -0.5605  0.0996
   9523SM  H18G12904   2.674   3.256  11.433  0.0720 -0.4224  0.0574
   9523SM  C19F12905   2.884   3.219  11.476  0.5102 -0.1378  0.0717
   9523SM  H19F12906   2.881   3.319  11.524  1.3046 -0.3047  0.4810
   9523SM  H19G12907   2.954   3.216  11.390  2.4710 -1.3479  1.6222
   9523SM  C20F12908   2.938   3.137  11.595  0.1879 -0.1235  0.5141
   9523SM  H20F12909   3.045   3.162  11.612  0.6406 -1.6862  0.1212
   9523SM  H20G12910   2.937   3.028  11.574  0.3879 -0.2648  1.2018
   9523SM  C21F12911   2.860   3.167  11.725 -0.1195  0.1446 -0.5777
   9523SM  H21F12912   2.759   3.121  11.716 -0.9410  1.8930 -0.7757
   9523SM  H21G12913   2.837   3.275  11.736  0.6444  0.2433  0.1397
   9523SM  C22F12914   2.921   3.115  11.845 -0.0627 -0.1735  0.1699
   9523SM  H22F12915   3.006   3.175  11.886 -0.2248  1.3622 -1.6130
   9523SM  H22G12916   2.963   3.014  11.824 -0.0149  0.0111 -0.6320
   9523SM  C23F12917   2.827   3.092  11.965  0.5699  0.0136  0.0126
   9523SM  H23F12918   2.750   3.014  11.949 -2.0030  2.0090  1.7437
   9523SM  H23G12919   2.772   3.183  11.997 -0.7991  0.2252 -2.6884
   9523SM  H23H12920   2.896   3.056  12.045 -0.3988 -1.0695  0.3834
   9623SM     N12921   2.250   1.326   8.472  0.2998 -0.1298  0.2437
   9623SM   C1512922   2.350   1.399   8.567 -0.8075  0.2176  0.1266
   9623SM  H15A12923   2.367   1.348   8.661 -1.7564 -0.3200  0.0164
   9623SM  H15B12924   2.315   1.501   8.579  0.1165  0.5836 -0.2101
   9623SM  H15C12925   2.449   1.397   8.524 -0.5511 -0.2992  0.7185
   9623SM   C1412926   2.115   1.321   8.532 -0.3221  0.5574  0.6618
   9623SM  H14A12927   2.110   1.276   8.631  0.2062  0.4627  0.6477
   9623SM  H14B12928   2.043   1.268   8.472  0.4985  0.8749 -0.6212
   9623SM  H14C12929   2.072   1.420   8.541  1.4153  1.5288 -1.0273
   9623SM   C1312930   2.242   1.407   8.342 -0.1702 -0.0031 -0.2920
   9623SM  H13A12931   2.337   1.421   8.292  1.2120  0.2469  2.2466
   9623SM  H13B12932   2.208   1.508   8.357  1.5334  0.6960 -0.9109
   9623SM  H13C12933   2.168   1.361   8.279 -2.1060  1.7883  0.5668
   9623SM   C1212934   2.296   1.182   8.456 -0.5179 -0.9099 -0.2199
   9623SM  H12A12935   2.212   1.124   8.421 -1.4317 -0.3256  0.9501
   9623SM  H12B12936   2.327   1.140   8.550  2.8734  0.4675 -0.5724
   9623SM   C1112937   2.427   1.159   8.367 -0.6415  0.4545  0.0546
   9623SM  H11A12938   2.403   1.182   8.261 -0.2795  0.6589  0.0146
   9623SM  H11B12939   2.443   1.049   8.365 -0.4429  0.4416  1.4006
   9623SM     P12940   2.671   1.173   8.482  0.1214 -0.2043  0.2221
   9623SM   O1312941   2.724   1.062   8.392 -0.6588  0.0085 -0.8948
   9623SM   O1412942   2.760   1.292   8.514 -0.7510  0.2552 -0.4933
   9623SM   O1112943   2.618   1.110   8.621 -0.1495  0.4196  0.4116
   9623SM   O1212944   2.541   1.233   8.423 -0.5624 -0.1923 -0.4365
   9623SM   C1S12945   2.617   1.177   8.744  0.6581  0.3119 -0.3537
   9623SM   H1S12946   2.524   1.237   8.743  0.9616  0.7800 -0.4973
   9623SM   H1T12947   2.705   1.243   8.757  0.3164  0.4224  1.8742
   9623SM    NF12948   2.590   1.156   8.986  0.7253  0.4429  0.2633
   9623SM   HNF12949   2.663   1.180   9.050  0.5923  1.7130 -0.0271
   9623SM   C2S12950   2.624   1.080   8.867  0.2885 -0.3987  0.5073
   9623SM   H2S12951   2.556   0.995   8.841  1.0300 -0.7554 -0.2930
   9623SM   C3S12952   2.765   1.026   8.876 -0.0689 -0.0598 -0.3515
   9623SM   H3S12953   2.835   1.109   8.896  2.6058 -2.7951  2.9934
   9623SM    O312954   2.808   0.972   8.751  0.0340 -0.6207 -0.1897
   9623SM   HO312955   2.736   1.004   8.696 -0.8562 -1.1143  0.6561
   9623SM   C4S12956   2.804   0.924   8.986 -0.3645 -0.2273 -0.2459
   9623SM   H4S12957   2.842   0.974   9.076 -1.0245  0.5569 -0.3878
   9623SM   C5S12958   2.784   0.787   8.985  0.9221 -0.2888  0.5028
   9623SM   H5S12959   2.749   0.743   8.890  2.0869  0.6752 -0.4151
   9623SM   C6S12960   2.818   0.698   9.099 -0.4219  0.1799 -0.0008
   9623SM   H6S12961   2.909   0.646   9.065 -1.5416 -1.7313 -0.2187
   9623SM   H6T12962   2.738   0.625   9.124 -0.8979  1.0161  1.0142
   9623SM   C7S12963   2.872   0.762   9.236 -0.2434 -0.0367  0.8025
   9623SM   H7S12964   2.953   0.836   9.218 -0.9232  0.9558  1.6461
   9623SM   H7T12965   2.920   0.683   9.298 -2.4061 -1.9808  0.1002
   9623SM   C8S12966   2.763   0.826   9.320  0.0390  0.0692  0.1382
   9623SM   H8S12967   2.700   0.748   9.369  0.4103  0.6171  1.5469
   9623SM   H8T12968   2.699   0.891   9.256  1.3201  0.3267 -0.9085
   9623SM   C9S12969   2.815   0.910   9.441 -0.1983  0.1330 -0.0533
   9623SM   H9S12970   2.890   0.980   9.398 -0.3650  0.2063 -0.2287
   9623SM   H9T12971   2.870   0.851   9.517 -1.9488  0.9169  1.9171
   9623SM  C10S12972   2.719   0.989   9.524  0.5372 -0.2185  0.1469
   9623SM  H10S12973   2.625   0.934   9.543 -1.3033  1.6449 -2.7489
   9623SM  H10T12974   2.688   1.088   9.483  1.3781  0.1393  0.3424
   9623SM  C11S12975   2.791   1.022   9.664 -0.0590 -0.7089  0.4615
   9623SM  H11S12976   2.898   1.042   9.644 -0.7717  2.3505 -0.7607
   9623SM  H11T12977   2.770   0.928   9.720  0.6762 -0.7480  0.6828
   9623SM  C12S12978   2.737   1.145   9.727 -0.1654 -0.9055 -0.5030
   9623SM  H12S12979   2.630   1.119   9.744  0.4159 -2.9536  0.3967
   9623SM  H12T12980   2.747   1.235   9.663 -1.3582  0.7045  1.4302
   9623SM  C13S12981   2.800   1.183   9.862 -0.0267  0.6842 -0.7908
   9623SM  H13S12982   2.793   1.293   9.877 -1.1252  0.6389 -0.9215
   9623SM  H13T12983   2.909   1.163   9.859 -0.2421 -1.1772  1.0894
   9623SM  C14S12984   2.740   1.114   9.981  0.8848 -0.1340  0.0209
   9623SM  H14S12985   2.720   1.010   9.947  2.8363 -0.2678 -0.8293
   9623SM  H14T12986   2.643   1.162  10.008  1.1521  0.4950 -0.1463
   9623SM  C15S12987   2.826   1.108  10.107  0.3965  0.3904  0.0259
   9623SM  H15S12988   2.852   1.210  10.142  1.7418 -0.2325  0.8898
   9623SM  H15T12989   2.920   1.061  10.073 -0.4363  0.3139 -2.4278
   9623SM  C16S12990   2.755   1.026  10.213  0.1035 -0.2893 -0.5483
   9623SM  H16S12991   2.757   0.920  10.178  2.7024  0.1685 -1.9875
   9623SM  H16T12992   2.649   1.059  10.220  0.1836 -0.1922  0.3620
   9623SM  C17S12993   2.824   1.043  10.350  0.2504  0.0853  0.0848
   9623SM  H17S12994   2.932   1.021  10.337  0.0363 -1.2863  0.4459
   9623SM  H17T12995   2.781   0.964  10.416 -1.7347 -0.0397 -1.2646
   9623SM  C18S12996   2.787   1.176  10.407  0.0993 -0.1786  0.1539
   9623SM  H18S12997   2.799   1.184  10.518 -1.9397  3.1165  0.2949
   9623SM  H18T12998   2.681   1.206  10.397 -0.2977 -0.9414  1.7495
   9623SM  H18U12999   2.836   1.262  10.356  1.1125  0.7886  2.5926
   9623SM   C1F13000   2.461   1.174   9.024 -0.0017  0.9813 -0.7625
   9623SM    OF13001   2.365   1.124   8.968  0.1763  0.8798  0.4662
   9623SM   C2F13002   2.443   1.266   9.138 -0.0855  0.2257  0.1223
   9623SM   H2F13003   2.460   1.371   9.105  1.0009  0.0056 -0.0594
   9623SM   H2G13004   2.526   1.240   9.207 -1.3369 -4.0722  0.2657
   9623SM   C3F13005   2.298   1.261   9.200 -0.0476  0.3156 -0.6891
   9623SM   H3F13006   2.294   1.155   9.232 -0.2843  0.1536 -1.2341
   9623SM   H3G13007   2.220   1.266   9.121 -1.8452 -0.4247  0.9688
   9623SM   C4F13008   2.265   1.353   9.323 -0.8317  0.5827 -0.1195
   9623SM   H4F13009   2.159   1.342   9.354 -1.2295 -0.0281 -1.5815
   9623SM   H4G13010   2.272   1.458   9.285  1.5240  0.7018  0.5043
   9623SM   C5F13011   2.377   1.343   9.431 -0.4597  0.0807  0.3778
   9623SM   H5F13012   2.455   1.407   9.385 -1.1395  0.2921 -0.5162
   9623SM   H5G13013   2.414   1.240   9.445  2.5417  1.1792  1.2946
   9623SM   C6F13014   2.317   1.404   9.560 -0.5744 -0.3290  0.4999
   9623SM   H6F13015   2.210   1.380   9.572 -1.0122  1.5139  0.5300
   9623SM   H6G13016   2.306   1.514   9.551  2.5825  0.1031  0.7065
   9623SM   C7F13017   2.396   1.366   9.683  0.5894 -0.5079  0.6575
   9623SM   H7F13018   2.504   1.389   9.673  0.8946 -1.1581  2.1015
   9623SM   H7G13019   2.395   1.257   9.704 -0.9878 -1.3572 -3.1369
   9623SM   C8F13020   2.345   1.447   9.803  0.4636  0.2882 -0.4617
   9623SM   H8F13021   2.241   1.412   9.818  0.1339  1.1745 -0.6103
   9623SM   H8G13022   2.345   1.556   9.783 -1.0282  0.3425 -0.2129
   9623SM   C9F13023   2.435   1.425   9.925  0.1714  0.3406  0.4949
   9623SM   H9F13024   2.528   1.479   9.898  0.0343 -0.1764 -1.1097
   9623SM   H9G13025   2.453   1.316   9.936 -0.8720  0.1173  0.1114
   9623SM  C10F13026   2.363   1.492  10.043  0.1725 -0.1214  0.3155
   9623SM  H10F13027   2.253   1.481  10.029 -0.0312 -0.3262  1.9730
   9623SM  H10G13028   2.379   1.602  10.032 -2.0837  0.3241  0.8990
   9623SM  C11F13029   2.413   1.437  10.181  0.1966 -0.0142  0.9515
   9623SM  H11F13030   2.401   1.518  10.256  2.2213 -0.1809  1.5012
   9623SM  H11G13031   2.521   1.412  10.176  0.4885  1.3670 -0.2370
   9623SM  C12F13032   2.331   1.320  10.232  0.4996  0.3084 -0.3353
   9623SM  H12F13033   2.338   1.238  10.159  1.4181  1.0355 -1.0806
   9623SM  H12G13034   2.222   1.344  10.236 -0.2347 -2.7862  0.5933
   9623SM  C13F13035   2.388   1.264  10.359 -0.5721  0.0565 -0.2557
   9623SM  H13F13036   2.499   1.257  10.366 -0.5111  1.0115 -0.2103
   9623SM  H13G13037   2.355   1.158  10.354  0.1521 -0.2186  0.4877
   9623SM  C14F13038   2.334   1.340  10.483 -0.7626 -0.1153 -0.0693
   9623SM  H14F13039   2.225   1.352  10.471 -0.7799  0.3416  0.5112
   9623SM  H14G13040   2.368   1.445  10.489 -0.5213 -0.1979  0.0380
   9623SM  C15F13041   2.371   1.248  10.603  0.1632  0.1336 -0.3184
   9623SM  H15F13042   2.482   1.245  10.607  0.2570  0.3074 -2.1557
   9623SM  H15G13043   2.343   1.143  10.579  0.8214 -0.0784 -0.1897
   9623SM  C16F13044   2.310   1.296  10.738 -0.3234 -0.4221  0.3011
   9623SM  H16F13045   2.200   1.291  10.720 -0.0601  0.9106 -2.0609
   9623SM  H16G13046   2.351   1.394  10.771 -0.9335  0.3092 -1.0297
   9623SM  C17F13047   2.341   1.211  10.867 -1.0436  0.0542  0.6949
   9623SM  H17F13048   2.450   1.193  10.867 -0.8543  1.1139  1.4498
   9623SM  H17G13049   2.297   1.109  10.856 -0.5781 -0.0442 -0.3325
   9623SM  C18F13050   2.308   1.278  11.000  0.2880 -0.0870  0.0451
   9623SM  H18F13051   2.379   1.361  11.022  2.7147 -2.5959  2.6225
   9623SM  H18G13052   2.333   1.204  11.079 -1.6688  0.7909  1.5693
   9623SM  C19F13053   2.158   1.321  11.015 -0.3757 -0.5078  0.1615
   9623SM  H19F13054   2.105   1.224  11.026 -3.0785  0.6860 -1.2286
   9623SM  H19G13055   2.129   1.366  10.918  1.1358  1.0284  0.3767
   9623SM  C20F13056   2.134   1.417  11.131  0.6665 -0.3551  0.2453
   9623SM  H20F13057   2.030   1.455  11.120  1.1366  0.4862 -1.6564
   9623SM  H20G13058   2.197   1.509  11.132  1.2575 -0.7310 -1.2630
   9623SM  C21F13059   2.153   1.349  11.271  0.0704 -0.2262 -0.5068
   9623SM  H21F13060   2.262   1.337  11.289  0.3074 -0.3879 -1.9137
   9623SM  H21G13061   2.110   1.248  11.256 -0.0309 -0.7093  2.4490
   9623SM  C22F13062   2.082   1.407  11.395  0.4633 -0.2993  0.5461
   9623SM  H22F13063   2.108   1.515  11.402 -0.8252  0.0735  0.0057
   9623SM  H22G13064   2.115   1.348  11.483  1.5011 -0.1111  0.2940
   9623SM  C23F13065   1.929   1.402  11.393  0.4054 -0.6511  0.0437
   9623SM  H23F13066   1.879   1.313  11.349 -1.0865 -0.1348  0.6282
   9623SM  H23G13067   1.889   1.481  11.326 -0.1359 -2.5272 -1.9807
   9623SM  H23H13068   1.876   1.414  11.489  2.6879  0.0115  1.2911
   9723SM     N13069   4.540   0.433   8.557  0.2372  0.0182 -0.3623
   9723SM   C1513070   4.418   0.453   8.628  0.1814  0.4853 -0.2409
   9723SM  H15A13071   4.339   0.439   8.555 -0.3273 -2.0866  0.7165
   9723SM  H15B13072   4.403   0.554   8.665 -0.6465  0.9135 -1.6367
   9723SM  H15C13073   4.403   0.372   8.698 -1.1612  1.2202  0.3690
   9723SM   C1413074   4.553   0.288   8.523 -0.0086  0.8587  0.8990
   9723SM  H14A13075   4.462   0.254   8.476 -0.2454 -0.1926  2.0514
   9723SM  H14B13076   4.574   0.229   8.611 -0.0236  1.8933  1.6141
   9723SM  H14C13077   4.627   0.273   8.446 -1.9633 -1.1645 -0.6918
   9723SM   C1313078   4.538   0.511   8.432 -0.6825  0.2704 -0.0867
   9723SM  H13A13079   4.477   0.596   8.459  1.4408  1.0851  2.5370
   9723SM  H13B13080   4.494   0.457   8.350  0.2981  0.9450 -1.0760
   9723SM  H13C13081   4.638   0.536   8.401 -0.6003 -0.0403 -0.0746
   9723SM   C1213082   4.665   0.465   8.639 -0.1250 -0.3120 -0.1328
   9723SM  H12A13083   4.753   0.479   8.578  0.6523 -1.1415  0.7501
   9723SM  H12B13084   4.683   0.381   8.706  0.5764 -0.7362 -0.8308
   9723SM   C1113085   4.660   0.596   8.728  0.4399  0.0814 -0.2417
   9723SM  H11A13086   4.745   0.591   8.799 -1.5687  1.3987  2.4510
   9723SM  H11B13087   4.565   0.595   8.786  1.1531  0.1835  0.9659
   9723SM     P13088   4.588   0.840   8.684  0.4148  0.1959 -0.3902
   9723SM   O1313089   4.650   0.967   8.637  0.4447  0.0718 -0.3200
   9723SM   O1413090   4.453   0.806   8.641  0.4334 -0.0859 -0.1468
   9723SM   O1113091   4.585   0.836   8.842 -0.0531  0.2936  0.1598
   9723SM   O1213092   4.678   0.715   8.650 -0.6801  0.2503 -0.4186
   9723SM   C1S13093   4.681   0.910   8.925 -0.3460  0.1697 -0.0234
   9723SM   H1S13094   4.696   1.018   8.904  1.9558 -0.7341 -4.2710
   9723SM   H1T13095   4.779   0.861   8.905 -0.6498  0.2317 -1.7972
   9723SM    NF13096   4.780   0.957   9.145 -0.5593 -0.2822  0.5111
   9723SM   HNF13097   4.873   0.922   9.154  0.3530  1.5486 -1.1572
   9723SM   C2S13098   4.682   0.880   9.088  0.3977 -0.0118 -0.0606
   9723SM   H2S13099   4.584   0.916   9.125  0.2825  0.9440 -1.2207
   9723SM   C3S13100   4.683   0.728   9.120  0.0889  0.2237 -0.0234
   9723SM   H3S13101   4.778   0.677   9.094 -0.5468 -0.8391 -0.3039
   9723SM    O313102   4.604   0.646   9.034 -0.2177  0.5733 -0.2124
   9723SM   HO313103   4.602   0.693   8.951 -0.2003 -0.1240 -0.6170
   9723SM   C4S13104   4.656   0.701   9.263  0.2957 -0.2987 -0.0051
   9723SM   H4S13105   4.739   0.726   9.331 -0.8722  0.5501  1.1755
   9723SM   C5S13106   4.542   0.685   9.335 -0.4754  0.1973  0.1201
   9723SM   H5S13107   4.447   0.678   9.280 -0.8609 -0.2866  0.8244
   9723SM   C6S13108   4.534   0.683   9.487  0.4191 -0.9198 -0.1242
   9723SM   H6S13109   4.524   0.578   9.524 -0.6856 -1.1461 -0.9930
   9723SM   H6T13110   4.435   0.731   9.506  0.8348  0.7620 -1.8958
   9723SM   C7S13111   4.644   0.758   9.563  1.1060 -0.1401  0.3885
   9723SM   H7S13112   4.634   0.867   9.544 -1.9676 -0.4655 -0.3025
   9723SM   H7T13113   4.746   0.736   9.524  1.3964  0.0981  0.9964
   9723SM   C8S13114   4.629   0.723   9.709 -0.0252 -0.2669 -0.1459
   9723SM   H8S13115   4.623   0.613   9.721  2.2523 -0.6095 -1.5326
   9723SM   H8T13116   4.539   0.769   9.755  0.6921  2.5327 -1.3055
   9723SM   C9S13117   4.749   0.787   9.789 -0.2146 -1.1758  0.1388
   9723SM   H9S13118   4.749   0.896   9.765 -2.6045 -1.0055  0.5838
   9723SM   H9T13119   4.847   0.744   9.762 -0.1115  0.0113 -1.5285
   9723SM  C10S13120   4.713   0.785   9.940 -0.4993 -0.5159 -0.3811
   9723SM  H10S13121   4.749   0.688   9.980 -1.0787 -1.0245 -1.0721
   9723SM  H10T13122   4.603   0.781   9.953 -0.8559 -0.7530 -2.9336
   9723SM  C11S13123   4.762   0.903  10.020 -0.6995 -0.2960 -0.0874
   9723SM  H11S13124   4.721   0.986   9.959 -0.4381 -0.2481 -0.2000
   9723SM  H11T13125   4.872   0.920  10.011 -0.9364  1.9918  0.7003
   9723SM  C12S13126   4.728   0.901  10.169 -0.1031 -0.2591 -0.5980
   9723SM  H12S13127   4.753   1.003  10.206  1.9808 -0.1483 -2.1662
   9723SM  H12T13128   4.808   0.838  10.214 -1.4065 -0.5011  1.5496
   9723SM  C13S13129   4.591   0.844  10.210 -0.3783 -0.5681 -0.4580
   9723SM  H13S13130   4.583   0.740  10.174 -1.8769 -0.3148 -0.9165
   9723SM  H13T13131   4.501   0.904  10.185 -1.4737 -0.4618  3.1255
   9723SM  C14S13132   4.593   0.845  10.362  0.3308  0.0150 -0.3797
   9723SM  H14S13133   4.616   0.949  10.393  0.9084 -0.5780  1.3104
   9723SM  H14T13134   4.679   0.783  10.395 -0.0741 -0.5266 -0.3279
   9723SM  C15S13135   4.464   0.796  10.430  0.5755  0.5670  0.2649
   9723SM  H15S13136   4.451   0.689  10.403  1.3722  0.8428 -1.3170
   9723SM  H15T13137   4.377   0.852  10.390  0.2866 -0.8908 -1.2215
   9723SM  C16S13138   4.478   0.813  10.584 -0.1477 -0.6494  0.0013
   9723SM  H16S13139   4.477   0.918  10.619 -2.0853 -1.0969  1.5216
   9723SM  H16T13140   4.574   0.776  10.625  0.4409  1.8032  1.0103
   9723SM  C17S13141   4.365   0.745  10.658  0.6455 -0.0052  0.8182
   9723SM  H17S13142   4.365   0.635  10.647 -1.5512  0.1622 -1.7342
   9723SM  H17T13143   4.264   0.780  10.628  1.3108 -0.7608 -2.7420
   9723SM  C18S13144   4.376   0.777  10.807 -0.6975  0.1201  0.0800
   9723SM  H18S13145   4.483   0.767  10.834 -0.3673 -0.6993 -1.4438
   9723SM  H18T13146   4.327   0.704  10.875 -1.1836 -0.8105 -1.2226
   9723SM  H18U13147   4.340   0.881  10.826 -1.1665 -0.3588  1.9829
   9723SM   C1F13148   4.784   1.090   9.157 -0.1417  0.2002 -0.0217
   9723SM    OF13149   4.684   1.154   9.127 -0.2277  0.7303  0.2024
   9723SM   C2F13150   4.909   1.160   9.195 -0.9696 -0.5643 -0.0914
   9723SM   H2F13151   4.927   1.242   9.122  1.6466 -0.3857  0.6384
   9723SM   H2G13152   4.997   1.093   9.211 -1.3451 -1.1500 -0.4468
   9723SM   C3F13153   4.874   1.232   9.331 -0.4265 -0.5431  0.2333
   9723SM   H3F13154   4.778   1.288   9.322  0.6414  1.4442  0.4865
   9723SM   H3G13155   4.939   1.321   9.345 -2.0343  0.3503  2.8369
   9723SM   C4F13156   4.894   1.142   9.452  0.2799 -0.0754  0.0956
   9723SM   H4F13157   5.000   1.114   9.467 -0.0224 -1.2584  0.0856
   9723SM   H4G13158   4.831   1.051   9.445  1.7945 -1.0303 -2.3063
   9723SM   C5F13159   4.848   1.231   9.572  0.6645  0.7963  0.2123
   9723SM   H5F13160   4.745   1.270   9.554 -0.9618 -2.3596  1.8678
   9723SM   H5G13161   4.912   1.322   9.569 -0.6600  1.7439 -0.1113
   9723SM   C6F13162   4.857   1.169   9.713 -0.4521 -0.1464  0.1871
   9723SM   H6F13163   4.948   1.118   9.750  1.3047  1.9743 -1.0387
   9723SM   H6G13164   4.767   1.105   9.726 -0.6948  0.3802  1.2164
   9723SM   C7F13165   4.841   1.290   9.810 -1.0312  0.2117 -0.1451
   9723SM   H7F13166   4.773   1.369   9.773 -1.1613  1.2756  2.1558
   9723SM   H7G13167   4.943   1.333   9.822 -0.2385 -1.4657 -0.6044
   9723SM   C8F13168   4.790   1.256   9.947  0.3625 -0.3131 -0.4837
   9723SM   H8F13169   4.860   1.191  10.003  0.1886  0.8113  1.1227
   9723SM   H8G13170   4.691   1.206   9.934 -2.9349  5.2116 -0.0398
   9723SM   C9F13171   4.767   1.385  10.031 -0.6901  0.3956  0.1425
   9723SM   H9F13172   4.697   1.461   9.990 -0.4201  1.6147  1.8258
   9723SM   H9G13173   4.864   1.433  10.052 -0.5838 -0.2082  1.1357
   9723SM  C10F13174   4.704   1.340  10.158 -0.0146  0.2919  0.2007
   9723SM  H10F13175   4.760   1.258  10.208 -1.1086 -1.1462 -0.8222
   9723SM  H10G13176   4.606   1.293  10.134 -0.3823  1.8045 -1.4444
   9723SM  C11F13177   4.684   1.453  10.256 -0.1551  0.0345 -0.3042
   9723SM  H11F13178   4.649   1.543  10.201  0.3810 -0.9024 -2.2739
   9723SM  H11G13179   4.788   1.476  10.288 -0.0984 -1.3189  0.5415
   9723SM  C12F13180   4.594   1.422  10.384 -0.9771  0.4487  0.1946
   9723SM  H12F13181   4.633   1.327  10.426 -0.4379  1.6469  2.6144
   9723SM  H12G13182   4.487   1.420  10.354 -0.5647  0.4400 -1.3560
   9723SM  C13F13183   4.620   1.525  10.496 -0.2107  0.1947  0.4178
   9723SM  H13F13184   4.547   1.607  10.480 -2.0740 -1.7268 -1.7169
   9723SM  H13G13185   4.723   1.565  10.501 -0.7363  1.4947  1.4407
   9723SM  C14F13186   4.591   1.462  10.636  0.4808 -0.1648 -0.4611
   9723SM  H14F13187   4.667   1.387  10.666 -1.0972 -0.5037  3.2385
   9723SM  H14G13188   4.496   1.406  10.642  0.3278  0.1255 -0.1834
   9723SM  C15F13189   4.590   1.579  10.742  0.1418  0.3431  0.0295
   9723SM  H15F13190   4.528   1.662  10.701 -0.1737 -0.9636 -2.3548
   9723SM  H15G13191   4.696   1.610  10.734  0.3506 -0.0888  0.9821
   9723SM  C16F13192   4.540   1.536  10.881 -0.6018 -0.3259  0.2268
   9723SM  H16F13193   4.599   1.448  10.915  0.2504 -0.3014 -1.1014
   9723SM  H16G13194   4.435   1.502  10.886 -0.6563 -0.0774  0.8216
   9723SM  C17F13195   4.555   1.647  10.986 -0.2580 -0.5673  0.2806
   9723SM  H17F13196   4.533   1.745  10.937 -3.5182  0.8519  4.0049
   9723SM  H17G13197   4.664   1.654  11.007 -0.1729  2.5482 -0.6965
   9723SM  C18F13198   4.475   1.657  11.120 -0.0302  0.8768 -0.3045
   9723SM  H18F13199   4.369   1.674  11.093  0.5395  2.7660 -1.5629
   9723SM  H18G13200   4.516   1.749  11.168  2.9279  1.1064 -2.9355
   9723SM  C19F13201   4.486   1.525  11.196  0.8115  0.2555  0.0418
   9723SM  H19F13202   4.476   1.545  11.305 -0.9734  0.8649 -0.2081
   9723SM  H19G13203   4.589   1.483  11.191  0.2304 -1.1331 -0.9600
   9723SM  C20F13204   4.384   1.416  11.168  0.7543 -0.4751  0.1840
   9723SM  H20F13205   4.358   1.414  11.060  0.9477  0.0727  0.1226
   9723SM  H20G13206   4.288   1.441  11.216  1.4645 -2.0752  2.5925
   9723SM  C21F13207   4.397   1.275  11.213  0.0914  0.2196 -0.8788
   9723SM  H21F13208   4.471   1.278  11.295  0.8564  0.3182 -1.5556
   9723SM  H21G13209   4.448   1.205  11.143  0.7989 -2.0989  1.8092
   9723SM  C22F13210   4.270   1.204  11.279 -0.4937 -0.1875  0.0691
   9723SM  H22F13211   4.195   1.200  11.198  0.3013  1.7864 -0.8238
   9723SM  H22G13212   4.230   1.257  11.368 -0.8051 -1.0194  0.4413
   9723SM  C23F13213   4.301   1.060  11.321  0.4078 -1.0591 -0.4604
   9723SM  H23F13214   4.206   1.005  11.338  0.8804 -1.5416  0.7134
   9723SM  H23G13215   4.350   1.057  11.421 -1.1879 -0.0068  0.3955
   9723SM  H23H13216   4.365   1.013  11.243  0.3764  0.1662 -1.2510
   9823SM     N13217   0.516   6.411   9.210 -0.2471  0.0375 -0.1738
   9823SM   C1513218   0.555   6.554   9.233 -0.3029  0.3757 -0.0779
   9823SM  H15A13219   0.555   6.614   9.143 -0.7909 -2.3647 -2.0264
   9823SM  H15B13220   0.647   6.568   9.288  0.1786 -2.8020  0.1078
   9823SM  H15C13221   0.484   6.599   9.301  0.6206  1.8266 -0.0196
   9823SM   C1413222   0.614   6.364   9.105  0.1545 -0.4632  0.4215
   9823SM  H14A13223   0.630   6.428   9.020  0.7809 -2.5099 -1.0690
   9823SM  H14B13224   0.595   6.267   9.062  2.1643 -0.9391  0.4900
   9823SM  H14C13225   0.707   6.354   9.159  0.0638 -0.6517  0.5436
   9823SM   C1313226   0.547   6.330   9.335  0.0099 -0.3849 -0.1316
   9823SM  H13A13227   0.527   6.225   9.323 -0.6992 -0.1860 -0.7578
   9823SM  H13B13228   0.498   6.369   9.423 -1.1561  0.5676 -1.1638
   9823SM  H13C13229   0.650   6.345   9.363 -0.6652  1.5573  1.5653
   9823SM   C1213230   0.377   6.393   9.157  0.2786 -0.3903 -0.2008
   9823SM  H12A13231   0.317   6.401   9.247  0.9386 -1.8671  0.4002
   9823SM  H12B13232   0.350   6.294   9.125  0.7343 -0.1749 -1.2788
   9823SM   C1113233   0.316   6.491   9.051 -0.9878  0.3375 -0.2126
   9823SM  H11A13234   0.217   6.450   9.022 -0.2599  0.0316 -2.5086
   9823SM  H11B13235   0.386   6.480   8.965  1.8311  0.5495  1.9355
   9823SM     P13236   0.211   6.685   9.203 -0.3169 -0.3349 -0.2971
   9823SM   O1313237   0.251   6.827   9.210  0.1652 -0.2834 -0.2907
   9823SM   O1413238   0.071   6.648   9.176  0.0899  0.4530  0.8739
   9823SM   O1113239   0.261   6.620   9.342 -0.8917  0.2501  0.6294
   9823SM   O1213240   0.307   6.624   9.098 -0.3973 -0.3680  0.1342
   9823SM   C1S13241   0.150   6.593   9.431 -0.5644 -0.9028 -1.1085
   9823SM   H1S13242   0.076   6.530   9.376  0.2546 -2.0575 -0.9110
   9823SM   H1T13243   0.100   6.686   9.469  1.3234  0.2981 -1.4444
   9823SM    NF13244   0.066   6.487   9.633  1.2810  0.0138 -0.4988
   9823SM   HNF13245   0.034   6.555   9.699  2.2380  1.3445 -1.3620
   9823SM   C2S13246   0.189   6.522   9.560  0.4749  1.0046  0.5750
   9823SM   H2S13247   0.235   6.426   9.527 -0.5667 -0.6966  3.6374
   9823SM   C3S13248   0.300   6.604   9.632  0.4565 -0.1017  0.0871
   9823SM   H3S13249   0.238   6.688   9.670 -0.6755 -0.2818 -1.2626
   9823SM    O313250   0.406   6.654   9.553 -0.2400  0.3682 -0.2919
   9823SM   HO313251   0.389   6.624   9.464 -2.0547 -2.4806  0.8597
   9823SM   C4S13252   0.349   6.532   9.752  0.6410  0.5591  0.1650
   9823SM   H4S13253   0.383   6.431   9.726  0.7300  0.3675  1.0249
   9823SM   C5S13254   0.371   6.579   9.878 -0.6195 -0.8959  0.2884
   9823SM   H5S13255   0.357   6.685   9.902  1.9767 -0.9623  2.5324
   9823SM   C6S13256   0.437   6.500   9.988 -0.0325  0.0889 -0.2703
   9823SM   H6S13257   0.542   6.534  10.005  0.8243 -2.3782 -0.2300
   9823SM   H6T13258   0.446   6.391   9.971 -3.0686 -0.1578 -0.7341
   9823SM   C7S13259   0.357   6.515  10.127 -0.2266  0.4046 -0.0051
   9823SM   H7S13260   0.260   6.463  10.108 -0.4656  0.6273  0.6081
   9823SM   H7T13261   0.349   6.620  10.160 -0.3965 -0.0709  1.5556
   9823SM   C8S13262   0.435   6.444  10.226  0.2102  0.2154  0.3821
   9823SM   H8S13263   0.527   6.501  10.250 -0.3507  1.5692 -0.5852
   9823SM   H8T13264   0.463   6.346  10.181  0.1534  1.0075 -1.4203
   9823SM   C9S13265   0.355   6.435  10.353  0.3221  0.4011 -0.9394
   9823SM   H9S13266   0.277   6.356  10.350 -2.8689  3.1117  1.9775
   9823SM   H9T13267   0.303   6.531  10.371  1.6637  0.9510  0.2596
   9823SM  C10S13268   0.442   6.405  10.483  0.2308 -0.4345 -0.2544
   9823SM  H10S13269   0.529   6.474  10.480  1.3128 -1.7668 -0.4652
   9823SM  H10T13270   0.487   6.303  10.481 -0.0407 -0.5467 -1.3331
   9823SM  C11S13271   0.362   6.421  10.614  0.8955 -0.3731 -0.0907
   9823SM  H11S13272   0.272   6.359  10.631  0.6506 -0.4472 -1.5120
   9823SM  H11T13273   0.326   6.526  10.619  0.7501 -0.4635  0.9593
   9823SM  C12S13274   0.456   6.399  10.730  0.8304 -0.1706 -0.1497
   9823SM  H12S13275   0.559   6.429  10.698  0.6730  1.8103  1.0116
   9823SM  H12T13276   0.452   6.296  10.770  1.2402 -0.0516  0.2161
   9823SM  C13S13277   0.423   6.496  10.846  0.3078 -0.3540 -0.2730
   9823SM  H13S13278   0.312   6.506  10.855  0.3862 -0.1692  0.5010
   9823SM  H13T13279   0.458   6.600  10.831 -2.3109  0.8088  0.9476
   9823SM  C14S13280   0.483   6.457  10.978  0.2564 -0.2709 -1.2333
   9823SM  H14S13281   0.593   6.448  10.963  0.9392  2.9435  0.9508
   9823SM  H14T13282   0.444   6.358  11.010  3.1569 -0.7525  1.2037
   9823SM  C15S13283   0.474   6.567  11.086 -0.3476 -0.2602  0.2057
   9823SM  H15S13284   0.366   6.589  11.100 -0.7935 -1.5433 -1.0568
   9823SM  H15T13285   0.526   6.658  11.051  3.0566 -2.3286 -0.6660
   9823SM  C16S13286   0.551   6.538  11.217 -0.0486 -0.1017  0.7271
   9823SM  H16S13287   0.659   6.543  11.191  0.5809  0.8954  3.3199
   9823SM  H16T13288   0.531   6.434  11.251 -2.4325 -0.5041 -1.5583
   9823SM  C17S13289   0.525   6.644  11.321  0.4366 -0.0023 -0.5365
   9823SM  H17S13290   0.529   6.749  11.285 -0.1150  0.5311  0.8724
   9823SM  H17T13291   0.592   6.634  11.409 -0.0832 -0.8665 -0.2245
   9823SM  C18S13292   0.386   6.623  11.392 -0.3339 -0.3844  0.1823
   9823SM  H18S13293   0.315   6.687  11.336  0.2455 -1.2702 -1.6249
   9823SM  H18T13294   0.401   6.661  11.495  2.0926 -1.5934  0.3324
   9823SM  H18U13295   0.344   6.521  11.399 -0.5357 -0.3714 -0.7238
   9823SM   C1F13296  -0.025   6.391   9.612  0.7362 -0.4532 -0.2618
   9823SM    OF13297  -0.030   6.336   9.505 -0.4068  0.2875  0.2278
   9823SM   C2F13298  -0.127   6.345   9.721 -0.6871  0.1524  0.1389
   9823SM   H2F13299  -0.104   6.411   9.807  0.1180 -0.2263  0.2172
   9823SM   H2G13300  -0.102   6.239   9.744  0.4646  0.6369  1.1940
   9823SM   C3F13301  -0.267   6.370   9.677 -0.1270 -0.1722 -1.0669
   9823SM   H3F13302  -0.279   6.316   9.581 -0.1730  1.1694 -1.8386
   9823SM   H3G13303  -0.285   6.480   9.674  1.0184  0.0701 -0.2137
   9823SM   C4F13304  -0.371   6.295   9.771 -0.4891  0.2536 -0.1958
   9823SM   H4F13305  -0.335   6.191   9.785 -0.3528  0.4984  1.4892
   9823SM   H4G13306  -0.470   6.302   9.722 -0.4995 -1.9857 -0.6078
   9823SM   C5F13307  -0.396   6.356   9.916  0.1620  0.1087 -0.2270
   9823SM   H5F13308  -0.313   6.327   9.985 -0.9739 -1.8499  0.3813
   9823SM   H5G13309  -0.486   6.307   9.958  1.4199  1.2327  4.3762
   9823SM   C6F13310  -0.423   6.509   9.898 -0.1810  0.3383  0.2099
   9823SM   H6F13311  -0.488   6.524   9.809  2.3564  0.8132 -1.6986
   9823SM   H6G13312  -0.328   6.560   9.868  0.0239 -2.3879 -4.9825
   9823SM   C7F13313  -0.489   6.575  10.017 -0.7706  0.0283 -0.0608
   9823SM   H7F13314  -0.597   6.588   9.995 -1.0819 -1.2135  0.6367
   9823SM   H7G13315  -0.440   6.675  10.024 -1.1143  0.1582  0.6461
   9823SM   C8F13316  -0.467   6.505  10.150 -0.3779 -0.0624  0.1528
   9823SM   H8F13317  -0.357   6.501  10.166 -0.3164  1.0760  0.1024
   9823SM   H8G13318  -0.515   6.406  10.132 -1.1543 -0.3282  3.1888
   9823SM   C9F13319  -0.545   6.576  10.269 -0.2159 -0.4163 -0.0126
   9823SM   H9F13320  -0.526   6.511  10.356 -0.6430 -1.1329 -0.4469
   9823SM   H9G13321  -0.652   6.573  10.239  0.4522 -0.6854 -2.6785
   9823SM  C10F13322  -0.505   6.725  10.303 -0.0375  0.3736  0.7502
   9823SM  H10F13323  -0.486   6.770  10.204 -0.5957  0.4493  0.6798
   9823SM  H10G13324  -0.413   6.740  10.364 -0.9583  0.8369  2.0833
   9823SM  C11F13325  -0.616   6.791  10.380  0.6922  0.2514 -0.8296
   9823SM  H11F13326  -0.707   6.764  10.321  0.2059  1.8920 -0.8651
   9823SM  H11G13327  -0.611   6.902  10.377 -0.0315  0.2876 -1.0420
   9823SM  C12F13328  -0.638   6.731  10.517 -0.4247  0.4611 -0.3614
   9823SM  H12F13329  -0.618   6.622  10.516  1.2417  0.6916  1.7582
   9823SM  H12G13330  -0.743   6.756  10.541 -0.2241  0.3738  0.6599
   9823SM  C13F13331  -0.540   6.786  10.622  0.0201 -0.1348 -0.5014
   9823SM  H13F13332  -0.569   6.886  10.660  0.5902 -0.2790  0.3583
   9823SM  H13G13333  -0.439   6.783  10.576  0.5769 -0.6709  0.6979
   9823SM  C14F13334  -0.533   6.700  10.750 -0.1563  0.3484 -1.0844
   9823SM  H14F13335  -0.464   6.742  10.827 -0.0888 -0.6649 -0.5796
   9823SM  H14G13336  -0.506   6.594  10.735 -1.0945 -0.4842  2.1872
   9823SM  C15F13337  -0.666   6.694  10.828  0.2778 -0.2791  0.2219
   9823SM  H15F13338  -0.733   6.624  10.775  1.6237  0.9639 -3.3810
   9823SM  H15G13339  -0.694   6.802  10.833 -1.8156 -0.5847 -2.7434
   9823SM  C16F13340  -0.650   6.647  10.976  0.8740 -0.5602 -0.1723
   9823SM  H16F13341  -0.569   6.701  11.028 -1.0053 -0.1567  2.5322
   9823SM  H16G13342  -0.619   6.540  10.974  2.8299 -0.1095  1.7861
   9823SM  C17F13343  -0.782   6.659  11.042  0.1763  0.1016 -0.0385
   9823SM  H17F13344  -0.856   6.595  10.990  1.0166  0.2140 -1.3914
   9823SM  H17G13345  -0.813   6.766  11.044  0.4628  0.1807  0.4907
   9823SM  C18F13346  -0.781   6.610  11.190 -0.5358  0.9263 -0.4953
   9823SM  H18F13347  -0.766   6.500  11.181 -1.7558  0.6943  0.1929
   9823SM  H18G13348  -0.877   6.636  11.239  0.2574  2.4737  0.3304
   9823SM  C19F13349  -0.658   6.659  11.270  0.0855  0.5038  0.1493
   9823SM  H19F13350  -0.637   6.763  11.237  2.4118 -0.7082 -2.5905
   9823SM  H19G13351  -0.570   6.603  11.231 -0.1760  1.2039 -1.5351
   9823SM  C20F13352  -0.676   6.651  11.421  0.1059  0.8053 -0.2440
   9823SM  H20F13353  -0.776   6.682  11.458 -0.7389 -0.3375 -1.4673
   9823SM  H20G13354  -0.592   6.708  11.465 -0.7209  1.1862  0.8841
   9823SM  C21F13355  -0.666   6.507  11.470  0.3296 -0.6724  0.1975
   9823SM  H21F13356  -0.566   6.462  11.451  1.2412  1.9030 -1.8042
   9823SM  H21G13357  -0.741   6.452  11.411 -0.6125 -0.9095  1.5656
   9823SM  C22F13358  -0.703   6.491  11.618 -0.5786  0.1042 -0.3037
   9823SM  H22F13359  -0.811   6.516  11.620 -0.5610  0.1659  0.4349
   9823SM  H22G13360  -0.639   6.570  11.664 -1.1356  0.5924 -0.3630
   9823SM  C23F13361  -0.672   6.356  11.683 -0.2312  0.1617  0.1475
   9823SM  H23F13362  -0.715   6.277  11.618  2.6297 -0.2660 -1.4236
   9823SM  H23G13363  -0.713   6.355  11.786  2.6143 -1.6990  1.4148
   9823SM  H23H13364  -0.563   6.334  11.690 -0.2529 -0.0014 -0.0193
   9923SM     N13365   1.024   0.816   8.844 -0.1669 -0.0923 -0.2597
   9923SM   C1513366   0.898   0.782   8.921  0.1110 -0.3061  0.4570
   9923SM  H15A13367   0.839   0.706   8.872  1.5601 -1.4906  0.4609
   9923SM  H15B13368   0.832   0.866   8.931  0.6623  0.1336  0.4794
   9923SM  H15C13369   0.926   0.752   9.021  0.9931 -1.7794 -0.1864
   9923SM   C1413370   1.108   0.696   8.805  0.2218  0.4385 -0.2073
   9923SM  H14A13371   1.049   0.638   8.735 -0.5854 -0.1291  0.8969
   9923SM  H14B13372   1.138   0.642   8.894 -2.0636  0.3766  0.5907
   9923SM  H14C13373   1.201   0.730   8.763 -1.4162  1.3582 -3.4336
   9923SM   C1313374   0.985   0.881   8.719 -0.6626 -0.1983  0.2456
   9923SM  H13A13375   0.916   0.964   8.730 -0.6509 -0.4309  2.3565
   9923SM  H13B13376   0.944   0.811   8.648  0.4641 -2.4769  1.7104
   9923SM  H13C13377   1.075   0.917   8.670 -0.7044 -1.2463 -0.6501
   9923SM   C1213378   1.106   0.916   8.925  0.4276  0.5150 -1.0979
   9923SM  H12A13379   1.153   0.853   8.999 -2.9440 -0.1256  0.7298
   9923SM  H12B13380   1.035   0.977   8.979 -1.6995 -2.1802 -0.6131
   9923SM   C1113381   1.199   1.015   8.856  0.3268  0.3546 -0.5098
   9923SM  H11A13382   1.249   1.088   8.923  0.1602  0.3226 -0.3482
   9923SM  H11B13383   1.141   1.092   8.801 -1.8692  1.4290  2.9541
   9923SM     P13384   1.427   0.908   8.835 -0.0217  0.1062  0.0065
   9923SM   O1313385   1.491   0.807   8.751 -0.4486 -0.5211  0.1783
   9923SM   O1413386   1.521   1.020   8.868 -0.1206  0.7016  0.1799
   9923SM   O1113387   1.393   0.827   8.968  0.1755 -0.4817  0.4116
   9923SM   O1213388   1.296   0.956   8.770  0.4360  0.3526 -0.2588
   9923SM   C1S13389   1.502   0.762   9.032 -0.3066 -0.1890  0.0406
   9923SM   H1S13390   1.603   0.800   9.007  0.0531  0.1006  1.8374
   9923SM   H1T13391   1.499   0.656   8.999 -3.0007  0.1698 -1.1257
   9923SM    NF13392   1.610   0.715   9.254  0.5666  0.5469  0.0681
   9923SM   HNF13393   1.600   0.627   9.300  2.2599 -0.3940 -1.2095
   9923SM   C2S13394   1.492   0.773   9.186 -0.1082  0.0342 -0.1654
   9923SM   H2S13395   1.499   0.881   9.212  1.1905 -0.4037  1.4783
   9923SM   C3S13396   1.354   0.725   9.236  0.2075  0.5558 -0.1032
   9923SM   H3S13397   1.327   0.625   9.194  1.8964  0.6089 -1.4482
   9923SM    O313398   1.250   0.793   9.174 -0.1671  0.4485  0.0945
   9923SM   HO313399   1.297   0.840   9.104 -0.2621 -0.1311 -0.3577
   9923SM   C4S13400   1.338   0.743   9.380 -0.5952 -0.5232 -0.3612
   9923SM   H4S13401   1.328   0.849   9.410  2.8126 -0.9344  3.0689
   9923SM   C5S13402   1.322   0.656   9.478 -0.2088 -0.1464 -0.1378
   9923SM   H5S13403   1.324   0.548   9.461  0.4125 -0.2225  0.3665
   9923SM   C6S13404   1.308   0.689   9.623 -0.2120  0.3325 -0.0693
   9923SM   H6S13405   1.293   0.591   9.674  2.2367  0.1906  0.5291
   9923SM   H6T13406   1.214   0.746   9.637 -0.7463 -0.1042 -1.6553
   9923SM   C7S13407   1.439   0.752   9.681  0.5077 -0.6633  0.9684
   9923SM   H7S13408   1.443   0.851   9.632 -0.6238 -0.9325  0.2918
   9923SM   H7T13409   1.532   0.698   9.651 -0.7473 -0.7332 -3.4031
   9923SM   C8S13410   1.425   0.785   9.833  0.0800  0.3579  0.4318
   9923SM   H8S13411   1.431   0.685   9.881 -2.2902  0.1639  0.4574
   9923SM   H8T13412   1.323   0.817   9.864 -1.1718 -2.4507 -0.4844
   9923SM   C9S13413   1.519   0.891   9.875  0.6047  0.4017 -0.0868
   9923SM   H9S13414   1.499   0.986   9.820  0.7564  0.4181 -0.1144
   9923SM   H9T13415   1.626   0.877   9.848  1.0059  0.0632  1.5415
   9923SM  C10S13416   1.514   0.920  10.025  0.3399 -0.2111  0.5550
   9923SM  H10S13417   1.553   0.841  10.093 -0.5198 -0.1151  1.1866
   9923SM  H10T13418   1.408   0.930  10.057  0.4710  0.4802  0.7937
   9923SM  C11S13419   1.572   1.057  10.058  0.3081  0.7053  0.1335
   9923SM  H11S13420   1.494   1.125  10.016 -1.6309  0.7572  3.4927
   9923SM  H11T13421   1.666   1.084  10.004  1.2054 -2.0250  0.1691
   9923SM  C12S13422   1.590   1.079  10.210 -0.4018 -0.3859 -0.6709
   9923SM  H12S13423   1.657   1.001  10.251 -0.8186 -0.6924 -0.5686
   9923SM  H12T13424   1.491   1.080  10.259 -0.5016  1.4409 -0.8515
   9923SM  C13S13425   1.643   1.224  10.253 -1.1195  0.2579  0.0215
   9923SM  H13S13426   1.577   1.297  10.201  0.2937 -0.0866 -2.4219
   9923SM  H13T13427   1.748   1.235  10.216 -1.6655  1.5345 -1.2403
   9923SM  C14S13428   1.642   1.233  10.411  0.5319 -0.5382  0.6822
   9923SM  H14S13429   1.666   1.134  10.455 -2.8112 -2.9742 -2.4297
   9923SM  H14T13430   1.547   1.263  10.462  0.7052 -1.6251  1.6854
   9923SM  C15S13431   1.744   1.331  10.445 -0.3748  0.3129 -0.4658
   9923SM  H15S13432   1.715   1.425  10.392  0.5617  1.4624  0.9619
   9923SM  H15T13433   1.842   1.295  10.408 -0.8166 -1.1004 -0.3084
   9923SM  C16S13434   1.750   1.359  10.595  0.3284  0.0128 -1.0495
   9923SM  H16S13435   1.847   1.401  10.628 -0.4335  1.2392 -0.2892
   9923SM  H16T13436   1.741   1.268  10.659  1.8873  0.9004  0.5123
   9923SM  C17S13437   1.650   1.466  10.650 -0.0891 -0.0873 -0.5663
   9923SM  H17S13438   1.546   1.432  10.628 -0.7728  0.7118  1.2477
   9923SM  H17T13439   1.663   1.559  10.591 -1.1842  1.1234  1.0140
   9923SM  C18S13440   1.667   1.484  10.801 -0.5271  0.3642  0.2487
   9923SM  H18S13441   1.585   1.443  10.863  0.3121 -1.6750  0.0696
   9923SM  H18T13442   1.689   1.590  10.829 -2.1387  0.2475  2.1578
   9923SM  H18U13443   1.761   1.432  10.831 -0.5254  0.8447  1.1254
   9923SM   C1F13444   1.737   0.770   9.239  0.1946 -0.3248 -0.6994
   9923SM    OF13445   1.755   0.888   9.205 -0.1671  1.1276 -0.1204
   9923SM   C2F13446   1.855   0.681   9.263 -0.1281 -0.1205  0.2145
   9923SM   H2F13447   1.932   0.699   9.185 -0.0112 -1.0292  0.1017
   9923SM   H2G13448   1.818   0.576   9.260  0.0195 -0.1520 -1.0241
   9923SM   C3F13449   1.928   0.702   9.403 -0.6387  0.0894 -0.2124
   9923SM   H3F13450   1.932   0.812   9.422  0.5107  0.3026 -1.5816
   9923SM   H3G13451   2.032   0.665   9.393  0.3354  2.8960 -1.8309
   9923SM   C4F13452   1.848   0.634   9.521  0.5527 -0.2465  0.2369
   9923SM   H4F13453   1.815   0.531   9.496 -1.3637  0.4046 -0.1002
   9923SM   H4G13454   1.756   0.693   9.542  0.5648  0.6566 -1.9310
   9923SM   C5F13455   1.925   0.638   9.658 -0.0126 -0.2358 -0.0493
   9923SM   H5F13456   1.969   0.740   9.661  2.7346 -1.3462 -0.3010
   9923SM   H5G13457   2.004   0.561   9.655  1.0844  0.8610 -0.0102
   9923SM   C6F13458   1.831   0.621   9.786 -0.1999 -0.9105  0.3360
   9923SM   H6F13459   1.754   0.543   9.769 -1.3574 -0.2052  2.1299
   9923SM   H6G13460   1.777   0.718   9.788 -0.8050 -1.2135 -0.7678
   9923SM   C7F13461   1.922   0.609   9.912  0.6793 -0.5800  0.5843
   9923SM   H7F13462   2.010   0.677   9.903  1.8080 -2.1380 -0.7107
   9923SM   H7G13463   1.974   0.511   9.918  0.0699 -1.0789 -1.3738
   9923SM   C8F13464   1.833   0.636  10.036  0.0556  0.4987  0.5112
   9923SM   H8F13465   1.748   0.564  10.041 -0.4738  1.1206  0.6017
   9923SM   H8G13466   1.786   0.733  10.009  0.8034  0.7798  0.2043
   9923SM   C9F13467   1.910   0.636  10.169  0.8079  0.1684  0.7504
   9923SM   H9F13468   1.984   0.719  10.174 -1.1227  2.3020 -2.1517
   9923SM   H9G13469   1.960   0.537  10.170 -0.4722 -0.5376 -0.5595
   9923SM  C10F13470   1.809   0.656  10.284  0.0782  0.9602  0.3722
   9923SM  H10F13471   1.718   0.591  10.283  0.7282  0.0366 -0.3269
   9923SM  H10G13472   1.784   0.763  10.296 -0.8152  0.7971  0.0225
   9923SM  C11F13473   1.874   0.621  10.419 -0.7639 -0.4151 -0.0960
   9923SM  H11F13474   1.827   0.688  10.494  1.0596  0.3534  0.4415
   9923SM  H11G13475   1.976   0.665  10.416 -1.0088  0.2509  0.7811
   9923SM  C12F13476   1.868   0.478  10.466 -0.5020 -0.4206  0.3569
   9923SM  H12F13477   1.931   0.420  10.395 -0.8926 -0.0190 -0.3284
   9923SM  H12G13478   1.766   0.438  10.454  0.1314 -1.4403 -2.2371
   9923SM  C13F13479   1.921   0.474  10.612 -0.2439  0.2878  0.7968
   9923SM  H13F13480   2.017   0.529  10.619  0.3400 -0.7532  1.2306
   9923SM  H13G13481   1.947   0.368  10.634 -1.9044 -0.1900  0.5663
   9923SM  C14F13482   1.817   0.522  10.704  0.2945  0.1337  0.0079
   9923SM  H14F13483   1.722   0.463  10.704 -0.3176  1.0902  1.3104
   9923SM  H14G13484   1.791   0.628  10.685 -0.6081 -0.2117 -0.7650
   9923SM  C15F13485   1.872   0.513  10.846 -0.3727  0.8124  0.8345
   9923SM  H15F13486   1.977   0.548  10.844 -0.7089  1.8795 -1.1297
   9923SM  H15G13487   1.883   0.406  10.873  0.0218  0.7328  0.3732
   9923SM  C16F13488   1.787   0.585  10.949 -0.1513  0.4701 -0.4759
   9923SM  H16F13489   1.696   0.531  10.982  0.3377  0.2786  0.6152
   9923SM  H16G13490   1.733   0.669  10.901 -0.5950 -0.2463 -1.2531
   9923SM  C17F13491   1.865   0.621  11.082 -0.2176  0.2683  0.3716
   9923SM  H17F13492   1.967   0.657  11.056  1.0940 -0.8987  3.4515
   9923SM  H17G13493   1.892   0.522  11.126 -1.8753 -0.6939 -0.7008
   9923SM  C18F13494   1.783   0.713  11.178 -0.4566 -0.3388  0.1431
   9923SM  H18F13495   1.686   0.666  11.206 -0.4725 -1.5760 -1.8271
   9923SM  H18G13496   1.759   0.802  11.115 -0.9651  1.2528  2.4643
   9923SM  C19F13497   1.865   0.773  11.286  0.2317 -0.3187 -0.5146
   9923SM  H19F13498   1.950   0.829  11.241 -0.4875  0.3094 -1.1183
   9923SM  H19G13499   1.900   0.691  11.352  1.1613  0.6835  0.2854
   9923SM  C20F13500   1.782   0.871  11.371  0.0703 -0.5521  0.4095
   9923SM  H20F13501   1.849   0.929  11.438  1.1738  0.6768 -1.6222
   9923SM  H20G13502   1.713   0.809  11.432  1.2935 -1.7706  0.6055
   9923SM  C21F13503   1.702   0.988  11.300  0.2710 -0.0910  0.3071
   9923SM  H21F13504   1.654   1.064  11.366  0.7742 -0.6405  1.3277
   9923SM  H21G13505   1.618   0.947  11.240 -0.9007  2.2926  0.2265
   9923SM  C22F13506   1.802   1.078  11.217  0.7964  0.7506 -0.1326
   9923SM  H22F13507   1.854   1.018  11.139  0.9351  0.3199  0.2856
   9923SM  H22G13508   1.883   1.122  11.279  0.6449 -0.6126  1.0691
   9923SM  C23F13509   1.725   1.198  11.151  0.0812 -0.1477 -0.1836
   9923SM  H23F13510   1.635   1.161  11.097 -1.3234  0.5472  1.5663
   9923SM  H23G13511   1.799   1.237  11.078  0.9126 -0.3621  0.5148
   9923SM  H23H13512   1.697   1.273  11.228 -1.2444 -0.4869 -0.3219
  10023SM     N13513   6.505   0.676   9.203 -0.0892 -0.2176  0.1341
  10023SM   C1513514   6.441   0.557   9.138 -0.4020  0.1603  0.5374
  10023SM  H15A13515   6.520   0.496   9.098  0.7187  2.4247 -0.9087
  10023SM  H15B13516   6.382   0.584   9.052 -0.3047  1.5082  0.8602
  10023SM  H15C13517   6.385   0.505   9.214 -0.7678 -0.3320 -0.0609
  10023SM   C1413518   6.575   0.760   9.101  0.0781 -0.1712  0.3339
  10023SM  H14A13519   6.661   0.705   9.067  0.5466 -1.6386  3.4977
  10023SM  H14B13520   6.615   0.848   9.150 -0.8027  0.1310  0.5230
  10023SM  H14C13521   6.505   0.791   9.025  1.6416  1.3696 -0.5749
  10023SM   C1313522   6.396   0.756   9.274 -0.0118 -0.9045  0.0462
  10023SM  H13A13523   6.318   0.779   9.203  0.5340 -1.6009 -0.8012
  10023SM  H13B13524   6.436   0.838   9.331  0.8208 -1.7040  0.6331
  10023SM  H13C13525   6.342   0.700   9.349 -0.0297  0.9180  1.4660
  10023SM   C1213526   6.609   0.621   9.303  0.5362  0.2107 -0.0270
  10023SM  H12A13527   6.571   0.553   9.378 -1.5688  1.8930  0.5065
  10023SM  H12B13528   6.651   0.708   9.353  1.1795 -0.2277  0.2166
  10023SM   C1113529   6.733   0.563   9.235 -0.1279  0.3760  0.4305
  10023SM  H11A13530   6.705   0.483   9.162  0.3833  0.4051  0.1948
  10023SM  H11B13531   6.786   0.508   9.315  1.4192 -2.3116 -2.2258
  10023SM     P13532   6.972   0.645   9.172 -0.1380  0.0030  0.0418
  10023SM   O1313533   7.002   0.502   9.157 -0.1951 -0.4519  0.2865
  10023SM   O1413534   7.031   0.727   9.067 -0.1884 -0.3278  0.1187
  10023SM   O1113535   7.010   0.702   9.311  0.1674 -0.1105  0.2333
  10023SM   O1213536   6.813   0.661   9.177 -0.3428 -0.1283  0.1357
  10023SM   C1S13537   6.959   0.836   9.343  0.3820  0.0694  0.2088
  10023SM   H1S13538   6.854   0.827   9.377  0.4460  4.5508  2.2003
  10023SM   H1T13539   6.957   0.908   9.259 -1.9839  0.1852  0.3168
  10023SM    NF13540   6.986   1.006   9.526 -0.5508 -0.2926  0.1219
  10023SM   HNF13541   7.026   1.094   9.502 -0.5151 -0.4680 -0.4739
  10023SM   C2S13542   7.042   0.885   9.457  0.2821 -0.1267 -0.1403
  10023SM   H2S13543   7.042   0.804   9.533  2.7458  0.4187  0.5322
  10023SM   C3S13544   7.189   0.911   9.412  0.0120 -0.7814 -0.3939
  10023SM   H3S13545   7.178   0.999   9.345 -1.3843 -1.2932 -0.8797
  10023SM    O313546   7.247   0.812   9.328  0.5858 -0.4208  0.5590
  10023SM   HO313547   7.172   0.757   9.305  0.7170 -0.3289 -0.1210
  10023SM   C4S13548   7.271   0.956   9.530  0.0967 -0.7932 -0.0118
  10023SM   H4S13549   7.284   1.065   9.543  0.4495 -0.9380  0.9131
  10023SM   C5S13550   7.329   0.877   9.616 -0.6473 -0.5179  0.0882
  10023SM   H5S13551   7.325   0.768   9.604  0.8568 -0.9542  2.8943
  10023SM   C6S13552   7.413   0.924   9.736 -0.4231  0.4620 -0.6429
  10023SM   H6S13553   7.458   1.020   9.702 -0.3603  1.3707  1.8137
  10023SM   H6T13554   7.500   0.856   9.749 -1.5994 -0.9842  0.0966
  10023SM   C7S13555   7.331   0.941   9.866  0.4674  0.1557 -0.1314
  10023SM   H7S13556   7.290   0.841   9.892 -1.0006  0.5813 -0.7197
  10023SM   H7T13557   7.243   1.008   9.852  1.0696  0.7485 -1.2062
  10023SM   C8S13558   7.429   0.984   9.981 -0.3372  0.0249  0.1841
  10023SM   H8S13559   7.488   1.075   9.958  0.3496 -0.0532  1.5632
  10023SM   H8T13560   7.509   0.910  10.002  0.2720  0.4354 -0.6469
  10023SM   C9S13561   7.363   1.009  10.113 -0.2565  0.3222  0.0985
  10023SM   H9S13562   7.311   0.916  10.147  1.6101 -0.7065  0.2668
  10023SM   H9T13563   7.295   1.097  10.105 -1.1551 -0.1425  1.9784
  10023SM  C10S13564   7.467   1.038  10.221 -0.1102  0.6069 -0.5807
  10023SM  H10S13565   7.518   1.129  10.183 -2.0529  1.4537 -1.2403
  10023SM  H10T13566   7.545   0.958  10.214  0.8133  1.4351 -0.0806
  10023SM  C11S13567   7.402   1.067  10.358 -0.1025  0.3965  0.4640
  10023SM  H11S13568   7.332   0.984  10.381 -0.3390  0.8466  1.4233
  10023SM  H11T13569   7.342   1.160  10.349  1.6513  1.6501  1.1964
  10023SM  C12S13570   7.522   1.089  10.450 -0.2577  0.0906 -0.4229
  10023SM  H12S13571   7.582   1.180  10.424 -2.2663  1.8286  0.7077
  10023SM  H12T13572   7.584   0.997  10.443 -0.3656 -0.0173  0.0164
  10023SM  C13S13573   7.486   1.114  10.593 -0.7817 -0.2357 -0.4418
  10023SM  H13S13574   7.422   1.032  10.632 -4.0908  2.6825  0.7532
  10023SM  H13T13575   7.418   1.201  10.596  1.1900  1.3786 -0.7537
  10023SM  C14S13576   7.610   1.136  10.679 -0.2835 -0.3658 -1.3197
  10023SM  H14S13577   7.673   1.214  10.631 -2.2116  1.0854 -1.6469
  10023SM  H14T13578   7.676   1.047  10.683  0.8665  0.4658  1.5132
  10023SM  C15S13579   7.581   1.172  10.829 -1.3048 -0.0884 -0.2907
  10023SM  H15S13580   7.520   1.264  10.841 -1.5268 -0.1939 -0.6062
  10023SM  H15T13581   7.677   1.187  10.883 -0.4478  0.3607 -1.8712
  10023SM  C16S13582   7.513   1.053  10.903  0.6256 -0.7025  0.0058
  10023SM  H16S13583   7.554   0.955  10.868  3.2178 -0.4287  1.9840
  10023SM  H16T13584   7.402   1.056  10.896  0.7316  1.3395 -1.9924
  10023SM  C17S13585   7.540   1.063  11.056 -0.0134 -0.5303  0.1191
  10023SM  H17S13586   7.650   1.051  11.069  0.4783  0.9773 -2.0323
  10023SM  H17T13587   7.483   0.985  11.111 -0.3189  0.3808  1.1192
  10023SM  C18S13588   7.493   1.197  11.129 -0.1989 -0.3470  0.7533
  10023SM  H18S13589   7.398   1.234  11.085 -0.0393  0.3463  0.9845
  10023SM  H18T13590   7.575   1.268  11.108 -1.4246  1.3653  1.5372
  10023SM  H18U13591   7.498   1.193  11.240  1.9209  1.9492  0.8202
  10023SM   C1F13592   6.873   1.017   9.596  0.1768  0.0190  0.3443
  10023SM    OF13593   6.804   0.914   9.622 -0.5712 -0.3795  0.4113
  10023SM   C2F13594   6.830   1.156   9.636 -0.2628  0.2378  0.4022
  10023SM   H2F13595   6.749   1.188   9.567 -0.6984  1.4442  1.4493
  10023SM   H2G13596   6.911   1.232   9.641  0.5212 -0.4799 -0.6868
  10023SM   C3F13597   6.753   1.151   9.764  0.1412 -0.4857 -0.1364
  10023SM   H3F13598   6.815   1.135   9.855 -0.2684  0.7986  0.3841
  10023SM   H3G13599   6.683   1.065   9.765 -2.1350  1.2837 -0.5651
  10023SM   C4F13600   6.670   1.279   9.792 -0.0905 -0.4568  0.6705
  10023SM   H4F13601   6.591   1.299   9.716  1.9105  0.2769 -1.3351
  10023SM   H4G13602   6.746   1.359   9.802  1.2353 -1.8500  2.3390
  10023SM   C5F13603   6.598   1.264   9.928 -0.0958  0.3660 -0.4294
  10023SM   H5F13604   6.677   1.253  10.006 -0.8120 -2.1182  0.0391
  10023SM   H5G13605   6.535   1.172   9.926  0.2003  0.1345  0.4040
  10023SM   C6F13606   6.533   1.392   9.964  0.8367 -0.2553  0.3244
  10023SM   H6F13607   6.467   1.420   9.879  2.1046 -1.7606 -1.2262
  10023SM   H6G13608   6.606   1.477   9.965  1.9766 -1.1600 -1.4060
  10023SM   C7F13609   6.475   1.384  10.109  0.0758 -0.8474  1.3089
  10023SM   H7F13610   6.403   1.300  10.117 -0.0848 -0.7865  0.6017
  10023SM   H7G13611   6.416   1.479  10.111 -0.7188 -1.2531 -0.6004
  10023SM   C8F13612   6.563   1.378  10.231 -0.0128  0.5381  0.0721
  10023SM   H8F13613   6.634   1.461  10.251  1.1978 -0.2291 -0.9254
  10023SM   H8G13614   6.630   1.291  10.217  0.1101  0.8045 -1.1836
  10023SM   C9F13615   6.477   1.365  10.352  0.4241 -0.4828 -0.3769
  10023SM   H9F13616   6.415   1.273  10.347 -0.3050 -0.2528  2.4621
  10023SM   H9G13617   6.415   1.457  10.360  2.4384  0.7669  2.4401
  10023SM  C10F13618   6.549   1.352  10.490 -0.0171  0.2475  0.1557
  10023SM  H10F13619   6.620   1.267  10.486  0.7518  0.7920  1.5537
  10023SM  H10G13620   6.471   1.313  10.559 -0.3608 -1.1477 -0.9746
  10023SM  C11F13621   6.597   1.481  10.557 -0.2111  0.0030  0.0408
  10023SM  H11F13622   6.514   1.554  10.556  1.5625  2.1355  0.0738
  10023SM  H11G13623   6.683   1.521  10.499  0.8037  0.5955  1.8767
  10023SM  C12F13624   6.638   1.452  10.702  0.5742  0.2029 -0.1455
  10023SM  H12F13625   6.697   1.539  10.738 -2.7874  2.1947  1.0440
  10023SM  H12G13626   6.704   1.362  10.707 -1.4831 -1.4250 -0.8310
  10023SM  C13F13627   6.522   1.433  10.802 -0.2001  0.1046 -0.5547
  10023SM  H13F13628   6.465   1.343  10.770 -0.4531  0.6286 -1.6475
  10023SM  H13G13629   6.452   1.518  10.788  0.0506  0.3426 -0.3695
  10023SM  C14F13630   6.554   1.421  10.956  0.9095 -0.6181 -0.3865
  10023SM  H14F13631   6.458   1.447  11.005  1.3831 -0.1632  0.3242
  10023SM  H14G13632   6.633   1.491  10.989  0.9599 -0.6593 -0.4208
  10023SM  C15F13633   6.603   1.284  11.006  0.7441  0.0321  0.3928
  10023SM  H15F13634   6.704   1.275  10.960  0.3607  1.7765 -0.9082
  10023SM  H15G13635   6.532   1.201  10.986  1.9566 -0.9768  0.1448
  10023SM  C16F13636   6.614   1.284  11.158  0.0202  0.0486  0.0663
  10023SM  H16F13637   6.669   1.376  11.185  1.0891 -0.4397 -0.3678
  10023SM  H16G13638   6.672   1.191  11.178 -0.4763 -0.8535 -2.3122
  10023SM  C17F13639   6.489   1.277  11.241 -0.0625 -0.0989 -0.2675
  10023SM  H17F13640   6.432   1.185  11.214  0.3955 -0.8168  1.1099
  10023SM  H17G13641   6.428   1.368  11.225 -0.9900 -1.0722 -2.6887
  10023SM  C18F13642   6.527   1.261  11.390 -0.4968 -0.2530  0.2478
  10023SM  H18F13643   6.596   1.346  11.412  1.1720 -1.5423  0.2475
  10023SM  H18G13644   6.591   1.171  11.402 -3.1822 -2.3446 -0.1208
  10023SM  C19F13645   6.400   1.253  11.481 -0.0152  0.1422 -0.2821
  10023SM  H19F13646   6.367   1.356  11.502  0.7510  0.1598  0.9449
  10023SM  H19G13647   6.432   1.201  11.574 -0.6783 -0.8499 -0.5919
  10023SM  C20F13648   6.281   1.171  11.414 -0.5142  0.2618 -0.2403
  10023SM  H20F13649   6.325   1.073  11.386 -2.9320 -0.8192 -0.5165
  10023SM  H20G13650   6.241   1.226  11.326  0.0169 -1.0108 -1.3028
  10023SM  C21F13651   6.160   1.170  11.511  0.3069  1.0996 -0.7907
  10023SM  H21F13652   6.099   1.262  11.503 -1.0506  0.6171  2.3975
  10023SM  H21G13653   6.209   1.175  11.610  0.2188  0.6550 -0.7242
  10023SM  C22F13654   6.065   1.053  11.492 -0.0767 -0.3964  0.6824
  10023SM  H22F13655   6.001   1.053  11.583  0.3526  0.3504  0.9890
  10023SM  H22G13656   6.123   0.960  11.474  0.4264 -0.0115  0.2644
  10023SM  C23F13657   5.977   1.073  11.371 -0.3328 -0.4895 -0.2354
  10023SM  H23F13658   5.937   1.175  11.352 -0.2764 -0.2013  1.1192
  10023SM  H23G13659   5.886   1.009  11.372 -0.4701 -0.3136 -0.8254
  10023SM  H23H13660   6.040   1.036  11.287  1.4248 -2.0129  1.6400
  101CHL1    C313661   5.463   5.508  12.916  0.1270  0.4871  0.4705
  101CHL1    H313662   5.503   5.609  12.894  0.5679  0.9143  2.8615
  101CHL1    O313663   5.525   5.474  13.037  0.0162  0.0918  1.1040
  101CHL1   H3'13664   5.478   5.530  13.100 -0.5565  0.5664  0.2731
  101CHL1    C413665   5.313   5.518  12.946  0.3988  0.1259  0.2103
  101CHL1   H4A13666   5.284   5.420  12.988  1.4262  0.1741  1.0726
  101CHL1   H4B13667   5.291   5.582  13.034  0.8986 -1.0595  1.2157
  101CHL1    C513668   5.238   5.558  12.821  0.3257  1.1740  0.1727
  101CHL1    C613669   5.164   5.667  12.803 -0.0491  0.6326  0.3261
  101CHL1    H613670   5.162   5.742  12.884  2.3081  0.6547  0.4141
  101CHL1    C713671   5.082   5.702  12.685  0.1071 -0.0996 -0.5738
  101CHL1   H7A13672   4.983   5.745  12.712  0.3038 -0.8750  1.6712
  101CHL1   H7B13673   5.130   5.781  12.624  0.4668  0.2056  0.0887
  101CHL1    C813674   5.062   5.577  12.597  0.9464 -0.3517 -0.2627
  101CHL1    H813675   4.986   5.522  12.656  0.9347  0.1967  0.2379
  101CHL1   C1413676   5.002   5.606  12.461 -0.1919  0.6384  0.0149
  101CHL1   H1413677   5.069   5.680  12.412 -0.3419  0.6587 -0.1616
  101CHL1   C1513678   4.867   5.672  12.456  0.4723  0.6586  0.2572
  101CHL1  H15A13679   4.789   5.609  12.504  1.0286  0.5602  1.0334
  101CHL1  H15B13680   4.865   5.772  12.506 -1.3792  1.1906 -0.7830
  101CHL1   C1613681   4.832   5.688  12.307 -0.1796 -0.0363 -0.6439
  101CHL1  H16A13682   4.723   5.677  12.288 -0.1575 -0.5480 -0.5017
  101CHL1  H16B13683   4.849   5.793  12.277  1.6177  0.4641  1.8482
  101CHL1   C1713684   4.925   5.588  12.236 -0.3784  0.2735 -0.3134
  101CHL1   H1713685   5.011   5.632  12.181  1.0471 -1.9683  0.0143
  101CHL1   C1313686   4.984   5.500  12.355  0.8617  0.4932 -0.1690
  101CHL1   C1813687   4.897   5.383  12.407  0.3313 -0.4525 -0.5671
  101CHL1  H18A13688   4.940   5.337  12.498  2.5340 -0.7170 -1.6605
  101CHL1  H18B13689   4.792   5.417  12.421  0.3111 -1.2516  1.5307
  101CHL1  H18C13690   4.889   5.297  12.338 -2.7939 -1.3969  0.7970
  101CHL1   C1213691   5.123   5.439  12.333  0.2067  0.1799 -0.4824
  101CHL1  H12A13692   5.131   5.351  12.265  2.3592  0.4607 -0.6511
  101CHL1  H12B13693   5.197   5.513  12.298  0.2278 -0.8766 -2.8436
  101CHL1   C1113694   5.187   5.394  12.469  0.2801 -0.0858 -0.3132
  101CHL1  H11A13695   5.139   5.303  12.511 -0.8342  0.0295 -1.3030
  101CHL1  H11B13696   5.291   5.364  12.443  0.8143 -0.9519  2.4717
  101CHL1    C913697   5.186   5.495  12.580 -0.5680 -0.3824 -0.2204
  101CHL1    H913698   5.270   5.563  12.554  0.8481 -1.2827  1.6693
  101CHL1   C1013699   5.244   5.444  12.718  0.0094  0.3960 -0.1422
  101CHL1   C1913700   5.160   5.322  12.769  0.0490  0.7211 -0.1185
  101CHL1  H19A13701   5.052   5.341  12.756 -0.2386  0.1425  1.2372
  101CHL1  H19B13702   5.183   5.235  12.704  1.6959  0.4900  0.7034
  101CHL1  H19C13703   5.182   5.302  12.876  0.8215  0.8770 -0.2423
  101CHL1    C113704   5.395   5.402  12.692 -0.8579 -0.2437  0.1245
  101CHL1   H1A13705   5.396   5.302  12.645 -0.3397 -0.4858  0.6401
  101CHL1   H1B13706   5.442   5.483  12.632 -3.2505  2.5689  1.7629
  101CHL1    C213707   5.487   5.401  12.810 -1.0546  0.1685 -0.8762
  101CHL1   H2A13708   5.588   5.403  12.763  0.5709  0.2396  2.3272
  101CHL1   H2B13709   5.494   5.300  12.855  2.6241  0.0355 -1.3973
  101CHL1   C2013710   4.849   5.524  12.116 -0.5257 -0.7186  0.0278
  101CHL1   H2013711   4.753   5.480  12.152 -0.3961  0.5320  2.0370
  101CHL1   C2113712   4.928   5.425  12.033  0.4096 -0.7386 -0.3822
  101CHL1  H21A13713   4.969   5.342  12.095  2.7930  0.9021  0.3965
  101CHL1  H21B13714   5.009   5.476  11.976 -0.7578  2.2356  0.4174
  101CHL1  H21C13715   4.865   5.367  11.962 -0.5409  1.6315 -1.5783
  101CHL1   C2213716   4.810   5.644  12.024  0.2297  0.1208  0.1615
  101CHL1  H22A13717   4.721   5.704  12.052  1.4188  2.7879 -1.4748
  101CHL1  H22B13718   4.897   5.706  11.998  0.2122  0.7627  1.5421
  101CHL1   C2313719   4.743   5.608  11.880 -0.3601 -0.1037 -0.2514
  101CHL1  H23A13720   4.825   5.566  11.818 -0.1136 -1.5028  0.9706
  101CHL1  H23B13721   4.671   5.528  11.910  0.1155  0.2317  1.8711
  101CHL1   C2413722   4.656   5.711  11.808 -0.1313 -0.3398  0.3094
  101CHL1  H24A13723   4.587   5.664  11.734 -1.1518 -2.4003  2.4291
  101CHL1  H24B13724   4.585   5.756  11.881  0.2570 -3.1879  2.6328
  101CHL1   C2513725   4.740   5.828  11.747  0.4312  0.6640  0.3536
  101CHL1   H2513726   4.802   5.869  11.829  0.3445 -0.3688  0.9571
  101CHL1   C2613727   4.833   5.771  11.642 -0.0268 -0.0874 -0.3496
  101CHL1  H26A13728   4.902   5.699  11.691 -0.3349  0.0177  0.2486
  101CHL1  H26B13729   4.777   5.705  11.573  0.6119 -1.5165  0.4529
  101CHL1  H26C13730   4.894   5.854  11.601 -1.9603  1.2505 -0.6436
  101CHL1   C2713731   4.635   5.923  11.689 -0.3225  0.3034  0.5312
  101CHL1  H27A13732   4.586   5.872  11.603 -1.3475  2.5736 -0.3220
  101CHL1  H27B13733   4.550   5.948  11.756  0.3524 -0.4004  1.6693
  101CHL1  H27C13734   4.673   6.024  11.661  0.3629  0.1192  0.7794
  102CHL1    C313735   2.400   5.086  13.219  0.2999 -0.4338 -0.5890
  102CHL1    H313736   2.459   5.180  13.219 -0.7909  0.2765 -0.2847
  102CHL1    O313737   2.388   5.041  13.348 -0.4072  0.8133  0.1745
  102CHL1   H3'13738   2.330   4.965  13.338 -0.1289  0.6209  0.0036
  102CHL1    C413739   2.259   5.117  13.151 -0.5861 -0.2483 -0.5056
  102CHL1   H4A13740   2.203   5.021  13.145  2.3347 -2.3644  2.4184
  102CHL1   H4B13741   2.199   5.182  13.219  0.1166 -0.7174  0.5938
  102CHL1    C513742   2.282   5.161  13.015 -0.3519 -0.0938 -0.0422
  102CHL1    C613743   2.221   5.276  12.986 -0.0724 -0.3762  0.8180
  102CHL1    H613744   2.165   5.335  13.060 -0.3404  0.5405 -0.0901
  102CHL1    C713745   2.208   5.334  12.848 -0.6275  0.2062 -0.0250
  102CHL1   H7A13746   2.105   5.374  12.830 -0.5940  0.5544  0.5332
  102CHL1   H7B13747   2.276   5.421  12.838 -0.8292  0.6380  1.9716
  102CHL1    C813748   2.261   5.226  12.738 -0.1856  0.2479 -0.5886
  102CHL1    H813749   2.182   5.148  12.728 -0.2860  0.3432 -0.5436
  102CHL1   C1413750   2.287   5.293  12.603  0.0876  0.1126 -0.5209
  102CHL1   H1413751   2.352   5.382  12.618  1.1061 -0.8983  1.5557
  102CHL1   C1513752   2.168   5.353  12.540 -0.2387 -0.2472 -0.6458
  102CHL1  H15A13753   2.082   5.282  12.534  1.7812 -2.9076 -0.1678
  102CHL1  H15B13754   2.137   5.450  12.584  1.3616  0.3737 -0.8513
  102CHL1   C1613755   2.220   5.379  12.398  0.0535  0.4660 -0.3286
  102CHL1  H16A13756   2.136   5.352  12.332 -0.2833  0.6327  0.0274
  102CHL1  H16B13757   2.234   5.490  12.396 -0.2854  0.5283  0.4123
  102CHL1   C1713758   2.348   5.300  12.378  0.3743 -0.2223  0.0955
  102CHL1   H1713759   2.433   5.372  12.385  1.8301 -1.6940 -1.5164
  102CHL1   C1313760   2.354   5.208  12.497  0.2684  0.4050  0.1469
  102CHL1   C1813761   2.273   5.080  12.480 -0.5200  0.6133 -0.5347
  102CHL1  H18A13762   2.315   5.001  12.414 -0.2433 -0.0925  0.4540
  102CHL1  H18B13763   2.255   5.027  12.576 -1.6225 -0.9613 -1.5693
  102CHL1  H18C13764   2.179   5.115  12.432  0.1080  2.9553 -0.1878
  102CHL1   C1213765   2.496   5.173  12.554 -0.2177 -0.1828  0.3208
  102CHL1  H12A13766   2.549   5.120  12.472 -0.7547  1.4656 -1.1530
  102CHL1  H12B13767   2.568   5.257  12.571  1.2105 -1.6007  1.6604
  102CHL1   C1113768   2.477   5.093  12.686  0.5296  0.1513  0.1646
  102CHL1  H11A13769   2.439   4.989  12.674  0.9053  0.0002  0.2698
  102CHL1  H11B13770   2.582   5.075  12.719 -0.3807 -0.2876  3.0790
  102CHL1    C913771   2.388   5.158  12.795 -0.5857 -0.7923 -0.1306
  102CHL1    H913772   2.455   5.238  12.831 -0.1157  0.4806 -3.4666
  102CHL1   C1013773   2.358   5.073  12.922  0.2968  0.2668  0.3194
  102CHL1   C1913774   2.270   4.945  12.876 -0.1515 -0.3093 -0.3547
  102CHL1  H19A13775   2.171   4.977  12.838  0.3480 -0.4454 -1.8588
  102CHL1  H19B13776   2.314   4.885  12.793 -1.4802 -2.1084  0.2072
  102CHL1  H19C13777   2.247   4.877  12.960  0.4240 -1.3225 -1.0013
  102CHL1    C113778   2.491   5.029  12.984 -0.2518  0.5868 -0.0362
  102CHL1   H1A13779   2.544   4.948  12.930 -0.3439 -1.5311  2.8159
  102CHL1   H1B13780   2.560   5.116  12.992  0.6647  0.0031 -1.3243
  102CHL1    C213781   2.472   4.986  13.134 -0.4813  0.4304  0.3114
  102CHL1   H2A13782   2.573   4.970  13.177  0.3422 -1.1912 -1.9705
  102CHL1   H2B13783   2.415   4.891  13.131  1.5986 -0.8901  0.3972
  102CHL1   C2013784   2.363   5.243  12.236  0.0041  0.8945 -0.3040
  102CHL1   H2013785   2.282   5.169  12.218 -0.4517  0.8005  1.8569
  102CHL1   C2113786   2.503   5.176  12.228  0.7191  0.1181 -0.3975
  102CHL1  H21A13787   2.531   5.130  12.131 -0.1555  0.6177 -0.8922
  102CHL1  H21B13788   2.499   5.090  12.298 -0.2488  0.1774 -0.3686
  102CHL1  H21C13789   2.584   5.246  12.260 -0.6519  1.1240  1.0785
  102CHL1   C2213790   2.340   5.354  12.128 -0.1514  0.0577 -0.4505
  102CHL1  H22A13791   2.242   5.406  12.124 -0.7539 -1.1013 -1.9041
  102CHL1  H22B13792   2.419   5.430  12.149 -0.1858 -0.0911  0.2357
  102CHL1   C2313793   2.370   5.304  11.981 -0.1946  0.5817  0.0903
  102CHL1  H23A13794   2.473   5.266  11.966 -0.9294 -0.4650 -3.0930
  102CHL1  H23B13795   2.303   5.217  11.965 -0.0470  0.0596  2.0598
  102CHL1   C2413796   2.336   5.406  11.869 -0.1735  0.5423 -0.0870
  102CHL1  H24A13797   2.232   5.441  11.890 -0.6121 -0.0625 -1.1768
  102CHL1  H24B13798   2.407   5.491  11.863 -0.4072  0.6971 -0.7721
  102CHL1   C2513799   2.342   5.329  11.732  0.2945 -0.6680  0.1730
  102CHL1   H2513800   2.274   5.241  11.730 -0.1913 -0.3227  0.9511
  102CHL1   C2613801   2.294   5.422  11.623 -0.5357  0.0627  0.3731
  102CHL1  H26A13802   2.345   5.521  11.629 -1.2825  0.5335 -0.7536
  102CHL1  H26B13803   2.309   5.385  11.519  0.0021  1.9992 -0.2849
  102CHL1  H26C13804   2.186   5.443  11.634 -0.8730 -0.2316 -1.9552
  102CHL1   C2713805   2.487   5.279  11.703  0.1018  0.2957 -0.2526
  102CHL1  H27A13806   2.483   5.217  11.610 -2.6244 -1.0002  0.6195
  102CHL1  H27B13807   2.554   5.366  11.689 -0.3847  0.7409  0.1349
  102CHL1  H27C13808   2.523   5.205  11.777 -1.3116 -2.0882 -1.7825
  103CHL1    C313809   3.906   4.412  12.921 -0.5318 -0.2661 -0.3066
  103CHL1    H313810   4.012   4.423  12.953 -1.1008  1.1543  1.2294
  103CHL1    O313811   3.843   4.433  13.045 -0.1999  0.0761  0.5108
  103CHL1   H3'13812   3.755   4.467  13.025 -0.1459  0.8252  1.4593
  103CHL1    C413813   3.873   4.532  12.831  0.2298 -0.4288 -0.0872
  103CHL1   H4A13814   3.763   4.541  12.842  0.1984 -1.2600  0.3628
  103CHL1   H4B13815   3.920   4.620  12.879  1.4843 -0.6133 -0.9049
  103CHL1    C513816   3.924   4.521  12.691  0.2523  0.3175 -0.1272
  103CHL1    C613817   3.992   4.616  12.628 -0.0714  0.0981  0.0338
  103CHL1    H613818   4.024   4.705  12.684  0.9533  0.9861 -1.8666
  103CHL1    C713819   4.029   4.604  12.477  0.3389  0.3737 -0.0817
  103CHL1   H7A13820   4.020   4.707  12.437 -0.2338 -0.2059 -1.5198
  103CHL1   H7B13821   4.137   4.578  12.477  0.5321  1.1504 -1.0727
  103CHL1    C813822   3.955   4.497  12.397 -0.1345  0.6686  0.1133
  103CHL1    H813823   3.855   4.543  12.385 -1.1337 -1.5611 -0.7407
  103CHL1   C1413824   4.011   4.471  12.262  0.6551  0.2404  0.2671
  103CHL1   H1413825   4.117   4.444  12.281  1.1280  2.3491  0.8758
  103CHL1   C1513826   4.031   4.584  12.160 -0.2139 -0.0016  0.1060
  103CHL1  H15A13827   3.932   4.633  12.148  0.2226  1.2993  1.4660
  103CHL1  H15B13828   4.106   4.657  12.196  0.5433 -0.2955 -0.8243
  103CHL1   C1613829   4.060   4.502  12.032 -0.2757 -0.6760 -0.0753
  103CHL1  H16A13830   4.026   4.550  11.937  1.9326  0.4413 -0.3828
  103CHL1  H16B13831   4.171   4.494  12.037 -0.4080 -2.0165  1.5224
  103CHL1   C1713832   4.008   4.356  12.057 -0.0765  0.7307 -0.2600
  103CHL1   H1713833   4.099   4.299  12.084 -1.2657  0.3887  3.5495
  103CHL1   C1313834   3.938   4.355  12.188  0.0755  0.5825  0.1933
  103CHL1   C1813835   3.784   4.391  12.178  0.5143 -0.5597  0.1798
  103CHL1  H18A13836   3.734   4.428  12.270 -1.5725 -0.9225 -0.7415
  103CHL1  H18B13837   3.761   4.461  12.095 -1.9175 -1.0867  0.3212
  103CHL1  H18C13838   3.730   4.296  12.157 -0.0348  0.0898 -1.5000
  103CHL1   C1213839   3.964   4.215  12.263  0.9216 -0.3252  0.7757
  103CHL1  H12A13840   3.911   4.136  12.207  1.2320  0.6688 -1.0213
  103CHL1  H12B13841   4.071   4.186  12.263  0.3789 -2.8178 -2.1160
  103CHL1   C1113842   3.906   4.230  12.409 -0.4756  0.2839 -0.5022
  103CHL1  H11A13843   3.796   4.239  12.393 -0.4843  1.8048  0.3002
  103CHL1  H11B13844   3.921   4.139  12.471  0.9432  0.7204 -0.1712
  103CHL1    C913845   3.944   4.364  12.485  0.0047 -0.0694 -1.1151
  103CHL1    H913846   4.049   4.345  12.513 -0.2109  1.3959  0.9452
  103CHL1   C1013847   3.874   4.389  12.626 -0.4071  0.2084 -0.4204
  103CHL1   C1913848   3.721   4.399  12.598  0.3743 -0.8381 -0.6844
  103CHL1  H19A13849   3.685   4.307  12.548 -1.8547 -0.2436 -0.3246
  103CHL1  H19B13850   3.664   4.409  12.693 -1.1264  0.3122 -1.6605
  103CHL1  H19C13851   3.692   4.479  12.526  0.3362  0.9838  1.2369
  103CHL1    C113852   3.906   4.260  12.714 -0.5374 -1.1648 -0.5672
  103CHL1   H1A13853   3.856   4.169  12.675  0.0326 -1.2544 -1.1146
  103CHL1   H1B13854   4.012   4.229  12.701 -0.7526 -1.2054 -2.6675
  103CHL1    C213855   3.856   4.281  12.862  0.0986 -0.5228 -0.2279
  103CHL1   H2A13856   3.896   4.195  12.920 -0.6804 -1.1535 -0.6030
  103CHL1   H2B13857   3.746   4.265  12.869  0.1524 -0.4226  1.1263
  103CHL1   C2013858   3.950   4.265  11.941  0.9887  0.4533  0.1875
  103CHL1   H2013859   3.909   4.169  11.980 -1.6668  1.1721 -0.6497
  103CHL1   C2113860   4.071   4.210  11.859 -0.6864 -0.8186  0.0220
  103CHL1  H21A13861   4.140   4.148  11.919 -1.9837 -0.9752  1.4261
  103CHL1  H21B13862   4.118   4.302  11.817  0.1389 -0.8992  0.7496
  103CHL1  H21C13863   4.036   4.145  11.775 -0.5256  0.5069 -1.1085
  103CHL1   C2213864   3.844   4.331  11.851  0.3806 -0.3584 -0.1794
  103CHL1  H22A13865   3.754   4.347  11.915  1.1919 -0.4627  1.0041
  103CHL1  H22B13866   3.886   4.432  11.836  0.2894 -0.1405  0.9217
  103CHL1   C2313867   3.810   4.254  11.729  1.2918  0.2619  0.6711
  103CHL1  H23A13868   3.885   4.254  11.647  0.5267  0.5419 -0.0466
  103CHL1  H23B13869   3.802   4.144  11.740  2.1454  0.1529  0.3049
  103CHL1   C2413870   3.684   4.314  11.658 -0.4391 -0.2267 -0.5424
  103CHL1  H24A13871   3.595   4.304  11.724 -1.4621  2.1182 -1.4878
  103CHL1  H24B13872   3.689   4.420  11.627 -0.6133  0.0291  0.2693
  103CHL1   C2513873   3.628   4.245  11.529 -0.2796 -0.4149  0.1801
  103CHL1   H2513874   3.552   4.317  11.494 -1.7084 -1.4425  1.0296
  103CHL1   C2613875   3.730   4.223  11.412  1.2926  0.1655  0.2154
  103CHL1  H26A13876   3.767   4.325  11.388 -3.2341  1.5229 -2.3162
  103CHL1  H26B13877   3.800   4.143  11.444  2.0832  0.2622 -1.1754
  103CHL1  H26C13878   3.660   4.197  11.329  1.7604 -0.0343 -0.1232
  103CHL1   C2713879   3.551   4.115  11.555  0.7265  0.6154  0.1595
  103CHL1  H27A13880   3.520   4.077  11.455 -0.5829 -0.3406  0.8900
  103CHL1  H27B13881   3.606   4.033  11.607 -0.0155 -0.0432 -0.0655
  103CHL1  H27C13882   3.461   4.127  11.619  0.1262 -1.2010 -0.2702
  104CHL1    C313883   6.608   4.264  13.033 -0.1066 -0.2641 -0.0403
  104CHL1    H313884   6.670   4.172  13.023 -0.8780 -1.4136  3.9965
  104CHL1    O313885   6.591   4.281  13.175 -0.9555 -0.4995 -0.7782
  104CHL1   H3'13886   6.560   4.370  13.195  0.9075 -0.2238  1.3075
  104CHL1    C413887   6.680   4.386  12.984 -0.1101  0.4991  0.4401
  104CHL1   H4A13888   6.630   4.483  13.005  0.2064  0.5260  1.0699
  104CHL1   H4B13889   6.779   4.390  13.034  0.4332 -0.5500 -0.4983
  104CHL1    C513890   6.699   4.385  12.827  0.1084  0.3927 -1.3227
  104CHL1    C613891   6.820   4.397  12.776  0.0954  0.0051 -0.4980
  104CHL1    H613892   6.902   4.414  12.848 -1.8506  0.7208  1.6820
  104CHL1    C713893   6.850   4.410  12.629  0.4211 -0.8753 -0.3139
  104CHL1   H7A13894   6.924   4.490  12.606 -0.1089 -0.7213 -1.5518
  104CHL1   H7B13895   6.886   4.314  12.588  0.2205 -0.5946 -1.1684
  104CHL1    C813896   6.721   4.447  12.552 -0.2309  0.2311 -0.0280
  104CHL1    H813897   6.691   4.554  12.559  0.0274  0.4285 -1.5920
  104CHL1   C1413898   6.737   4.412  12.403 -0.9202 -0.3011  0.0382
  104CHL1   H1413899   6.753   4.303  12.396 -1.4752 -0.3926  0.1228
  104CHL1   C1513900   6.863   4.473  12.332  0.1789  0.1872 -0.1631
  104CHL1  H15A13901   6.858   4.576  12.372 -0.2483 -0.3032  1.1019
  104CHL1  H15B13902   6.959   4.422  12.356 -0.3786 -0.5869  0.5013
  104CHL1   C1613903   6.832   4.468  12.186  0.6488 -0.3063 -0.2810
  104CHL1  H16A13904   6.835   4.575  12.158 -0.5144 -0.0508  0.5366
  104CHL1  H16B13905   6.904   4.411  12.123 -0.2291 -2.6779  0.7239
  104CHL1   C1713906   6.690   4.398  12.179  0.6659  0.5202  0.5331
  104CHL1   H1713907   6.720   4.291  12.175 -0.5803  0.1565  0.3681
  104CHL1   C1313908   6.620   4.433  12.308  0.2671 -0.2061 -0.2029
  104CHL1   C1813909   6.575   4.580  12.301 -0.2939 -0.6036  0.4435
  104CHL1  H18A13910   6.484   4.578  12.237  0.4663 -3.5571 -0.6819
  104CHL1  H18B13911   6.561   4.613  12.406 -2.2571  0.5135 -0.1281
  104CHL1  H18C13912   6.654   4.649  12.262  1.7107 -2.1304  1.5933
  104CHL1   C1213913   6.502   4.349  12.359  0.1429 -0.6653  0.2817
  104CHL1  H12A13914   6.414   4.372  12.296  0.7430  2.1058  0.3562
  104CHL1  H12B13915   6.524   4.243  12.332 -2.1355 -0.8912 -0.8589
  104CHL1   C1113916   6.468   4.365  12.506  0.5813  0.1902 -0.1425
  104CHL1  H11A13917   6.408   4.458  12.511 -1.0461 -0.7696 -1.1075
  104CHL1  H11B13918   6.405   4.278  12.533 -1.4869  1.9713  1.1030
  104CHL1    C913919   6.596   4.354  12.598  0.2580 -0.4730 -0.0452
  104CHL1    H913920   6.646   4.256  12.581  3.0226  0.9559 -0.6745
  104CHL1   C1013921   6.566   4.362  12.750  0.5688 -0.2903  0.1813
  104CHL1   C1913922   6.479   4.492  12.767 -0.3620 -0.8326 -0.0196
  104CHL1  H19A13923   6.454   4.516  12.872  1.6635  0.5616  0.2024
  104CHL1  H19B13924   6.548   4.574  12.737  1.3348 -1.9294  0.7197
  104CHL1  H19C13925   6.383   4.487  12.713 -0.7558 -0.2017  0.6166
  104CHL1    C113926   6.483   4.243  12.805 -0.6648  0.1651  0.1723
  104CHL1   H1A13927   6.384   4.238  12.754 -1.3259  0.5639  1.3923
  104CHL1   H1B13928   6.543   4.152  12.782 -2.9248 -0.7373 -2.7109
  104CHL1    C213929   6.473   4.234  12.960 -0.2754 -0.2751  0.1067
  104CHL1   H2A13930   6.424   4.141  12.995  2.7754 -1.1281  2.6391
  104CHL1   H2B13931   6.407   4.320  12.985 -0.3350 -0.7798  1.8737
  104CHL1   C2013932   6.611   4.408  12.049  0.3211  0.0900 -0.8140
  104CHL1   H2013933   6.537   4.491  12.051 -2.4651 -2.1282 -3.1701
  104CHL1   C2113934   6.527   4.273  12.025 -0.2495  0.0655  0.2045
  104CHL1  H21A13935   6.587   4.180  12.027 -1.5215 -0.7787  0.5724
  104CHL1  H21B13936   6.482   4.283  11.923 -1.9904  0.4807  0.9743
  104CHL1  H21C13937   6.438   4.266  12.090 -1.4060 -0.2464 -1.3542
  104CHL1   C2213938   6.704   4.433  11.918 -0.2594 -0.0641 -0.4707
  104CHL1  H22A13939   6.762   4.526  11.936  0.2112 -0.0704 -1.8692
  104CHL1  H22B13940   6.784   4.357  11.904  1.7324  1.4138  1.9457
  104CHL1   C2313941   6.633   4.450  11.783 -0.2886 -0.4717 -0.2225
  104CHL1  H23A13942   6.602   4.351  11.745 -0.7176 -0.5929  0.4433
  104CHL1  H23B13943   6.545   4.511  11.811  1.2907  0.8553  2.2677
  104CHL1   C2413944   6.720   4.519  11.674 -0.1925  0.3919  0.1088
  104CHL1  H24A13945   6.745   4.619  11.714 -0.1644  0.7269 -0.7233
  104CHL1  H24B13946   6.819   4.469  11.666  0.2406  1.1578  0.6188
  104CHL1   C2513947   6.662   4.514  11.528  0.5972  0.0140  0.8222
  104CHL1   H2513948   6.734   4.571  11.465  2.2183 -2.0116  0.7346
  104CHL1   C2613949   6.651   4.376  11.472  0.2927 -0.3187  0.1554
  104CHL1  H26A13950   6.605   4.297  11.535  0.0514 -0.4699 -0.2062
  104CHL1  H26B13951   6.602   4.371  11.372  0.5440 -0.1268  0.0197
  104CHL1  H26C13952   6.750   4.339  11.437  1.4909  2.5394  0.2224
  104CHL1   C2713953   6.524   4.588  11.512  0.2836 -0.1401 -0.3292
  104CHL1  H27A13954   6.486   4.568  11.410 -0.1852 -0.5932 -0.0693
  104CHL1  H27B13955   6.456   4.550  11.591  0.3396 -0.9212 -0.6567
  104CHL1  H27C13956   6.554   4.694  11.533 -0.8269 -0.1350  1.4890
  105CHL1    C313957   6.123   3.691  12.939  0.4003  0.3287 -0.5827
  105CHL1    H313958   6.050   3.614  12.904 -2.9283  2.6340  0.7431
  105CHL1    O313959   6.139   3.674  13.079  0.2921  0.0513 -0.0642
  105CHL1   H3'13960   6.174   3.759  13.108 -0.4309 -0.0140  1.0908
  105CHL1    C413961   6.260   3.679  12.881 -0.0171  0.1335 -0.0733
  105CHL1   H4A13962   6.329   3.753  12.928  0.6757  0.1284 -1.0594
  105CHL1   H4B13963   6.304   3.579  12.899 -0.1492  0.1991  0.6661
  105CHL1    C513964   6.261   3.714  12.732 -0.7460 -0.6247 -1.2687
  105CHL1    C613965   6.317   3.625  12.648  0.8879  0.5064  0.1416
  105CHL1    H613966   6.367   3.535  12.687  1.6642  0.6705 -0.4387
  105CHL1    C713967   6.333   3.647  12.502 -0.0107 -0.5934  0.4065
  105CHL1   H7A13968   6.440   3.642  12.475  0.3267  1.6011  1.1970
  105CHL1   H7B13969   6.277   3.560  12.461 -1.5632  0.5620 -0.0252
  105CHL1    C813970   6.293   3.787  12.454 -0.5528  0.3300  0.8082
  105CHL1    H813971   6.370   3.860  12.487  0.6956 -2.2218  4.0002
  105CHL1   C1413972   6.277   3.782  12.309 -0.4164  1.1935 -0.4147
  105CHL1   H1413973   6.194   3.709  12.297  0.8949 -0.4965  0.4811
  105CHL1   C1513974   6.383   3.723  12.212 -0.0286 -0.3834 -0.3877
  105CHL1  H15A13975   6.488   3.738  12.245  0.4267  0.0090 -1.9505
  105CHL1  H15B13976   6.373   3.613  12.207  3.0337 -0.8067  0.6417
  105CHL1   C1613977   6.349   3.785  12.076  0.4749  0.3082 -0.1793
  105CHL1  H16A13978   6.442   3.829  12.034  1.0743  0.2559  1.0275
  105CHL1  H16B13979   6.315   3.706  12.005  0.5498 -0.4216  0.5726
  105CHL1   C1713980   6.227   3.879  12.095 -0.6629 -0.3232 -0.5899
  105CHL1   H1713981   6.135   3.819  12.077 -0.0712 -1.3496 -0.2247
  105CHL1   C1313982   6.231   3.912  12.248  0.4590  0.2217  0.3176
  105CHL1   C1813983   6.334   4.026  12.270 -0.2399 -0.2423  0.5401
  105CHL1  H18A13984   6.372   4.034  12.374  0.2317 -2.1228  0.5465
  105CHL1  H18B13985   6.422   4.009  12.204  0.4982 -0.9095  1.6720
  105CHL1  H18C13986   6.287   4.120  12.234 -1.0613 -1.2830 -1.2825
  105CHL1   C1213987   6.096   3.949  12.301 -0.2885  0.4150 -0.0771
  105CHL1  H12A13988   6.068   4.052  12.270 -0.2714  0.3907 -0.1715
  105CHL1  H12B13989   6.018   3.873  12.277 -0.2449 -0.4550  2.2630
  105CHL1   C1113990   6.102   3.959  12.455 -0.1522  0.5911  0.8337
  105CHL1  H11A13991   6.170   4.046  12.470  1.6006 -0.4977 -0.4217
  105CHL1  H11B13992   5.998   3.978  12.488 -1.3128 -0.3407 -1.9571
  105CHL1    C913993   6.163   3.831  12.524  0.1544 -0.1191  0.2920
  105CHL1    H913994   6.091   3.748  12.507  0.6623 -1.1097  2.5945
  105CHL1   C1013995   6.183   3.838  12.679  0.4743  0.0277 -0.3065
  105CHL1   C1913996   6.262   3.964  12.716 -0.4638  0.1357  0.6856
  105CHL1  H19A13997   6.277   3.964  12.826 -0.6352 -2.7688  0.7815
  105CHL1  H19B13998   6.357   3.971  12.660  0.4829 -4.7084  1.3012
  105CHL1  H19C13999   6.211   4.058  12.686  0.8464 -0.4033 -3.8993
  105CHL1    C114000   6.046   3.843  12.755 -0.1947 -0.3063  0.4844
  105CHL1   H1A14001   6.011   3.945  12.731 -1.1069 -1.0051 -1.3207
  105CHL1   H1B14002   5.983   3.770  12.700  3.1405 -1.2856 -2.4227
  105CHL1    C214003   6.054   3.818  12.908  0.1095 -0.1476  0.4043
  105CHL1   H2A14004   5.947   3.818  12.939 -0.5175  1.3648 -1.5881
  105CHL1   H2B14005   6.105   3.902  12.959  0.6208  0.1116 -0.5179
  105CHL1   C2014006   6.222   3.994  11.990  0.4919  0.3090  0.9477
  105CHL1   H2014007   6.306   4.063  12.009  0.7512  1.1694 -2.5214
  105CHL1   C2114008   6.081   4.067  12.000 -0.8604  0.1523  0.1297
  105CHL1  H21A14009   6.002   3.992  12.022  1.2293 -1.5724  2.4205
  105CHL1  H21B14010   6.060   4.123  11.907 -2.5270 -0.6400  0.0065
  105CHL1  H21C14011   6.078   4.138  12.086  0.8884  0.2229  0.1706
  105CHL1   C2214012   6.241   3.939  11.845 -0.1896 -0.4192 -0.0867
  105CHL1  H22A14013   6.336   3.882  11.835  1.5740  2.0387  1.2751
  105CHL1  H22B14014   6.157   3.874  11.813 -1.0116 -0.7179  2.4728
  105CHL1   C2314015   6.273   4.060  11.753 -0.1240  0.2447 -0.1505
  105CHL1  H23A14016   6.212   4.151  11.772  0.1762  0.3512  0.3344
  105CHL1  H23B14017   6.376   4.098  11.773 -0.6718  1.1062  1.1233
  105CHL1   C2414018   6.272   4.013  11.603  0.0860  0.4982 -0.3428
  105CHL1  H24A14019   6.332   3.920  11.589  0.1351  0.7021 -1.6366
  105CHL1  H24B14020   6.163   3.994  11.591 -0.4721  1.4881  2.3524
  105CHL1   C2514021   6.310   4.110  11.490  0.3580  0.1920  0.7498
  105CHL1   H2514022   6.393   4.175  11.525 -1.0977  3.5062 -1.4555
  105CHL1   C2614023   6.350   4.036  11.363  0.6530  0.0882 -0.6561
  105CHL1  H26A14024   6.433   3.962  11.376  0.9683  0.2356 -1.6989
  105CHL1  H26B14025   6.273   3.975  11.311  1.9209 -1.1249 -1.1728
  105CHL1  H26C14026   6.389   4.120  11.302  1.4322  1.0094  1.0383
  105CHL1   C2714027   6.194   4.203  11.456 -0.4652 -0.1371 -0.4603
  105CHL1  H27A14028   6.106   4.147  11.418 -0.8450 -0.5588  0.9956
  105CHL1  H27B14029   6.167   4.259  11.548 -1.6774  3.2712 -2.6925
  105CHL1  H27C14030   6.227   4.282  11.385 -2.4616  0.9077 -0.2847
  106CHL1    C314031   2.957   4.859  13.220 -0.1004 -1.0337  0.3511
  106CHL1    H314032   2.876   4.788  13.196 -0.3556 -0.8062  0.5328
  106CHL1    O314033   2.973   4.871  13.360  0.2332  0.2275 -0.3402
  106CHL1   H3'14034   2.966   4.782  13.395  0.5903 -0.2635 -1.4792
  106CHL1    C414035   3.089   4.814  13.151  0.1345  0.2579 -0.6733
  106CHL1   H4A14036   3.168   4.884  13.184  1.9609 -1.7334 -0.5768
  106CHL1   H4B14037   3.126   4.718  13.193 -0.6795 -0.0528 -0.6431
  106CHL1    C514038   3.069   4.802  13.004  0.4288 -0.1341  1.1271
  106CHL1    C614039   3.073   4.682  12.936 -0.5583 -0.7549 -0.2233
  106CHL1    H614040   3.098   4.587  12.986 -0.5027 -0.6330 -0.0173
  106CHL1    C714041   3.067   4.673  12.787  0.4834  0.2630 -0.9049
  106CHL1   H7A14042   3.141   4.606  12.738 -0.6676  0.2593 -2.7332
  106CHL1   H7B14043   2.971   4.619  12.767 -0.1369  1.3367 -0.9055
  106CHL1    C814044   3.069   4.805  12.711  0.7964  0.3480 -0.6226
  106CHL1    H814045   3.168   4.855  12.708  0.2132  1.5318 -0.8467
  106CHL1   C1414046   3.016   4.782  12.571  0.6454 -0.1284  1.2207
  106CHL1   H1414047   2.911   4.745  12.578 -1.1784  4.1074 -0.4547
  106CHL1   C1514048   3.086   4.680  12.480 -0.3463  0.7291  0.0250
  106CHL1  H15A14049   3.194   4.689  12.506 -1.2218  2.4199  3.6206
  106CHL1  H15B14050   3.055   4.574  12.489 -0.5798  0.5597 -2.1231
  106CHL1   C1614051   3.045   4.714  12.338 -0.4793 -0.3101 -0.1482
  106CHL1  H16A14052   3.123   4.730  12.260 -0.7516  0.7090 -0.2333
  106CHL1  H16B14053   2.973   4.635  12.309  0.8607 -2.2704  1.6113
  106CHL1   C1714054   2.967   4.852  12.350 -0.2453  0.4235 -0.4168
  106CHL1   H1714055   2.861   4.821  12.353 -0.7784  2.1340  2.1019
  106CHL1   C1314056   3.007   4.912  12.484 -0.3023  0.0344 -0.3197
  106CHL1   C1814057   3.155   4.959  12.472 -0.5358 -0.0724  0.0925
  106CHL1  H18A14058   3.154   5.053  12.412  0.3045 -0.3536 -0.3628
  106CHL1  H18B14059   3.200   4.996  12.567  0.3871  1.0498 -0.7490
  106CHL1  H18C14060   3.226   4.884  12.433  0.7815  0.6394  1.0287
  106CHL1   C1214061   2.917   5.012  12.556 -0.4341  0.2802  0.6753
  106CHL1  H12A14062   2.929   5.113  12.510 -3.0542  0.8986  1.1550
  106CHL1  H12B14063   2.809   4.987  12.561 -0.5916  0.8467  0.1799
  106CHL1   C1114064   2.960   5.038  12.705  0.6511 -0.2645 -0.2884
  106CHL1  H11A14065   3.051   5.102  12.697 -0.1273  0.7759 -1.0853
  106CHL1  H11B14066   2.879   5.097  12.752  1.6682  0.0528  1.1456
  106CHL1    C914067   2.976   4.908  12.786  0.4406  0.1820  0.2622
  106CHL1    H914068   2.876   4.861  12.780  0.2300  0.5884  0.5846
  106CHL1   C1014069   3.022   4.937  12.934  0.0750  0.3812  0.5920
  106CHL1   C1914070   3.141   5.028  12.935 -0.2022 -0.6473 -0.0718
  106CHL1  H19A14071   3.169   5.058  13.038 -2.7963  0.3801  0.4107
  106CHL1  H19B14072   3.225   4.994  12.871 -0.0830 -0.4096 -0.0405
  106CHL1  H19C14073   3.102   5.127  12.902 -1.4127 -0.6528  1.2656
  106CHL1    C114074   2.901   4.999  13.009 -0.1688  0.2669  0.2358
  106CHL1   H1A14075   2.890   5.107  12.982  0.2631 -0.0506 -1.2430
  106CHL1   H1B14076   2.808   4.944  12.983 -0.4587  0.7036  0.3299
  106CHL1    C214077   2.917   4.999  13.163 -0.0527 -0.2735  0.3180
  106CHL1   H2A14078   2.825   5.048  13.204  0.2505  0.0801  0.5846
  106CHL1   H2B14079   2.998   5.071  13.187 -0.5316 -0.4321  2.7058
  106CHL1   C2014080   2.972   4.929  12.212 -0.7215 -0.1045  0.1431
  106CHL1   H2014081   3.074   4.968  12.192 -1.1812  0.7572 -0.6499
  106CHL1   C2114082   2.870   5.047  12.220 -0.1119 -0.3211  0.2868
  106CHL1  H21A14083   2.770   5.014  12.255 -0.1173  0.7227  1.3190
  106CHL1  H21B14084   2.858   5.091  12.119 -0.5019  0.2907  0.5976
  106CHL1  H21C14085   2.904   5.115  12.300 -0.9618 -1.7467  1.9345
  106CHL1   C2214086   2.940   4.850  12.084  0.0227  0.7015 -1.0101
  106CHL1  H22A14087   2.987   4.750  12.097  0.4885  1.2889  3.0293
  106CHL1  H22B14088   2.831   4.830  12.075  0.1686 -1.2593  0.7780
  106CHL1   C2314089   2.995   4.911  11.952 -0.4541 -0.0026 -0.7291
  106CHL1  H23A14090   2.957   4.858  11.862 -0.1838 -0.0894 -0.7920
  106CHL1  H23B14091   2.960   5.015  11.938 -0.8178 -0.0424 -0.1408
  106CHL1   C2414092   3.150   4.911  11.949  0.1188  0.7232  0.8325
  106CHL1  H24A14093   3.192   4.910  12.052 -0.7595  2.3837  1.2304
  106CHL1  H24B14094   3.175   4.819  11.893 -1.9248  0.5222  0.1751
  106CHL1   C2514095   3.213   5.035  11.877  0.5119 -0.6959 -0.2092
  106CHL1   H2514096   3.156   5.043  11.781  0.6499  0.4012 -0.2096
  106CHL1   C2614097   3.208   5.171  11.950  0.0898 -0.2502  0.6408
  106CHL1  H26A14098   3.102   5.195  11.975  0.4639  1.8662  0.4133
  106CHL1  H26B14099   3.274   5.173  12.040  2.1707  1.4142 -0.8311
  106CHL1  H26C14100   3.249   5.249  11.883  1.1332 -0.6804  0.7654
  106CHL1   C2714101   3.355   4.997  11.856 -0.5457  0.3156 -0.2984
  106CHL1  H27A14102   3.366   4.918  11.778 -0.4202  0.2949 -0.2585
  106CHL1  H27B14103   3.414   5.078  11.808  0.0452 -0.0025 -0.1037
  106CHL1  H27C14104   3.404   4.986  11.954 -2.5228 -1.7387  0.5587
  107CHL1    C314105   4.349   6.451  13.325  1.2614  0.3953 -0.4691
  107CHL1    H314106   4.439   6.511  13.300  1.3888 -0.0283 -1.0420
  107CHL1    O314107   4.334   6.441  13.468 -0.0764 -0.1389  0.1731
  107CHL1   H3'14108   4.247   6.479  13.482 -0.1413 -0.4033  0.5062
  107CHL1    C414109   4.230   6.530  13.274  0.1903  0.2117 -0.0840
  107CHL1   H4A14110   4.135   6.489  13.314 -1.2410  2.7766 -0.6324
  107CHL1   H4B14111   4.241   6.630  13.321  2.0660  0.2573 -0.5435
  107CHL1    C514112   4.225   6.540  13.122  1.3336 -0.5191  0.4940
  107CHL1    C614113   4.230   6.661  13.060  0.0342  0.4571  0.5228
  107CHL1    H614114   4.222   6.750  13.125  0.2817  1.0780 -0.2839
  107CHL1    C714115   4.234   6.682  12.909 -0.0179 -0.0411 -0.5758
  107CHL1   H7A14116   4.169   6.765  12.872  0.8684  1.6418  1.4331
  107CHL1   H7B14117   4.337   6.712  12.881  0.0438  1.3801  0.9871
  107CHL1    C814118   4.198   6.556  12.823 -0.1556  0.5093  0.6481
  107CHL1    H814119   4.088   6.547  12.830 -0.4849  3.0408 -0.1809
  107CHL1   C1414120   4.242   6.570  12.675  0.1641 -1.2769 -0.0689
  107CHL1   H1414121   4.352   6.584  12.687  0.0921 -1.3789  0.7599
  107CHL1   C1514122   4.211   6.702  12.600 -0.7574 -0.3108 -0.0075
  107CHL1  H15A14123   4.103   6.723  12.614 -1.0280 -3.3786  4.8255
  107CHL1  H15B14124   4.279   6.787  12.623  2.8834 -2.9561 -0.1642
  107CHL1   C1614125   4.245   6.664  12.458 -0.1462 -0.0070  0.6653
  107CHL1  H16A14126   4.155   6.691  12.398  0.1695  1.0684  0.6635
  107CHL1  H16B14127   4.327   6.733  12.429 -0.0340  0.4506  1.9928
  107CHL1   C1714128   4.281   6.508  12.463  0.2843 -0.3762 -0.0047
  107CHL1   H1714129   4.391   6.512  12.477  0.3652 -0.1468 -0.6800
  107CHL1   C1314130   4.211   6.447  12.586 -0.2597 -0.2424  0.1030
  107CHL1   C1814131   4.055   6.443  12.558  0.1650 -0.4755  0.4586
  107CHL1  H18A14132   4.001   6.420  12.652 -0.5995 -2.1770 -0.3704
  107CHL1  H18B14133   4.023   6.536  12.507 -0.8739 -0.9122  0.3060
  107CHL1  H18C14134   4.031   6.356  12.494 -1.6976 -0.6657  1.3672
  107CHL1   C1214135   4.263   6.315  12.660  0.3667  0.3836 -0.2769
  107CHL1  H12A14136   4.211   6.231  12.608  0.8850 -0.7203  0.9186
  107CHL1  H12B14137   4.372   6.300  12.641 -0.1024 -1.4531 -1.9625
  107CHL1   C1114138   4.227   6.309  12.812  0.2755  0.4390 -0.0708
  107CHL1  H11A14139   4.117   6.291  12.804  0.0842  0.6705  1.5953
  107CHL1  H11B14140   4.269   6.214  12.850 -1.1673  0.2930  1.2746
  107CHL1    C914141   4.262   6.432  12.891 -0.2695  0.1758  0.2132
  107CHL1    H914142   4.372   6.444  12.880 -0.0362  2.0893  3.4105
  107CHL1   C1014143   4.233   6.405  13.045 -0.8321 -0.3503  0.3512
  107CHL1   C1914144   4.095   6.335  13.063 -0.4200 -0.0046 -0.1997
  107CHL1  H19A14145   4.075   6.328  13.171  1.3284 -2.5548  0.0549
  107CHL1  H19B14146   4.014   6.400  13.024 -1.7508 -0.2622  1.9916
  107CHL1  H19C14147   4.095   6.233  13.017 -0.7168 -0.1517  0.1301
  107CHL1    C114148   4.345   6.317  13.110  0.0813  0.4960 -0.2939
  107CHL1   H1A14149   4.346   6.218  13.061  0.0174  1.0291 -1.4103
  107CHL1   H1B14150   4.442   6.368  13.089 -0.3929  2.7643  2.4050
  107CHL1    C214151   4.337   6.308  13.262 -0.7038 -0.8814 -0.4851
  107CHL1   H2A14152   4.417   6.246  13.309  0.7365  0.8423 -0.5829
  107CHL1   H2B14153   4.236   6.273  13.296 -1.6673  2.8350  0.9499
  107CHL1   C2014154   4.253   6.441  12.327 -0.1623  0.7405 -0.5797
  107CHL1   H2014155   4.142   6.427  12.319 -0.1597  1.2369 -1.6753
  107CHL1   C2114156   4.332   6.307  12.324  0.3501  0.8549 -0.0299
  107CHL1  H21A14157   4.298   6.250  12.235 -0.6314  0.2632  0.7091
  107CHL1  H21B14158   4.298   6.247  12.410 -0.8240  1.8403  0.2158
  107CHL1  H21C14159   4.442   6.319  12.312  1.0280 -3.1695  0.6359
  107CHL1   C2214160   4.295   6.518  12.204 -0.0743  0.3068 -0.1355
  107CHL1  H22A14161   4.237   6.612  12.201 -1.1053 -0.3048  0.2099
  107CHL1  H22B14162   4.404   6.538  12.214 -0.0920 -0.3226  1.8562
  107CHL1   C2314163   4.265   6.447  12.073  0.6268  0.3013  0.8121
  107CHL1  H23A14164   4.330   6.357  12.066  0.3745  0.1158  0.8028
  107CHL1  H23B14165   4.160   6.411  12.078  0.6014 -0.2006 -1.8022
  107CHL1   C2414166   4.280   6.539  11.952  0.0205  0.2972  0.3958
  107CHL1  H24A14167   4.227   6.635  11.965 -0.0212  0.9288 -3.3196
  107CHL1  H24B14168   4.388   6.564  11.944  1.1955 -4.3402 -1.5626
  107CHL1   C2514169   4.248   6.479  11.817  0.2716  0.3857  0.0325
  107CHL1   H2514170   4.149   6.432  11.838 -0.2908  0.0834 -2.8457
  107CHL1   C2614171   4.234   6.589  11.713  0.0698  0.8741 -0.3697
  107CHL1  H26A14172   4.331   6.640  11.693  0.0589  0.7530 -0.7269
  107CHL1  H26B14173   4.199   6.542  11.619 -0.0943 -0.5037  0.3464
  107CHL1  H26C14174   4.166   6.674  11.735  1.0391  2.0872 -1.8354
  107CHL1   C2714175   4.343   6.366  11.770 -0.1028 -0.1766 -0.1289
  107CHL1  H27A14176   4.358   6.279  11.836  0.7572  0.7448  0.9350
  107CHL1  H27B14177   4.314   6.327  11.670 -3.2531 -0.5251  0.8061
  107CHL1  H27C14178   4.446   6.404  11.755  0.0029 -0.5270 -0.2953
  108CHL1    C314179   6.052   3.279  13.007 -0.4293 -1.1384  0.5114
  108CHL1    H314180   6.085   3.384  13.020 -1.6094 -0.7353  0.3381
  108CHL1    O314181   6.042   3.222  13.141 -0.4932 -0.2594  0.2336
  108CHL1   H3'14182   5.981   3.148  13.134 -0.4625 -0.6569  3.0075
  108CHL1    C414183   5.919   3.288  12.928  1.0286  0.4590 -0.0066
  108CHL1   H4A14184   5.858   3.194  12.929 -0.8499  1.5816 -1.3411
  108CHL1   H4B14185   5.857   3.355  12.990 -0.0760 -1.8462  1.5268
  108CHL1    C514186   5.936   3.337  12.782 -0.4239  0.1323 -0.9636
  108CHL1    C614187   5.879   3.451  12.752 -0.3142 -0.9295  0.5853
  108CHL1    H614188   5.813   3.497  12.828 -0.9952 -0.1144 -0.4678
  108CHL1    C714189   5.881   3.500  12.607  0.2369  0.3178 -0.2787
  108CHL1   H7A14190   5.781   3.527  12.568 -0.0678 -1.7416 -1.0644
  108CHL1   H7B14191   5.931   3.599  12.610 -0.1152  0.6183 -2.5634
  108CHL1    C814192   5.942   3.400  12.504 -0.1786  0.6943  0.9193
  108CHL1    H814193   5.869   3.319  12.485 -1.4396  1.8007  0.9148
  108CHL1   C1414194   5.986   3.472  12.377 -0.3664  0.6591 -0.2729
  108CHL1   H1414195   6.066   3.544  12.405 -0.9140  0.6857  1.3316
  108CHL1   C1514196   5.883   3.558  12.305  0.5977 -0.4270 -0.6766
  108CHL1  H15A14197   5.780   3.516  12.304  0.4692 -0.1075 -1.4190
  108CHL1  H15B14198   5.878   3.661  12.346  1.7472 -0.0958 -1.3196
  108CHL1   C1614199   5.933   3.561  12.161  0.0602  0.0850 -0.3636
  108CHL1  H16A14200   5.856   3.527  12.088 -0.4752 -1.3745  0.8447
  108CHL1  H16B14201   5.967   3.664  12.136  1.1760  0.1653  1.3766
  108CHL1   C1714202   6.047   3.466  12.153 -0.3579 -0.7345 -0.7531
  108CHL1   H1714203   6.146   3.515  12.163 -0.5946 -0.2678 -0.6766
  108CHL1   C1314204   6.040   3.377  12.279 -0.3686 -0.3817  0.5838
  108CHL1   C1814205   5.941   3.262  12.242 -0.4226  0.0524 -0.0674
  108CHL1  H18A14206   5.980   3.200  12.158  0.7427  2.2731 -1.2626
  108CHL1  H18B14207   5.936   3.197  12.332  3.2150  2.0152  1.7723
  108CHL1  H18C14208   5.838   3.293  12.216 -0.5886 -0.7340 -0.3707
  108CHL1   C1214209   6.182   3.322  12.330  0.2275  0.3350 -0.2243
  108CHL1  H12A14210   6.216   3.251  12.252 -1.1286 -0.3708 -0.2060
  108CHL1  H12B14211   6.250   3.410  12.338 -0.4342  0.7698  0.9017
  108CHL1   C1114212   6.169   3.265  12.469 -0.3439  0.6942 -0.2908
  108CHL1  H11A14213   6.159   3.156  12.452  2.8736  0.2119  0.3474
  108CHL1  H11B14214   6.269   3.270  12.517  0.6086 -1.1450 -1.9247
  108CHL1    C914215   6.070   3.336  12.569  0.4210 -0.6248 -1.2738
  108CHL1    H914216   6.119   3.430  12.603 -0.9279  0.0973 -1.2614
  108CHL1   C1014217   6.040   3.260  12.697 -0.3113 -0.0571  0.0211
  108CHL1   C1914218   5.973   3.123  12.651  0.3298  0.0581 -0.2091
  108CHL1  H19A14219   5.949   3.054  12.735  1.2433 -1.0061 -0.7931
  108CHL1  H19B14220   5.877   3.153  12.604  0.5440  0.5276 -0.3550
  108CHL1  H19C14221   6.028   3.069  12.571  1.8248  0.8627  0.2364
  108CHL1    C114222   6.173   3.240  12.780 -0.3258 -0.3105  0.0814
  108CHL1   H1A14223   6.240   3.169  12.726 -2.2238 -0.8906 -1.6459
  108CHL1   H1B14224   6.216   3.343  12.782  2.9073 -1.5519  1.1926
  108CHL1    C214225   6.155   3.194  12.926 -0.6004  0.3213  0.2848
  108CHL1   H2A14226   6.255   3.181  12.972 -0.0523  0.6661 -0.7744
  108CHL1   H2B14227   6.115   3.091  12.912  1.2450 -0.8553  2.7744
  108CHL1   C2014228   6.049   3.401  12.014 -0.1238 -0.6342 -0.1301
  108CHL1   H2014229   5.952   3.353  11.988 -0.3337  0.0820 -0.6929
  108CHL1   C2114230   6.163   3.301  12.000 -0.8459  1.2214  0.1895
  108CHL1  H21A14231   6.258   3.345  12.037 -0.9050  1.9993 -0.5495
  108CHL1  H21B14232   6.186   3.265  11.897 -0.1316 -1.0570  1.0958
  108CHL1  H21C14233   6.142   3.207  12.055 -0.9973  0.4709 -1.0947
  108CHL1   C2214234   6.055   3.513  11.904 -0.6137  0.6392 -0.4710
  108CHL1  H22A14235   5.960   3.568  11.918 -0.5902  0.3928  0.7630
  108CHL1  H22B14236   6.137   3.581  11.938 -0.8536  0.5925  0.2028
  108CHL1   C2314237   6.079   3.463  11.763  0.0069 -1.0606  0.0905
  108CHL1  H23A14238   6.172   3.402  11.765 -0.0615 -1.1683  0.0100
  108CHL1  H23B14239   5.995   3.400  11.726 -0.7773 -0.6995  1.2030
  108CHL1   C2414240   6.092   3.582  11.676  0.4768  0.2309  0.1636
  108CHL1  H24A14241   6.004   3.648  11.692 -0.7646 -1.2496 -0.3755
  108CHL1  H24B14242   6.179   3.637  11.718  0.0291  0.1228  1.2537
  108CHL1   C2514243   6.091   3.545  11.528 -0.4450 -1.1607  0.0162
  108CHL1   H2514244   6.001   3.490  11.494 -1.3007  1.0795 -1.6213
  108CHL1   C2614245   6.095   3.678  11.435  0.5210  0.1327  0.1397
  108CHL1  H26A14246   6.063   3.664  11.329  2.0358  0.5598 -0.4033
  108CHL1  H26B14247   6.030   3.756  11.479 -3.8619 -1.9063 -2.0818
  108CHL1  H26C14248   6.200   3.715  11.435 -0.0485  1.8325  1.0735
  108CHL1   C2714249   6.214   3.458  11.493  0.5067  0.1337  0.0779
  108CHL1  H27A14250   6.201   3.437  11.385 -0.5424  0.8196  0.0546
  108CHL1  H27B14251   6.304   3.513  11.529  0.2816  0.9388 -0.5753
  108CHL1  H27C14252   6.207   3.359  11.544 -2.3772  1.1199  1.8263
  109CHL1    C314253   3.718   1.061  12.948 -0.3281 -0.4121 -0.5118
  109CHL1    H314254   3.607   1.051  12.944 -0.2731 -3.4987  1.4798
  109CHL1    O314255   3.779   1.057  13.077  0.3045  0.1333 -0.5821
  109CHL1   H3'14256   3.749   1.137  13.120 -2.8308 -0.4327 -1.4865
  109CHL1    C414257   3.771   0.937  12.873 -0.0589  0.3174  0.0507
  109CHL1   H4A14258   3.880   0.935  12.896 -0.1856  2.3188  0.9648
  109CHL1   H4B14259   3.725   0.846  12.916 -0.7997  1.4942  1.8441
  109CHL1    C514260   3.754   0.934  12.723 -0.3657 -0.7835 -0.2050
  109CHL1    C614261   3.690   0.837  12.663  0.0325  0.1842 -0.0899
  109CHL1    H614262   3.649   0.753  12.721  0.7545 -0.1351 -0.0228
  109CHL1    C714263   3.657   0.825  12.518  0.2939 -0.3674 -0.2964
  109CHL1   H7A14264   3.676   0.723  12.477 -0.0888  0.1057 -1.7242
  109CHL1   H7B14265   3.550   0.843  12.495  0.1860 -0.9487 -0.2602
  109CHL1    C814266   3.736   0.940  12.440 -0.4212  0.9076 -0.7221
  109CHL1    H814267   3.840   0.900  12.439 -0.9394 -0.5215 -0.3688
  109CHL1   C1414268   3.685   0.940  12.293  0.1609  0.2358  0.4388
  109CHL1   H1414269   3.583   0.977  12.316 -0.1602  0.3383 -1.0367
  109CHL1   C1514270   3.679   0.806  12.211  0.5167 -0.0334 -0.5717
  109CHL1  H15A14271   3.777   0.755  12.221  0.2823 -0.3328  0.3706
  109CHL1  H15B14272   3.590   0.743  12.236  0.5278 -1.1378 -3.0180
  109CHL1   C1614273   3.667   0.860  12.073 -0.1939  0.1758  0.3750
  109CHL1  H16A14274   3.728   0.806  11.996 -1.5355  1.2792 -1.5562
  109CHL1  H16B14275   3.562   0.859  12.038 -0.2003  0.7310  0.3683
  109CHL1   C1714276   3.689   1.017  12.077 -0.6341 -0.0917 -0.1646
  109CHL1   H1714277   3.588   1.059  12.094  0.0323  1.6799 -0.2807
  109CHL1   C1314278   3.756   1.042  12.203 -0.1553 -0.2472 -0.1028
  109CHL1   C1814279   3.915   1.011  12.193  0.0493 -0.1699  0.2720
  109CHL1  H18A14280   3.938   0.925  12.127 -0.8067 -0.9770  0.9909
  109CHL1  H18B14281   3.976   1.094  12.153  0.9982 -0.2964  1.4200
  109CHL1  H18C14282   3.958   0.994  12.294  2.1408  0.0866 -0.5296
  109CHL1   C1214283   3.731   1.180  12.263 -0.4049  0.2858 -0.4040
  109CHL1  H12A14284   3.784   1.259  12.206  0.0393 -0.6459 -1.3217
  109CHL1  H12B14285   3.622   1.199  12.255 -1.1001 -3.3287 -1.9419
  109CHL1   C1114286   3.781   1.190  12.409 -0.0769  0.8460  0.2341
  109CHL1  H11A14287   3.892   1.179  12.412 -0.2439 -1.1650  1.0194
  109CHL1  H11B14288   3.768   1.295  12.442 -0.5277  1.8749 -2.9315
  109CHL1    C914289   3.726   1.078  12.506  0.0904  0.4358  0.7584
  109CHL1    H914290   3.618   1.101  12.516  0.3516  1.7571  0.7650
  109CHL1   C1014291   3.788   1.074  12.651 -0.3647 -0.0105 -0.2666
  109CHL1   C1914292   3.944   1.097  12.639 -0.3228 -0.2344 -0.6573
  109CHL1  H19A14293   3.980   1.090  12.744  0.1789  1.2504 -0.7125
  109CHL1  H19B14294   3.983   1.010  12.582  2.4128  0.9940 -0.7954
  109CHL1  H19C14295   3.966   1.197  12.597 -0.1065 -0.1649 -0.3803
  109CHL1    C114296   3.727   1.195  12.731  0.4351  0.0511  0.4561
  109CHL1   H1A14297   3.753   1.291  12.682 -1.3493 -0.1046 -0.9073
  109CHL1   H1B14298   3.617   1.184  12.719  0.5131 -1.3114  0.8141
  109CHL1    C214299   3.765   1.192  12.884 -0.3823  0.4200  0.2322
  109CHL1   H2A14300   3.725   1.284  12.932 -0.0914 -0.8209  2.9811
  109CHL1   H2B14301   3.875   1.209  12.880 -0.5013  1.9023  2.1398
  109CHL1   C2014302   3.742   1.095  11.950  0.6070 -0.0393 -0.9380
  109CHL1   H2014303   3.815   1.169  11.988 -0.5342  1.1650 -1.0378
  109CHL1   C2114304   3.628   1.184  11.893 -0.0119 -0.0577 -0.1600
  109CHL1  H21A14305   3.533   1.126  11.884 -1.1963  1.5476  1.2744
  109CHL1  H21B14306   3.650   1.220  11.790  0.2665 -2.8251 -1.1524
  109CHL1  H21C14307   3.595   1.258  11.970  0.5295 -1.0766  1.0745
  109CHL1   C2214308   3.816   1.013  11.845 -0.0419  0.4748 -1.0932
  109CHL1  H22A14309   3.887   0.946  11.897 -0.2640 -0.4930 -2.0044
  109CHL1  H22B14310   3.735   0.957  11.794  1.2726 -1.8251 -0.7672
  109CHL1   C2314311   3.884   1.090  11.740 -0.4045  0.2267  0.4620
  109CHL1  H23A14312   3.816   1.105  11.654 -0.8667 -0.7940  0.6408
  109CHL1  H23B14313   3.920   1.189  11.776 -0.3830  0.2536  0.3667
  109CHL1   C2414314   4.000   1.005  11.685 -0.7253 -0.7790  0.0567
  109CHL1  H24A14315   4.056   1.053  11.603 -0.8969 -2.2094 -0.9271
  109CHL1  H24B14316   4.073   0.977  11.764  1.1235 -1.0805 -1.7025
  109CHL1   C2514317   3.960   0.875  11.619 -0.4343  0.8296  0.0761
  109CHL1   H2514318   3.881   0.836  11.687  0.1927  1.4459  1.1790
  109CHL1   C2614319   3.893   0.877  11.483  0.6800  0.5820  0.1021
  109CHL1  H26A14320   3.816   0.957  11.480 -2.0130 -1.8708 -0.7363
  109CHL1  H26B14321   3.984   0.899  11.423  1.0800 -5.0898 -1.9888
  109CHL1  H26C14322   3.842   0.779  11.467  1.3540  0.1040  0.8177
  109CHL1   C2714323   4.081   0.777  11.610 -0.1387  0.0372 -0.1546
  109CHL1  H27A14324   4.151   0.781  11.696 -0.5802  0.1241  0.2040
  109CHL1  H27B14325   4.049   0.674  11.582 -0.8782 -0.2183  1.5385
  109CHL1  H27C14326   4.132   0.825  11.523 -1.6882  4.0640  0.9323
  110CHL1    C314327   1.342   5.113  12.863 -0.5020  0.5653 -0.0503
  110CHL1    H314328   1.430   5.179  12.858 -0.5590  0.5919 -0.8519
  110CHL1    O314329   1.334   5.071  12.999  0.2230 -0.4271 -0.4938
  110CHL1   H3'14330   1.321   5.156  13.041 -0.1946  0.8306 -2.9812
  110CHL1    C414331   1.219   5.188  12.822 -0.9508  0.5087  0.6424
  110CHL1   H4A14332   1.127   5.126  12.832  0.2799 -1.4180  0.6431
  110CHL1   H4B14333   1.206   5.275  12.890 -6.4264 -0.2883  1.0937
  110CHL1    C514334   1.235   5.233  12.677 -0.0056 -0.2307  0.3778
  110CHL1    C614335   1.231   5.366  12.647 -0.5321 -1.3257  0.0213
  110CHL1    H614336   1.215   5.436  12.731 -3.0861 -1.1879 -0.4802
  110CHL1    C714337   1.239   5.420  12.508  0.3059 -0.1089  0.3765
  110CHL1   H7A14338   1.167   5.502  12.488 -0.4494 -0.4302  1.6910
  110CHL1   H7B14339   1.345   5.453  12.496  1.3288 -3.1897 -0.0054
  110CHL1    C814340   1.219   5.308  12.399  0.7176 -0.9492 -0.4523
  110CHL1    H814341   1.110   5.287  12.390 -0.2994  2.8635  0.8936
  110CHL1   C1414342   1.265   5.359  12.267 -0.2742 -0.3953  0.1513
  110CHL1   H1414343   1.373   5.384  12.273 -0.3649 -0.2349  1.6565
  110CHL1   C1514344   1.200   5.493  12.222  0.5762 -0.7279  0.1917
  110CHL1  H15A14345   1.090   5.497  12.230  0.5066 -0.7059 -0.6437
  110CHL1  H15B14346   1.251   5.579  12.271 -2.6167  1.6308 -0.2638
  110CHL1   C1614347   1.237   5.491  12.069  0.2430 -0.5530 -0.0306
  110CHL1  H16A14348   1.139   5.504  12.018  0.0558 -0.3692  0.3680
  110CHL1  H16B14349   1.311   5.568  12.039  1.5720 -1.8325 -0.1379
  110CHL1   C1714350   1.298   5.356  12.036 -0.1214  0.2058 -0.4755
  110CHL1   H1714351   1.407   5.362  12.057  0.1837 -0.3668 -1.8037
  110CHL1   C1314352   1.258   5.255  12.153 -1.2791 -0.4650 -0.2823
  110CHL1   C1814353   1.102   5.222  12.122 -0.2577  0.0171 -0.7863
  110CHL1  H18A14354   1.080   5.189  12.019 -1.6462  0.8831 -0.7932
  110CHL1  H18B14355   1.071   5.149  12.199 -0.0478  0.2960 -0.4308
  110CHL1  H18C14356   1.039   5.310  12.148  1.1331  0.0950  2.9964
  110CHL1   C1214357   1.342   5.129  12.176  0.5575 -0.0280 -0.9562
  110CHL1  H12A14358   1.334   5.060  12.089  2.8233 -3.4105  1.2573
  110CHL1  H12B14359   1.450   5.152  12.187  1.2566 -2.1422 -2.5869
  110CHL1   C1114360   1.290   5.072  12.313  0.3772  0.4021  0.1200
  110CHL1  H11A14361   1.184   5.040  12.300  0.1181  1.4630 -0.5404
  110CHL1  H11B14362   1.356   4.986  12.338  0.1277  0.0559 -0.4026
  110CHL1    C914363   1.294   5.178  12.428  0.1241 -0.1108 -0.0927
  110CHL1    H914364   1.401   5.205  12.435 -0.3390  1.6172  0.7430
  110CHL1   C1014365   1.257   5.122  12.572  0.6850 -0.2716  0.0693
  110CHL1   C1914366   1.135   5.045  12.553  0.4607  0.9382 -0.1475
  110CHL1  H19A14367   1.145   4.960  12.483 -2.7421 -1.0177  1.5695
  110CHL1  H19B14368   1.096   5.001  12.647 -0.4877 -0.3261 -1.1043
  110CHL1  H19C14369   1.052   5.107  12.512 -0.6991 -1.2432 -1.2410
  110CHL1    C114370   1.369   5.030  12.627 -0.1510 -0.1169 -0.0942
  110CHL1   H1A14371   1.378   4.941  12.562  1.1936  1.1823 -1.7956
  110CHL1   H1B14372   1.464   5.085  12.611  1.1918 -2.5625 -1.0416
  110CHL1    C214373   1.367   4.988  12.774  0.0758  0.3160 -0.3416
  110CHL1   H2A14374   1.458   4.929  12.798 -0.9673 -1.0953  0.2767
  110CHL1   H2B14375   1.285   4.921  12.807  0.0266  0.4927 -0.1047
  110CHL1   C2014376   1.282   5.310  11.887  0.0259 -0.5228 -0.1043
  110CHL1   H2014377   1.184   5.262  11.866  0.4126 -0.5979 -1.8360
  110CHL1   C2114378   1.385   5.203  11.849 -0.2761  0.0384 -0.0209
  110CHL1  H21A14379   1.367   5.164  11.747  1.2380 -0.5594 -0.0903
  110CHL1  H21B14380   1.378   5.110  11.910 -0.7914  0.2297  0.2127
  110CHL1  H21C14381   1.483   5.257  11.846 -0.0474 -0.3406  0.4012
  110CHL1   C2214382   1.279   5.428  11.787 -0.6438 -0.2183  0.0872
  110CHL1  H22A14383   1.193   5.496  11.799  0.7140  1.6016 -0.0437
  110CHL1  H22B14384   1.371   5.490  11.791 -1.7496  1.6514 -1.5574
  110CHL1   C2314385   1.250   5.391  11.647  0.1280  0.1231  0.0975
  110CHL1  H23A14386   1.328   5.328  11.598  1.5402  1.6649  0.2842
  110CHL1  H23B14387   1.156   5.332  11.652 -0.6068  1.2337 -0.2835
  110CHL1   C2414388   1.240   5.512  11.559  0.5198  0.4147 -0.2813
  110CHL1  H24A14389   1.170   5.592  11.590 -0.1718 -0.6996  1.1234
  110CHL1  H24B14390   1.342   5.553  11.544  1.2378 -0.7381  1.2572
  110CHL1   C2514391   1.196   5.480  11.412  0.3353  0.5508 -0.3551
  110CHL1   H2514392   1.246   5.391  11.367  1.0870  1.5734 -1.5813
  110CHL1   C2614393   1.044   5.464  11.407  0.8781 -0.2243 -0.3052
  110CHL1  H26A14394   1.018   5.379  11.474  1.1820  0.0650  0.1841
  110CHL1  H26B14395   0.997   5.557  11.446  0.8152  0.2369 -1.4353
  110CHL1  H26C14396   1.003   5.438  11.307 -2.0946  2.0495  0.1781
  110CHL1   C2714397   1.229   5.593  11.319  0.1202 -0.2915  0.4177
  110CHL1  H27A14398   1.215   5.695  11.360  2.9448  0.1002  0.6113
  110CHL1  H27B14399   1.337   5.602  11.295 -0.4137  2.7153 -1.3077
  110CHL1  H27C14400   1.181   5.591  11.219  0.9003 -1.8457  0.0439
  111CHL1    C314401   4.117   0.629  12.810 -0.4768  0.0295  0.5513
  111CHL1    H314402   4.028   0.566  12.793 -1.4759  2.0146 -2.2820
  111CHL1    O314403   4.117   0.656  12.950 -0.4996 -0.3932  0.4223
  111CHL1   H3'14404   4.209   0.665  12.977 -0.8128  3.3600  0.8306
  111CHL1    C414405   4.252   0.556  12.784  0.3229  0.4024  0.5033
  111CHL1   H4A14406   4.336   0.622  12.811  0.9113  0.6147 -1.6611
  111CHL1   H4B14407   4.257   0.470  12.855  3.4359 -0.8618 -1.0536
  111CHL1    C514408   4.249   0.504  12.641 -0.4580  0.3870 -0.2020
  111CHL1    C614409   4.261   0.370  12.619  0.3106  0.0996  0.1871
  111CHL1    H614410   4.274   0.298  12.701  0.1466  2.3017  2.2966
  111CHL1    C714411   4.261   0.313  12.471  0.6539  0.6460 -0.2651
  111CHL1   H7A14412   4.342   0.237  12.467  0.2322  0.0972  1.2808
  111CHL1   H7B14413   4.166   0.259  12.456 -0.0768  2.4827 -3.0540
  111CHL1    C814414   4.262   0.418  12.364 -1.2228  0.1428 -0.6133
  111CHL1    H814415   4.364   0.455  12.338 -0.6290  0.4090  1.8383
  111CHL1   C1414416   4.206   0.353  12.238  0.5195  0.3045  1.0140
  111CHL1   H1414417   4.098   0.332  12.257 -0.1383 -1.5797 -3.6079
  111CHL1   C1514418   4.247   0.211  12.186 -0.1969  0.1076  0.7403
  111CHL1  H15A14419   4.357   0.196  12.184 -0.0774  0.9284  0.8019
  111CHL1  H15B14420   4.209   0.131  12.254  1.2590  0.5936  2.1937
  111CHL1   C1614421   4.186   0.196  12.043 -0.4246  0.1805  0.0339
  111CHL1  H16A14422   4.266   0.171  11.971  1.5695 -0.1740  2.2684
  111CHL1  H16B14423   4.110   0.115  12.037  0.0786 -0.2177 -1.3636
  111CHL1   C1714424   4.112   0.339  12.014  0.4025  1.3071  0.7648
  111CHL1   H1714425   4.009   0.321  12.052  0.4437 -2.2952 -0.4601
  111CHL1   C1314426   4.185   0.439  12.118 -0.8960 -0.3446 -0.7022
  111CHL1   C1814427   4.329   0.473  12.056 -0.0144 -0.2467 -0.6199
  111CHL1  H18A14428   4.387   0.542  12.121 -1.0176  1.9370 -1.9019
  111CHL1  H18B14429   4.391   0.384  12.036  2.3524  1.0074  0.7529
  111CHL1  H18C14430   4.306   0.534  11.966  1.7493  1.8449  0.2655
  111CHL1   C1214431   4.099   0.558  12.156 -0.6845 -0.2677 -0.1524
  111CHL1  H12A14432   4.078   0.638  12.082 -2.3954 -0.4219  0.1322
  111CHL1  H12B14433   4.001   0.511  12.175 -1.3096  1.0628 -0.0077
  111CHL1   C1114434   4.143   0.633  12.283 -0.1686 -0.0426  0.5374
  111CHL1  H11A14435   4.237   0.689  12.265 -0.1855  0.7248  2.5349
  111CHL1  H11B14436   4.055   0.694  12.310 -0.0099  0.4182  0.0194
  111CHL1    C914437   4.179   0.535  12.401 -0.4678 -0.0372 -0.3045
  111CHL1    H914438   4.079   0.500  12.435 -0.1128 -0.0057  0.8069
  111CHL1   C1014439   4.232   0.609  12.530 -0.2375 -0.2216 -0.2693
  111CHL1   C1914440   4.357   0.685  12.509 -0.2842  0.2947 -0.1530
  111CHL1  H19A14441   4.393   0.730  12.604  1.5687 -0.2437 -0.5612
  111CHL1  H19B14442   4.435   0.610  12.484 -2.4476 -1.2978 -2.5353
  111CHL1  H19C14443   4.359   0.770  12.438  0.7220  0.6252  0.2434
  111CHL1    C114444   4.117   0.714  12.573 -0.3381 -0.2949  0.2107
  111CHL1   H1A14445   4.125   0.809  12.516  1.6647 -0.7358 -0.3104
  111CHL1   H1B14446   4.023   0.668  12.533 -1.1851  2.0047 -0.6039
  111CHL1    C214447   4.106   0.755  12.722  0.1046 -0.4823  0.2661
  111CHL1   H2A14448   4.006   0.798  12.745 -0.5860 -2.1366  0.5176
  111CHL1   H2B14449   4.188   0.825  12.750  0.4987 -0.1826 -1.5019
  111CHL1   C2014450   4.115   0.384  11.869 -0.1216  0.3749  0.2997
  111CHL1   H2014451   4.218   0.405  11.835  0.1634 -2.6386 -1.0342
  111CHL1   C2114452   4.017   0.501  11.856 -0.2798  0.3706  0.0609
  111CHL1  H21A14453   4.053   0.600  11.890 -1.2724  0.9210 -0.4543
  111CHL1  H21B14454   3.923   0.481  11.911  0.6132 -0.8936  1.2058
  111CHL1  H21C14455   3.986   0.520  11.751 -0.1595  1.7942  0.2602
  111CHL1   C2214456   4.062   0.269  11.781  0.2295  0.3242 -0.0784
  111CHL1  H22A14457   4.123   0.178  11.799 -0.2101 -0.1424 -0.8947
  111CHL1  H22B14458   3.958   0.236  11.803 -0.0257  0.2012 -1.3882
  111CHL1   C2314459   4.054   0.285  11.629 -0.3665 -0.3658 -0.1718
  111CHL1  H23A14460   3.952   0.321  11.603 -1.3912 -0.6695  2.9743
  111CHL1  H23B14461   4.116   0.366  11.585  0.6417 -2.9262 -3.9702
  111CHL1   C2414462   4.105   0.165  11.545  0.1144 -0.8342  0.3203
  111CHL1  H24A14463   4.210   0.135  11.563  0.3983  0.0900  0.2560
  111CHL1  H24B14464   4.038   0.080  11.572 -1.6298 -0.5784 -2.7181
  111CHL1   C2514465   4.080   0.194  11.393 -0.9205 -0.1588  0.2351
  111CHL1   H2514466   4.132   0.286  11.360  2.1678 -2.7382 -2.8932
  111CHL1   C2614467   4.144   0.085  11.301  0.1785  0.1355 -0.0114
  111CHL1  H26A14468   4.149   0.118  11.195 -2.1107  0.0181 -0.1937
  111CHL1  H26B14469   4.246   0.057  11.334  0.9424  2.2806 -0.3837
  111CHL1  H26C14470   4.084  -0.009  11.295 -0.8833  0.8549 -1.3033
  111CHL1   C2714471   3.932   0.209  11.345  0.3110  0.4011 -0.2939
  111CHL1  H27A14472   3.937   0.193  11.235 -1.1274 -2.7496 -0.0105
  111CHL1  H27B14473   3.865   0.130  11.384 -0.6581  0.9522 -0.8053
  111CHL1  H27C14474   3.903   0.312  11.377  0.0007  0.2737 -0.1646
  112CHL1    C314475   5.003   1.793  13.026  0.1120 -0.8494  0.0033
  112CHL1    H314476   4.950   1.890  13.017  1.4457 -0.2184 -1.6025
  112CHL1    O314477   5.003   1.765  13.168 -0.6291 -0.6795  0.3535
  112CHL1   H3'14478   5.078   1.818  13.194  0.6659 -1.9552 -0.5896
  112CHL1    C414479   4.925   1.682  12.942 -0.1964 -0.2189  1.1472
  112CHL1   H4A14480   4.970   1.582  12.960  1.3158 -0.1770 -1.8536
  112CHL1   H4B14481   4.822   1.680  12.985 -1.1661  2.4260 -0.7569
  112CHL1    C514482   4.931   1.720  12.789  0.4986  0.2018 -0.0538
  112CHL1    C614483   4.812   1.721  12.724 -0.3359  0.4361 -0.2403
  112CHL1    H614484   4.724   1.688  12.782  0.9592 -0.5057  1.2788
  112CHL1    C714485   4.808   1.757  12.578 -0.3810 -0.5112  0.6647
  112CHL1   H7A14486   4.745   1.698  12.508  1.6768 -1.9526 -0.0589
  112CHL1   H7B14487   4.757   1.856  12.577 -0.4683 -0.5516  1.0331
  112CHL1    C814488   4.949   1.760  12.504 -0.0416 -0.2051 -0.4104
  112CHL1    H814489   4.980   1.655  12.486  1.9042  0.3505 -0.4897
  112CHL1   C1414490   4.935   1.831  12.369 -0.0560 -0.8165 -0.5007
  112CHL1   H1414491   4.923   1.940  12.390  1.8595 -0.6566 -0.0639
  112CHL1   C1514492   4.820   1.790  12.278 -0.3981  0.6003 -0.1146
  112CHL1  H15A14493   4.815   1.679  12.271 -0.2069  0.4866  1.1987
  112CHL1  H15B14494   4.723   1.838  12.304 -1.4878  0.3271 -3.2571
  112CHL1   C1614495   4.874   1.841  12.139  0.2424 -0.1865  0.4620
  112CHL1  H16A14496   4.874   1.748  12.078  0.7044  1.2393 -1.7974
  112CHL1  H16B14497   4.803   1.916  12.099 -1.5114 -0.9050  2.0876
  112CHL1   C1714498   5.017   1.902  12.162  0.0003 -0.5556  1.1163
  112CHL1   H1714499   5.007   2.011  12.180 -0.0741 -0.3102 -0.2736
  112CHL1   C1314500   5.066   1.827  12.283 -0.4516  0.2373  0.5358
  112CHL1   C1814501   5.097   1.681  12.252 -0.6244 -0.3259  0.4236
  112CHL1  H18A14502   5.020   1.630  12.192  0.0558 -1.0974  0.1951
  112CHL1  H18B14503   5.189   1.680  12.190 -0.2347  1.1908  0.9201
  112CHL1  H18C14504   5.115   1.622  12.344  0.6130  0.4018  0.6794
  112CHL1   C1214505   5.174   1.897  12.369  0.3565 -0.0503 -0.4456
  112CHL1  H12A14506   5.276   1.891  12.326  0.1154 -1.0165 -0.9134
  112CHL1  H12B14507   5.145   2.003  12.383  1.3505 -0.0554  2.2028
  112CHL1   C1114508   5.189   1.830  12.507 -0.5066  0.4583  0.1062
  112CHL1  H11A14509   5.209   1.724  12.479 -1.8507  0.3320 -0.4314
  112CHL1  H11B14510   5.276   1.877  12.558  0.9914 -0.2944 -1.6385
  112CHL1    C914511   5.057   1.823  12.592  0.0754 -0.0916 -0.2177
  112CHL1    H914512   5.027   1.927  12.617  1.2119  0.1062  0.3823
  112CHL1   C1014513   5.067   1.751  12.735  0.2786  0.3533 -0.4726
  112CHL1   C1914514   5.142   1.617  12.720  0.9136 -0.2897  0.1410
  112CHL1  H19A14515   5.243   1.636  12.679  0.7442  0.3136  0.0004
  112CHL1  H19B14516   5.146   1.559  12.815  2.7717 -1.5772 -0.6510
  112CHL1  H19C14517   5.086   1.547  12.654  0.0751  0.5390 -0.0354
  112CHL1    C114518   5.145   1.846  12.830  0.0123 -0.6297 -1.2206
  112CHL1   H1A14519   5.240   1.857  12.774 -0.0551 -0.1647 -1.2479
  112CHL1   H1B14520   5.080   1.937  12.828 -2.3114 -1.9507  2.7108
  112CHL1    C214521   5.147   1.808  12.979 -0.1750 -0.6040 -0.4923
  112CHL1   H2A14522   5.204   1.878  13.043  0.4822 -2.4374  1.0297
  112CHL1   H2B14523   5.210   1.717  12.982  2.6063  1.1542 -1.7675
  112CHL1   C2014524   5.102   1.896  12.038  0.4966  0.0354 -0.3601
  112CHL1   H2014525   5.120   1.790  12.011 -0.7892 -0.1940 -0.3816
  112CHL1   C2114526   5.242   1.950  12.058  0.4644  0.7687 -0.2611
  112CHL1  H21A14527   5.306   1.874  12.107  0.9634  0.5772 -1.1951
  112CHL1  H21B14528   5.239   2.042  12.120 -0.3843  0.9924 -0.6111
  112CHL1  H21C14529   5.296   1.972  11.964  2.2011  0.1402  0.5528
  112CHL1   C2214530   5.045   1.973  11.916 -0.1770 -0.7709  0.0232
  112CHL1  H22A14531   4.946   1.928  11.891  0.0127 -0.4683 -1.3061
  112CHL1  H22B14532   5.048   2.077  11.954  2.1386 -1.2015  1.2059
  112CHL1   C2314533   5.125   1.960  11.782  0.4120  0.6459 -0.7663
  112CHL1  H23A14534   5.219   2.019  11.785 -0.5999  2.3001 -0.5350
  112CHL1  H23B14535   5.166   1.858  11.766  0.1388 -0.2876  3.3162
  112CHL1   C2414536   5.035   1.988  11.658 -0.3991  0.5724 -0.2654
  112CHL1  H24A14537   4.967   1.902  11.645 -0.0833  0.1687  0.6345
  112CHL1  H24B14538   4.975   2.080  11.676 -1.2682 -0.2334  1.1841
  112CHL1   C2514539   5.121   2.012  11.528  0.4556 -0.0634  0.1299
  112CHL1   H2514540   5.200   2.088  11.543  1.2365 -0.9533  0.6440
  112CHL1   C2614541   5.175   1.881  11.485 -0.7619  0.1813  0.2996
  112CHL1  H26A14542   5.105   1.800  11.457  0.2755 -0.2199 -1.3396
  112CHL1  H26B14543   5.230   1.902  11.390  0.1323  1.9893  1.1580
  112CHL1  H26C14544   5.243   1.842  11.563 -1.7151  0.5429  1.3196
  112CHL1   C2714545   5.018   2.061  11.421 -0.3645 -0.0918  0.6824
  112CHL1  H27A14546   4.978   2.160  11.453  1.6834  0.4829  1.6052
  112CHL1  H27B14547   5.067   2.090  11.325 -1.0311 -0.1933  0.2967
  112CHL1  H27C14548   4.933   1.993  11.401 -0.2018 -0.6150  1.7199
  113CHL1    C314549   1.007   5.568  13.147  0.9261  0.9507  0.9121
  113CHL1    H314550   1.109   5.598  13.113 -0.0644  0.2698 -3.2079
  113CHL1    O314551   0.994   5.547  13.284  0.1873  0.1583  0.0071
  113CHL1   H3'14552   0.910   5.502  13.291  0.5919 -0.7303 -0.5682
  113CHL1    C414553   0.905   5.660  13.091  0.8131  0.0310  0.4806
  113CHL1   H4A14554   0.805   5.637  13.134  0.1724 -2.0622 -1.9324
  113CHL1   H4B14555   0.927   5.761  13.132  2.0988 -0.4008  0.9018
  113CHL1    C514556   0.898   5.663  12.939  1.0551 -0.3034 -0.2798
  113CHL1    C614557   0.902   5.780  12.859  0.1965  0.2296 -0.5360
  113CHL1    H614558   0.909   5.877  12.911 -0.4510  0.6447 -1.2148
  113CHL1    C714559   0.871   5.782  12.712 -0.4231 -0.4016 -0.4166
  113CHL1   H7A14560   0.812   5.872  12.686  1.5751  1.3966  0.9504
  113CHL1   H7B14561   0.973   5.803  12.672 -0.2491  0.3659  0.4068
  113CHL1    C814562   0.810   5.646  12.662  0.6304 -0.5899 -0.0469
  113CHL1    H814563   0.702   5.635  12.689 -0.2773 -2.5066 -3.7322
  113CHL1   C1414564   0.803   5.632  12.509 -0.7110 -0.7522  0.7217
  113CHL1   H1414565   0.910   5.626  12.481 -0.6657 -1.0125  0.9444
  113CHL1   C1514566   0.738   5.749  12.436 -0.7136  0.1058  0.6514
  113CHL1  H15A14567   0.642   5.775  12.485  0.6874  2.2169  2.4473
  113CHL1  H15B14568   0.808   5.835  12.430  0.0852 -0.4738  1.4477
  113CHL1   C1614569   0.711   5.686  12.292  0.3158  0.4898 -0.4968
  113CHL1  H16A14570   0.602   5.697  12.273  0.4244  0.8761 -0.9309
  113CHL1  H16B14571   0.752   5.750  12.210 -0.9377  1.8844 -0.0877
  113CHL1   C1714572   0.756   5.537  12.298  0.1440  0.0830  0.2889
  113CHL1   H1714573   0.861   5.543  12.262 -0.3684  3.6078 -0.9654
  113CHL1   C1314574   0.749   5.507  12.448 -0.2005  0.6868 -0.0502
  113CHL1   C1814575   0.597   5.488  12.492 -0.2300 -0.1068 -0.0192
  113CHL1  H18A14576   0.547   5.391  12.474 -0.4062 -0.6960  3.1147
  113CHL1  H18B14577   0.583   5.500  12.602  0.8423 -2.3764  0.4186
  113CHL1  H18C14578   0.529   5.565  12.450 -0.1051  0.5126  0.8649
  113CHL1   C1214579   0.834   5.394  12.500  0.3585 -0.2680  0.3349
  113CHL1  H12A14580   0.804   5.303  12.443  2.6497  0.1878 -1.7476
  113CHL1  H12B14581   0.940   5.412  12.472  0.3622 -0.7884  0.0105
  113CHL1   C1114582   0.836   5.384  12.653 -0.1554 -0.0742 -0.2634
  113CHL1  H11A14583   0.735   5.352  12.687 -0.6352  1.2194 -0.4016
  113CHL1  H11B14584   0.897   5.300  12.691  1.3056  2.3057  3.2705
  113CHL1    C914585   0.883   5.520  12.717 -0.3791  0.1649 -1.2421
  113CHL1    H914586   0.991   5.527  12.691  0.0813  0.8461  0.6483
  113CHL1   C1014587   0.870   5.526  12.875 -0.4892 -0.3877 -0.4963
  113CHL1   C1914588   0.725   5.483  12.909  0.6018  0.5402  0.1150
  113CHL1  H19A14589   0.695   5.505  13.014  1.3331 -1.9150  0.8955
  113CHL1  H19B14590   0.652   5.530  12.839  1.1947 -1.0840 -1.6910
  113CHL1  H19C14591   0.702   5.375  12.899 -2.2939  0.9594  1.2579
  113CHL1    C114592   0.971   5.427  12.941  0.0918 -0.2941  0.0654
  113CHL1   H1A14593   0.944   5.326  12.903  2.5982 -0.8238 -0.5403
  113CHL1   H1B14594   1.073   5.451  12.904 -0.0616 -0.6135 -0.5851
  113CHL1    C214595   0.974   5.424  13.093  0.0086  0.0908 -0.5510
  113CHL1   H2A14596   1.050   5.352  13.130  0.4461  0.9660  0.3010
  113CHL1   H2B14597   0.870   5.397  13.122 -0.3133  1.1458 -0.6797
  113CHL1   C2014598   0.685   5.446  12.201 -0.2024  0.1966  0.0483
  113CHL1   H2014599   0.582   5.437  12.240  0.6976 -2.7549  2.1453
  113CHL1   C2114600   0.750   5.306  12.203  0.0909  0.3632 -0.1331
  113CHL1  H21A14601   0.756   5.261  12.101  0.0796  0.6040 -0.2400
  113CHL1  H21B14602   0.697   5.233  12.268 -0.1440 -0.3297 -1.0831
  113CHL1  H21C14603   0.857   5.313  12.233 -0.8686  3.2000  3.3297
  113CHL1   C2214604   0.677   5.507  12.061  0.2785 -0.1962  0.7242
  113CHL1  H22A14605   0.627   5.434  11.993  1.7255  1.5902 -2.4219
  113CHL1  H22B14606   0.620   5.602  12.055  2.1819  0.9559  0.1880
  113CHL1   C2314607   0.814   5.526  11.990  0.2135 -0.1137 -0.3235
  113CHL1  H23A14608   0.888   5.571  12.060 -0.8857  1.5704 -0.1825
  113CHL1  H23B14609   0.861   5.430  11.961  0.2727  0.4243 -2.1550
  113CHL1   C2414610   0.811   5.626  11.868 -0.0697  0.6144 -0.0062
  113CHL1  H24A14611   0.752   5.715  11.897 -1.0282  0.4269 -1.3099
  113CHL1  H24B14612   0.914   5.654  11.837  1.0907 -1.5502  1.5963
  113CHL1   C2514613   0.723   5.597  11.747 -0.4244  0.4357 -0.2600
  113CHL1   H2514614   0.626   5.568  11.792 -0.3936 -1.8737 -1.4970
  113CHL1   C2614615   0.698   5.717  11.651  0.3611 -0.4491  0.0628
  113CHL1  H26A14616   0.618   5.691  11.578  0.5263  1.8617 -1.0273
  113CHL1  H26B14617   0.653   5.801  11.709  0.2802  0.1934 -0.9157
  113CHL1  H26C14618   0.786   5.738  11.587  0.4576 -1.8896 -0.2978
  113CHL1   C2714619   0.774   5.472  11.672  0.2251 -0.0513 -0.5720
  113CHL1  H27A14620   0.864   5.492  11.610 -0.6273  1.3442 -1.4227
  113CHL1  H27B14621   0.795   5.389  11.743 -1.8424  1.8996  2.5206
  113CHL1  H27C14622   0.690   5.449  11.603 -0.5871  0.3461  0.2610
  114CHL1    C314623   5.606   0.200  13.189 -1.2016  0.3107  0.0494
  114CHL1    H314624   5.701   0.257  13.196 -1.3990  0.3875  4.1782
  114CHL1    O314625   5.549   0.186  13.312 -0.0567  0.0260 -0.5317
  114CHL1   H3'14626   5.455   0.197  13.296 -0.2595  4.1911  2.0356
  114CHL1    C414627   5.501   0.260  13.097  0.0713 -0.0840  0.3708
  114CHL1   H4A14628   5.408   0.199  13.097  0.0172 -0.0191 -0.3985
  114CHL1   H4B14629   5.470   0.361  13.133 -2.6501 -1.0458  0.9560
  114CHL1    C514630   5.539   0.260  12.957 -0.7269  0.0612  0.6760
  114CHL1    C614631   5.542   0.370  12.884 -0.1440 -0.2365 -0.1218
  114CHL1    H614632   5.509   0.466  12.926 -1.1847 -1.2498  1.4968
  114CHL1    C714633   5.561   0.374  12.734 -0.8753 -0.0640 -0.4897
  114CHL1   H7A14634   5.483   0.439  12.691  0.3151  1.9388  0.2334
  114CHL1   H7B14635   5.657   0.427  12.715 -1.5226  1.0611 -0.7057
  114CHL1    C814636   5.560   0.234  12.672 -0.1681  0.2820 -0.5688
  114CHL1    H814637   5.453   0.204  12.677 -0.3060  0.5636 -1.5657
  114CHL1   C1414638   5.624   0.239  12.529  0.3513  0.3690 -0.8380
  114CHL1   H1414639   5.729   0.269  12.553 -0.0664  0.5344  0.9575
  114CHL1   C1514640   5.558   0.339  12.440  0.6322  0.1280 -0.4611
  114CHL1  H15A14641   5.448   0.326  12.448  0.3421  2.1490 -0.6265
  114CHL1  H15B14642   5.577   0.447  12.459  2.1782 -0.0526 -0.8547
  114CHL1   C1614643   5.621   0.299  12.301 -0.0163 -0.4509  0.0766
  114CHL1  H16A14644   5.549   0.306  12.217 -2.1206  0.0764  1.8457
  114CHL1  H16B14645   5.710   0.366  12.290 -1.5017  1.6223  0.1256
  114CHL1   C1714646   5.676   0.154  12.313  0.1090  0.0400  0.1494
  114CHL1   H1714647   5.787   0.158  12.323  0.1366 -0.4859  0.0944
  114CHL1   C1314648   5.619   0.108  12.457  0.2892  0.1703  0.0203
  114CHL1   C1814649   5.477   0.052  12.442  0.1339  0.7667  0.2296
  114CHL1  H18A14650   5.417   0.094  12.358 -0.2056 -0.8310 -0.3694
  114CHL1  H18B14651   5.480  -0.056  12.414 -0.6302  1.0500 -1.0375
  114CHL1  H18C14652   5.411   0.035  12.530 -0.4269 -1.4381 -0.5523
  114CHL1   C1214653   5.705   0.007  12.529  0.1942  0.2469 -0.0948
  114CHL1  H12A14654   5.708  -0.095  12.484 -3.4255  0.1915 -0.4991
  114CHL1  H12B14655   5.811   0.039  12.526  0.7507 -1.5380 -1.1377
  114CHL1   C1114656   5.657  -0.009  12.677 -0.3236  0.2352  0.6046
  114CHL1  H11A14657   5.569  -0.077  12.672  0.6245 -0.9321 -1.2374
  114CHL1  H11B14658   5.739  -0.062  12.729  0.3200  0.0778 -0.5237
  114CHL1    C914659   5.637   0.131  12.750  0.9470 -0.7052 -0.1624
  114CHL1    H914660   5.739   0.172  12.769 -0.0157  1.9823 -0.3686
  114CHL1   C1014661   5.572   0.125  12.893 -0.7867  0.5831  0.8207
  114CHL1   C1914662   5.441   0.049  12.889 -0.1627  0.6243  0.1330
  114CHL1  H19A14663   5.361   0.111  12.843  0.9717 -0.8966 -4.5048
  114CHL1  H19B14664   5.444  -0.043  12.827  0.8456  0.9083 -0.2537
  114CHL1  H19C14665   5.406   0.010  12.987 -1.5497 -0.3605 -0.7085
  114CHL1    C114666   5.677   0.061  12.989 -0.7611  0.6155 -1.3235
  114CHL1   H1A14667   5.705  -0.040  12.952 -0.0486  0.5372 -0.5912
  114CHL1   H1B14668   5.766   0.125  12.972 -1.6628  1.9743 -1.0251
  114CHL1    C214669   5.640   0.058  13.136 -0.0700 -0.4733 -0.5940
  114CHL1   H2A14670   5.717   0.010  13.200  0.9428  1.1952 -0.4966
  114CHL1   H2B14671   5.546  -0.001  13.136 -1.1929  1.1661 -2.8975
  114CHL1   C2014672   5.660   0.061  12.188  0.6757 -1.0639  0.2166
  114CHL1   H2014673   5.553   0.045  12.165  0.0994  1.3009  0.9629
  114CHL1   C2114674   5.721  -0.071  12.208  0.1810  0.4991 -0.8456
  114CHL1  H21A14675   5.731  -0.130  12.114  0.3363 -1.8148  0.5440
  114CHL1  H21B14676   5.659  -0.141  12.266  0.1526  0.2774 -1.1383
  114CHL1  H21C14677   5.821  -0.060  12.256  0.6384  0.4371 -1.7496
  114CHL1   C2214678   5.692   0.132  12.053  0.2522  0.0199  0.5300
  114CHL1  H22A14679   5.656   0.237  12.053  0.5031  0.1073  1.1090
  114CHL1  H22B14680   5.803   0.132  12.045  0.1562  1.8660 -2.1097
  114CHL1   C2314681   5.643   0.055  11.929  0.6915 -0.2459 -0.9651
  114CHL1  H23A14682   5.654  -0.056  11.930  0.6703 -0.2510  0.5767
  114CHL1  H23B14683   5.534   0.075  11.916  0.5224 -0.1577  0.5201
  114CHL1   C2414684   5.709   0.106  11.797  0.0181 -0.2859 -0.0456
  114CHL1  H24A14685   5.689   0.215  11.796  0.3316 -0.0044  4.1949
  114CHL1  H24B14686   5.816   0.082  11.809 -0.1067  0.2458  3.0230
  114CHL1   C2514687   5.663   0.046  11.659 -0.7145 -0.4449  0.4004
  114CHL1   H2514688   5.675  -0.064  11.669  0.8290 -0.3062  0.3467
  114CHL1   C2614689   5.509   0.072  11.624  0.2862  0.1971 -0.2467
  114CHL1  H26A14690   5.489   0.003  11.540 -0.2253 -0.6024  0.5163
  114CHL1  H26B14691   5.448   0.033  11.708  0.4302  3.1409  1.3513
  114CHL1  H26C14692   5.491   0.174  11.585  0.6429  0.1836 -0.4546
  114CHL1   C2714693   5.756   0.103  11.552 -0.6515  0.2840 -0.0047
  114CHL1  H27A14694   5.863   0.108  11.580 -0.1066 -0.6301 -1.8039
  114CHL1  H27B14695   5.752   0.045  11.457 -0.7902 -0.8954  0.7041
  114CHL1  H27C14696   5.724   0.206  11.523  0.5430  0.3260 -1.2546
  115CHL1    C314697   2.749   2.285  13.364 -0.1888 -0.2214 -0.5980
  115CHL1    H314698   2.639   2.295  13.352 -0.0725 -0.7106 -2.3596
  115CHL1    O314699   2.785   2.265  13.497 -0.0646 -0.7610 -0.2475
  115CHL1   H3'14700   2.867   2.216  13.492  0.8688  0.6273  0.7834
  115CHL1    C414701   2.815   2.168  13.292  0.1502  0.0239  0.4253
  115CHL1   H4A14702   2.925   2.170  13.308  0.0972 -1.9956  1.4927
  115CHL1   H4B14703   2.773   2.071  13.327  1.8593 -0.4102  1.4558
  115CHL1    C514704   2.794   2.185  13.147  0.1677 -0.2508  0.2306
  115CHL1    C614705   2.728   2.095  13.083  0.5698 -0.1497  0.7816
  115CHL1    H614706   2.685   2.006  13.130 -0.0176 -1.5700 -2.2062
  115CHL1    C714707   2.708   2.103  12.937  0.3564 -0.5295  0.0717
  115CHL1   H7A14708   2.744   2.004  12.902 -0.9329 -1.2697  0.7420
  115CHL1   H7B14709   2.599   2.116  12.918  0.1555 -1.9752  0.0915
  115CHL1    C814710   2.789   2.217  12.866  0.0714 -0.4146 -0.3922
  115CHL1    H814711   2.895   2.185  12.863 -0.2884 -1.6017 -1.2672
  115CHL1   C1414712   2.734   2.251  12.724 -0.2244 -0.8070 -0.0990
  115CHL1   H1414713   2.629   2.280  12.741 -0.0479  0.0213 -0.4024
  115CHL1   C1514714   2.718   2.130  12.625 -0.2093 -0.0390  0.3522
  115CHL1  H15A14715   2.806   2.066  12.604  1.0750  1.8827 -0.4372
  115CHL1  H15B14716   2.631   2.072  12.664 -1.4072  0.3279 -1.6183
  115CHL1   C1614717   2.685   2.220  12.500  0.5558 -0.1599 -0.3898
  115CHL1  H16A14718   2.734   2.171  12.413  1.2023  1.9376 -1.2516
  115CHL1  H16B14719   2.575   2.221  12.485  0.6408 -0.3521 -1.0358
  115CHL1   C1714720   2.730   2.372  12.530 -0.5408 -0.1043 -0.0878
  115CHL1   H1714721   2.629   2.415  12.549 -0.7069 -0.9785  1.1638
  115CHL1   C1314722   2.808   2.369  12.659  0.1576 -0.3281  0.0438
  115CHL1   C1814723   2.957   2.336  12.616  0.0922 -0.8438 -0.4484
  115CHL1  H18A14724   3.013   2.310  12.708 -0.2691  2.1012  0.6962
  115CHL1  H18B14725   2.966   2.248  12.549  1.4421 -0.5447 -0.6733
  115CHL1  H18C14726   3.012   2.423  12.576 -1.0167 -0.3017 -0.8355
  115CHL1   C1214727   2.796   2.493  12.751 -0.9511 -0.0115  0.1638
  115CHL1  H12A14728   2.833   2.586  12.701  0.5771 -1.6497 -1.9506
  115CHL1  H12B14729   2.686   2.507  12.761 -1.4874 -1.9814 -1.9513
  115CHL1   C1114730   2.843   2.471  12.890 -0.3718  0.4910 -0.6270
  115CHL1  H11A14731   2.954   2.472  12.892 -0.2432 -1.8402 -2.1211
  115CHL1  H11B14732   2.817   2.548  12.965 -0.5362 -0.2099  0.0436
  115CHL1    C914733   2.780   2.342  12.953  0.0639 -0.2867  0.5085
  115CHL1    H914734   2.675   2.376  12.955 -0.0733 -0.6813  0.1885
  115CHL1   C1014735   2.834   2.320  13.096 -0.1661  0.3429  0.3867
  115CHL1   C1914736   2.987   2.327  13.095  0.3057 -0.3737  0.0859
  115CHL1  H19A14737   3.032   2.244  13.037 -0.6496 -1.0857  0.3447
  115CHL1  H19B14738   3.022   2.426  13.058  1.4574 -1.0117 -0.5777
  115CHL1  H19C14739   3.027   2.309  13.197 -1.3545 -0.1374  0.8216
  115CHL1    C114740   2.784   2.442  13.177 -0.4763  0.2725 -0.8556
  115CHL1   H1A14741   2.840   2.534  13.148  0.2048 -0.1974 -1.0601
  115CHL1   H1B14742   2.677   2.462  13.153 -0.7670 -0.5214 -0.2582
  115CHL1    C214743   2.805   2.427  13.326  0.0837  0.5323  0.5931
  115CHL1   H2A14744   2.745   2.504  13.379 -0.1800  1.6627 -1.2641
  115CHL1   H2B14745   2.913   2.442  13.346  0.0913  3.1813 -1.0157
  115CHL1   C2014746   2.782   2.441  12.401  0.4554  0.4543 -0.4077
  115CHL1   H2014747   2.893   2.431  12.398  0.6785  1.6737  1.7481
  115CHL1   C2114748   2.752   2.591  12.415  0.0942 -0.4259 -0.3663
  115CHL1  H21A14749   2.831   2.641  12.355  0.0799 -0.7977 -0.7018
  115CHL1  H21B14750   2.762   2.619  12.522 -1.0049 -1.0099 -0.0935
  115CHL1  H21C14751   2.652   2.603  12.368  1.1145  0.9074 -2.3355
  115CHL1   C2214752   2.721   2.390  12.272  0.3500 -0.0193 -0.2636
  115CHL1  H22A14753   2.765   2.288  12.260  0.8078  0.1036  0.3140
  115CHL1  H22B14754   2.610   2.387  12.277  0.3017  0.4491 -0.9553
  115CHL1   C2314755   2.763   2.478  12.150 -0.0659  0.7539  0.0624
  115CHL1  H23A14756   2.701   2.570  12.157 -0.0224  0.7440  0.6634
  115CHL1  H23B14757   2.872   2.496  12.162  0.0543  0.3648 -0.4204
  115CHL1   C2414758   2.748   2.399  12.022 -0.0108  0.9950 -0.5223
  115CHL1  H24A14759   2.808   2.305  12.017 -0.5682  0.3809  2.4636
  115CHL1  H24B14760   2.639   2.379  12.011  0.1211 -1.1771  1.3826
  115CHL1   C2514761   2.790   2.483  11.901  0.9259  0.0947  0.5118
  115CHL1   H2514762   2.873   2.549  11.933 -0.8121  2.4078  0.5625
  115CHL1   C2614763   2.837   2.404  11.775 -0.4420 -0.0858  0.0343
  115CHL1  H26A14764   2.869   2.471  11.693 -0.2001 -0.8382 -0.5057
  115CHL1  H26B14765   2.924   2.338  11.797 -0.6179  0.4322  2.6175
  115CHL1  H26C14766   2.756   2.341  11.732  0.7859 -0.2166 -2.2470
  115CHL1   C2714767   2.681   2.583  11.864  0.1836 -0.0932 -0.0375
  115CHL1  H27A14768   2.647   2.631  11.958 -1.8232  0.0576 -0.7801
  115CHL1  H27B14769   2.734   2.647  11.790  1.4221 -0.5099  0.4661
  115CHL1  H27C14770   2.599   2.527  11.815  1.2200 -1.3286 -0.4077
  116CHL1    C314771   4.879   2.178  12.997 -0.2781  0.2026 -0.0776
  116CHL1    H314772   4.967   2.117  12.967 -0.8365 -0.6253 -0.0914
  116CHL1    O314773   4.866   2.184  13.140 -0.1902  0.5432  0.0636
  116CHL1   H3'14774   4.809   2.261  13.147 -0.6402  0.1514  0.9354
  116CHL1    C414775   4.877   2.323  12.941  0.1111  0.5381  0.6409
  116CHL1   H4A14776   4.792   2.378  12.987 -1.4985 -2.7103  1.8907
  116CHL1   H4B14777   4.965   2.377  12.982  0.8514  0.4516 -0.7989
  116CHL1    C514778   4.860   2.329  12.790  0.1714 -0.4904  0.1047
  116CHL1    C614779   4.955   2.397  12.717 -0.0814  0.7549  0.3391
  116CHL1    H614780   5.044   2.443  12.761 -0.3200  3.6897 -1.9149
  116CHL1    C714781   4.946   2.409  12.566  1.1711 -0.8296  0.0660
  116CHL1   H7A14782   4.956   2.515  12.533 -0.7447 -1.1622 -1.7933
  116CHL1   H7B14783   5.039   2.363  12.526  3.4578  2.4675  1.0699
  116CHL1    C814784   4.817   2.346  12.494  0.5100  0.9493 -0.6792
  116CHL1    H814785   4.734   2.417  12.513  0.0293 -0.1771  1.7433
  116CHL1   C1414786   4.841   2.310  12.345  0.3167  0.4855  0.5424
  116CHL1   H1414787   4.911   2.224  12.344 -2.0571 -1.5382  0.1760
  116CHL1   C1514788   4.887   2.423  12.258 -0.2427 -0.1754  0.2166
  116CHL1  H15A14789   4.829   2.516  12.279 -0.0412  0.3990 -1.5844
  116CHL1  H15B14790   4.994   2.448  12.272 -0.7857  1.2371  2.3571
  116CHL1   C1614791   4.843   2.384  12.115  0.8374  0.1712  0.0347
  116CHL1  H16A14792   4.772   2.455  12.068  0.5260 -0.4740 -0.4952
  116CHL1  H16B14793   4.930   2.354  12.052  1.6426 -0.5535  1.4450
  116CHL1   C1714794   4.757   2.251  12.128  0.4365 -0.4435 -0.9547
  116CHL1   H1714795   4.828   2.166  12.130 -0.0637 -0.8571  0.5869
  116CHL1   C1314796   4.716   2.254  12.275  0.3280 -0.7640  0.0971
  116CHL1   C1814797   4.599   2.355  12.278  0.0991  1.1532 -0.4194
  116CHL1  H18A14798   4.597   2.414  12.373  0.0224 -1.3742  1.2452
  116CHL1  H18B14799   4.604   2.430  12.196  0.4075 -0.7036 -2.1573
  116CHL1  H18C14800   4.501   2.305  12.268  0.4137  0.4797 -0.1920
  116CHL1   C1214801   4.682   2.124  12.344  0.2672  0.9708 -0.6922
  116CHL1  H12A14802   4.596   2.069  12.299 -0.6039 -0.0590  2.0293
  116CHL1  H12B14803   4.768   2.058  12.322  0.8318  1.4215  0.1224
  116CHL1   C1114804   4.657   2.149  12.493 -0.2492  0.2395  0.0284
  116CHL1  H11A14805   4.558   2.195  12.512  0.0804  0.7891  0.4370
  116CHL1  H11B14806   4.632   2.052  12.542 -1.0047  0.6552  0.5011
  116CHL1    C914807   4.766   2.223  12.571  0.3527  0.1552 -0.2157
  116CHL1    H914808   4.860   2.166  12.552  0.0518 -0.5038  0.2381
  116CHL1   C1014809   4.751   2.243  12.723  0.9157  0.0662  0.0394
  116CHL1   C1914810   4.606   2.302  12.754  0.2796 -0.0453  0.5385
  116CHL1  H19A14811   4.597   2.395  12.695  4.5842 -0.2023 -0.6581
  116CHL1  H19B14812   4.521   2.232  12.734  0.3059 -0.5108  1.9013
  116CHL1  H19C14813   4.599   2.322  12.863 -3.2465  1.3161  0.2068
  116CHL1    C114814   4.749   2.102  12.794 -0.5008  0.0020  0.6842
  116CHL1   H1A14815   4.656   2.057  12.754 -0.3112 -0.1420  0.4008
  116CHL1   H1B14816   4.835   2.038  12.766 -0.8563  0.3187 -1.2989
  116CHL1    C214817   4.749   2.103  12.949 -0.5578 -0.0671  0.1696
  116CHL1   H2A14818   4.750   2.005  13.002 -0.9820  0.0218  0.3471
  116CHL1   H2B14819   4.660   2.149  12.997  0.8634  0.1357  2.7541
  116CHL1   C2014820   4.659   2.232  12.011 -0.0897 -0.1242  0.1101
  116CHL1   H2014821   4.607   2.329  12.000  1.4963  0.7377 -0.2033
  116CHL1   C2114822   4.561   2.113  12.033  0.1087  0.2769 -0.7051
  116CHL1  H21A14823   4.496   2.121  11.943  1.3386  0.4247 -1.6143
  116CHL1  H21B14824   4.515   2.133  12.132  0.5776  0.2400 -0.4777
  116CHL1  H21C14825   4.612   2.014  12.030 -1.8680 -0.7836 -0.5639
  116CHL1   C2214826   4.731   2.225  11.870  0.9369  0.0502 -0.0178
  116CHL1  H22A14827   4.793   2.318  11.861 -0.2910  1.3912  3.6667
  116CHL1  H22B14828   4.795   2.134  11.861  2.8345  1.4532 -1.9517
  116CHL1   C2314829   4.632   2.219  11.753 -0.3675 -0.8402  0.0384
  116CHL1  H23A14830   4.575   2.125  11.755 -1.8959  0.0670  0.3082
  116CHL1  H23B14831   4.560   2.299  11.781  0.5252  0.0412 -0.0789
  116CHL1   C2414832   4.708   2.237  11.619 -0.6259  0.5710  0.2281
  116CHL1  H24A14833   4.776   2.325  11.623  1.2728 -0.6847 -1.6821
  116CHL1  H24B14834   4.787   2.160  11.603 -0.6878  0.7467 -1.0218
  116CHL1   C2514835   4.618   2.240  11.498  0.2880  0.0628  0.8743
  116CHL1   H2514836   4.561   2.145  11.504  0.7637 -0.1252  3.1133
  116CHL1   C2614837   4.511   2.354  11.505  0.0220  1.2674 -0.3729
  116CHL1  H26A14838   4.454   2.343  11.410 -1.3256  1.3831  0.4015
  116CHL1  H26B14839   4.449   2.320  11.590  0.5792 -3.0623 -1.4341
  116CHL1  H26C14840   4.546   2.459  11.507 -1.3625  1.7439  1.3180
  116CHL1   C2714841   4.698   2.251  11.369  0.6880 -0.0641  0.8058
  116CHL1  H27A14842   4.780   2.176  11.365  1.4436  0.7010  1.4180
  116CHL1  H27B14843   4.627   2.249  11.284 -0.6540  0.7391  1.8699
  116CHL1  H27C14844   4.758   2.344  11.360 -0.4977  0.5221 -2.0886
  117CHL1    C314845   6.566   1.322  13.718 -0.0948  1.1071  0.0492
  117CHL1    H314846   6.510   1.411  13.681  1.4770  2.6426  1.2306
  117CHL1    O314847   6.580   1.313  13.860 -0.3258 -0.5567 -0.5810
  117CHL1   H3'14848   6.641   1.241  13.876 -1.6604 -1.8049 -0.9619
  117CHL1    C414849   6.481   1.198  13.653  0.3178 -0.0854 -0.1376
  117CHL1   H4A14850   6.526   1.103  13.688 -0.5931 -0.1689  0.8537
  117CHL1   H4B14851   6.384   1.212  13.704  1.1131  1.7946  0.9654
  117CHL1    C514852   6.478   1.206  13.503  0.2616  0.5487  0.0447
  117CHL1    C614853   6.355   1.209  13.443  0.0930  0.0201  0.5757
  117CHL1    H614854   6.269   1.212  13.512 -1.6893  1.0252 -1.5382
  117CHL1    C714855   6.342   1.213  13.292  0.6485 -0.6529 -0.1714
  117CHL1   H7A14856   6.274   1.134  13.255 -2.0835  1.3279  0.3640
  117CHL1   H7B14857   6.298   1.309  13.257 -0.0343 -0.7901  0.3024
  117CHL1    C814858   6.477   1.188  13.225  0.7614 -0.1137  0.2686
  117CHL1    H814859   6.503   1.080  13.229 -1.4916 -0.7875 -1.6049
  117CHL1   C1414860   6.459   1.231  13.077  0.7510  0.4685  0.6606
  117CHL1   H1414861   6.445   1.340  13.091  1.2380  0.6038  0.1703
  117CHL1   C1514862   6.334   1.176  12.996 -0.3854 -0.1277 -0.2358
  117CHL1  H15A14863   6.317   1.066  12.999  2.4526 -0.6285  0.9190
  117CHL1  H15B14864   6.242   1.228  13.031 -0.7150 -0.7785 -0.0977
  117CHL1   C1614865   6.375   1.207  12.848 -0.0595  0.1627 -0.3382
  117CHL1  H16A14866   6.362   1.115  12.788  0.3413 -0.8172  1.0356
  117CHL1  H16B14867   6.302   1.282  12.809 -0.1268 -0.1461 -0.8089
  117CHL1   C1714868   6.518   1.265  12.851  0.0457  0.0812 -0.0482
  117CHL1   H1714869   6.493   1.372  12.863 -3.1985 -0.3219 -2.0858
  117CHL1   C1314870   6.582   1.209  12.978 -0.2891  0.0759 -0.2583
  117CHL1   C1814871   6.623   1.066  12.962 -0.4529  0.1826  0.3363
  117CHL1  H18A14872   6.719   1.050  12.908 -0.8078  0.4782 -0.3913
  117CHL1  H18B14873   6.631   1.021  13.064  0.5800  0.7403  0.5107
  117CHL1  H18C14874   6.547   0.998  12.916 -1.5340  2.2311 -1.0233
  117CHL1   C1214875   6.694   1.286  13.053 -0.0507  0.3594  0.2746
  117CHL1  H12A14876   6.794   1.293  13.005  0.7173  1.8980  1.9805
  117CHL1  H12B14877   6.663   1.393  13.049  0.0948  0.3887 -0.1178
  117CHL1   C1114878   6.723   1.235  13.202 -0.0553 -0.3350  0.4480
  117CHL1  H11A14879   6.752   1.129  13.188  1.6668  0.0630  0.8614
  117CHL1  H11B14880   6.812   1.288  13.241  1.2698 -0.9732 -1.5248
  117CHL1    C914881   6.596   1.255  13.291  1.0375  0.4710 -0.3990
  117CHL1    H914882   6.570   1.362  13.300  3.1763  0.8866  2.0672
  117CHL1   C1014883   6.619   1.211  13.434 -0.2254  0.1811 -0.3213
  117CHL1   C1914884   6.680   1.069  13.442 -0.0323 -0.0986 -0.0783
  117CHL1  H19A14885   6.666   1.021  13.541 -1.2982  0.5469  0.0619
  117CHL1  H19B14886   6.627   0.997  13.376 -0.9456  0.3535  0.1590
  117CHL1  H19C14887   6.788   1.053  13.418 -0.7043 -3.3671 -1.5361
  117CHL1    C114888   6.710   1.318  13.506 -0.2058  0.4622  0.0522
  117CHL1   H1A14889   6.817   1.321  13.476 -0.0298 -0.3049  0.5816
  117CHL1   H1B14890   6.681   1.420  13.472  0.9601  1.1240  0.9491
  117CHL1    C214891   6.708   1.318  13.663 -0.5226 -0.0026 -0.4136
  117CHL1   H2A14892   6.767   1.405  13.697 -0.0181  0.1425 -1.6073
  117CHL1   H2B14893   6.759   1.227  13.702  0.1601  0.4498 -0.2228
  117CHL1   C2014894   6.591   1.256  12.718 -0.3251  0.9301  0.9594
  117CHL1   H2014895   6.633   1.154  12.701 -1.7268  0.6740 -1.6020
  117CHL1   C2114896   6.699   1.366  12.718 -0.2525 -0.3856 -0.4547
  117CHL1  H21A14897   6.761   1.369  12.810 -0.8777 -0.8171 -0.0067
  117CHL1  H21B14898   6.640   1.459  12.708  0.5019 -0.1357 -3.4062
  117CHL1  H21C14899   6.762   1.371  12.627 -1.3464 -2.1028 -1.3485
  117CHL1   C2214900   6.495   1.273  12.591 -0.0101  0.7889 -0.1331
  117CHL1  H22A14901   6.405   1.208  12.586 -0.3257  1.0030  1.8636
  117CHL1  H22B14902   6.449   1.374  12.596 -2.7624 -0.1681 -3.0507
  117CHL1   C2314903   6.561   1.272  12.455 -0.2606 -0.0609  0.1879
  117CHL1  H23A14904   6.592   1.377  12.438 -0.1548  0.1692  1.6464
  117CHL1  H23B14905   6.647   1.202  12.441  0.1956  0.4689  0.3141
  117CHL1   C2414906   6.468   1.237  12.337  0.0810  0.3659 -0.5096
  117CHL1  H24A14907   6.440   1.130  12.346 -0.0828  0.5015  0.7713
  117CHL1  H24B14908   6.377   1.296  12.362 -0.0426 -0.5951  1.5356
  117CHL1   C2514909   6.521   1.254  12.202  0.0293 -0.1859 -0.1438
  117CHL1   H2514910   6.562   1.356  12.186 -0.0048 -0.2845 -0.8949
  117CHL1   C2614911   6.640   1.160  12.180 -0.3798 -0.0581 -0.5739
  117CHL1  H26A14912   6.611   1.052  12.183  0.9377 -0.4156  0.8476
  117CHL1  H26B14913   6.691   1.181  12.084 -3.1299  0.8919 -1.9344
  117CHL1  H26C14914   6.717   1.177  12.258 -1.0388 -1.5158  0.4412
  117CHL1   C2714915   6.409   1.226  12.094  0.0139 -0.0842 -0.5602
  117CHL1  H27A14916   6.334   1.308  12.104 -0.3567 -0.7261  3.4747
  117CHL1  H27B14917   6.454   1.225  11.993  0.6869  0.3907 -0.2700
  117CHL1  H27C14918   6.357   1.132  12.121  0.1100  0.2609  0.9359
  118CHL1    C314919   1.475   3.083  13.028 -0.1181  0.4895  0.1171
  118CHL1    H314920   1.404   3.004  12.994  0.8543 -0.3335 -0.0492
  118CHL1    O314921   1.499   3.055  13.166  0.3471 -0.1193 -0.1694
  118CHL1   H3'14922   1.560   3.122  13.198 -0.0541  0.2154 -0.1047
  118CHL1    C414923   1.614   3.092  12.963  0.1146  0.0640 -0.2127
  118CHL1   H4A14924   1.674   3.170  13.015  0.4242 -0.8084  0.7572
  118CHL1   H4B14925   1.660   2.994  12.987  1.1645  0.4276 -0.6505
  118CHL1    C514926   1.587   3.113  12.811  0.1627 -0.3240  0.0349
  118CHL1    C614927   1.643   3.027  12.719  0.4353  0.2494 -0.2913
  118CHL1    H614928   1.705   2.942  12.753  0.6346  0.6381  0.3358
  118CHL1    C714929   1.625   3.040  12.569  0.4153 -0.5446  0.2406
  118CHL1   H7A14930   1.710   3.003  12.508  0.1094  0.1987 -0.6699
  118CHL1   H7B14931   1.531   2.983  12.549  1.4901 -2.0615 -0.6840
  118CHL1    C814932   1.589   3.189  12.529  0.0633  0.6376  0.0441
  118CHL1    H814933   1.683   3.248  12.537 -0.7889  2.0353  0.0073
  118CHL1   C1414934   1.550   3.199  12.385  0.9322 -0.2752  0.2809
  118CHL1   H1414935   1.455   3.143  12.369  0.4094  1.2210 -2.4195
  118CHL1   C1514936   1.640   3.116  12.289  0.3609 -0.3146  0.3158
  118CHL1  H15A14937   1.746   3.111  12.319  0.4445  1.4448  0.3921
  118CHL1  H15B14938   1.600   3.012  12.287  1.4130 -0.7696  1.6613
  118CHL1   C1614939   1.610   3.185  12.157  0.4203  0.3965 -0.0587
  118CHL1  H16A14940   1.704   3.221  12.112  0.1986  1.4433  0.2765
  118CHL1  H16B14941   1.566   3.116  12.082  1.3404 -1.8063  1.3238
  118CHL1   C1714942   1.513   3.306  12.183  0.5930  0.1297  0.3510
  118CHL1   H1714943   1.411   3.261  12.175 -0.2490  1.4710  2.5841
  118CHL1   C1314944   1.530   3.339  12.330 -0.3036 -0.3162  0.2482
  118CHL1   C1814945   1.660   3.425  12.333  0.4840 -0.6191  0.3737
  118CHL1  H18A14946   1.706   3.429  12.434  2.5922 -0.6017 -0.5354
  118CHL1  H18B14947   1.735   3.390  12.259  0.0492 -2.1571  0.6065
  118CHL1  H18C14948   1.634   3.527  12.298 -0.8094  0.1129  3.1825
  118CHL1   C1214949   1.409   3.402  12.411  0.2707  0.5577  0.2523
  118CHL1  H12A14950   1.389   3.509  12.385  0.2794  0.6099  0.4651
  118CHL1  H12B14951   1.321   3.335  12.399  1.1736 -0.6327  0.1796
  118CHL1   C1114952   1.435   3.394  12.561  0.0933  0.6039  0.1400
  118CHL1  H11A14953   1.519   3.462  12.583 -0.5215  1.4036  0.0530
  118CHL1  H11B14954   1.347   3.429  12.619 -0.0982  2.3719 -1.1220
  118CHL1    C914955   1.472   3.250  12.610  0.0243  0.2090  0.2753
  118CHL1    H914956   1.382   3.188  12.594 -2.1481  2.7333  1.7672
  118CHL1   C1014957   1.508   3.242  12.770 -0.1697  0.2779  0.4690
  118CHL1   C1914958   1.599   3.363  12.808 -0.0111 -1.3064  0.0674
  118CHL1  H19A14959   1.680   3.368  12.733 -0.1196 -0.2674  0.0056
  118CHL1  H19B14960   1.550   3.461  12.788  0.9015 -0.9695 -0.6131
  118CHL1  H19C14961   1.635   3.361  12.913 -0.1893 -2.2724  0.1227
  118CHL1    C114962   1.379   3.242  12.851  0.1237 -0.3654  0.4449
  118CHL1   H1A14963   1.336   3.344  12.842  1.4378  0.6076  3.8729
  118CHL1   H1B14964   1.302   3.179  12.800  2.6797 -2.2184 -1.4074
  118CHL1    C214965   1.400   3.218  13.007 -0.9789  0.0278  0.3966
  118CHL1   H2A14966   1.300   3.222  13.055 -1.6829  0.8091 -1.0708
  118CHL1   H2B14967   1.467   3.296  13.050  0.5115 -1.5630  1.0990
  118CHL1   C2014968   1.515   3.408  12.074 -0.4236  0.1252  0.0061
  118CHL1   H2014969   1.607   3.471  12.082 -1.5663  1.7613  0.9959
  118CHL1   C2114970   1.400   3.507  12.105 -0.0116  0.8777 -0.0848
  118CHL1  H21A14971   1.309   3.450  12.133  2.1483 -0.2689  5.9322
  118CHL1  H21B14972   1.391   3.589  12.030 -0.6007  0.8028 -0.0963
  118CHL1  H21C14973   1.426   3.570  12.193 -0.3663  2.8348 -1.3008
  118CHL1   C2214974   1.509   3.351  11.927 -0.7573  0.2746  0.3498
  118CHL1  H22A14975   1.590   3.275  11.930 -1.6209 -0.6433  0.6354
  118CHL1  H22B14976   1.408   3.311  11.906  0.1947 -2.0088 -0.2219
  118CHL1   C2314977   1.537   3.448  11.813  0.0800 -0.0469  0.1018
  118CHL1  H23A14978   1.463   3.531  11.809  2.0210  1.7194 -1.3565
  118CHL1  H23B14979   1.641   3.488  11.809 -0.2542  1.0646  1.5352
  118CHL1   C2414980   1.527   3.370  11.674  0.4888 -0.2525  0.3082
  118CHL1  H24A14981   1.420   3.363  11.643 -0.3457  1.8969  2.4045
  118CHL1  H24B14982   1.572   3.441  11.602  1.8442 -1.3486  0.0386
  118CHL1   C2514983   1.616   3.241  11.653  0.4767 -0.5605 -0.1982
  118CHL1   H2514984   1.576   3.159  11.716  0.2292 -0.6570 -0.4771
  118CHL1   C2614985   1.609   3.195  11.507 -0.0279  0.1527  0.9279
  118CHL1  H26A14986   1.633   3.281  11.442 -1.1016  0.7397  1.2726
  118CHL1  H26B14987   1.682   3.115  11.484  0.4967  1.1271 -0.9252
  118CHL1  H26C14988   1.504   3.170  11.478  0.9065 -0.3500 -2.4469
  118CHL1   C2714989   1.765   3.255  11.694 -0.6143 -0.2072  0.2138
  118CHL1  H27A14990   1.795   3.149  11.709 -1.2427 -0.6364 -1.3086
  118CHL1  H27B14991   1.832   3.310  11.624  2.0581 -0.8482  2.1244
  118CHL1  H27C14992   1.767   3.298  11.796 -2.0742  0.2536  0.0754
  119CHL1    C314993   1.034   2.385  13.013  0.6712 -0.8253 -0.2627
  119CHL1    H314994   0.935   2.434  12.997  0.7984  0.0389  1.4543
  119CHL1    O314995   1.034   2.370  13.153 -0.0927 -0.3327 -0.3322
  119CHL1   H3'14996   1.123   2.357  13.187 -0.9476 -0.7957  1.9219
  119CHL1    C414997   1.036   2.250  12.938 -0.1297  0.2485 -0.0690
  119CHL1   H4A14998   1.134   2.202  12.959 -2.9954 -5.4622  2.5283
  119CHL1   H4B14999   0.971   2.170  12.980 -1.5577  0.4146 -1.8213
  119CHL1    C515000   1.007   2.267  12.792 -0.4920 -0.4948 -0.2379
  119CHL1    C615001   0.902   2.221  12.723 -0.4750  0.4127 -0.0431
  119CHL1    H615002   0.833   2.150  12.771  0.3289 -2.0965 -2.3733
  119CHL1    C715003   0.871   2.237  12.579  0.0171 -0.0088 -0.2573
  119CHL1   H7A15004   0.829   2.141  12.544 -1.0600  0.1221  0.6430
  119CHL1   H7B15005   0.803   2.323  12.563  0.0498  0.2093  0.7304
  119CHL1    C815006   1.002   2.281  12.500  0.1338  0.1842 -0.0045
  119CHL1    H815007   1.071   2.194  12.495  0.3227  0.3784 -1.9332
  119CHL1   C1415008   0.964   2.325  12.358 -0.6244  0.6401 -0.3414
  119CHL1   H1415009   0.899   2.415  12.366 -0.8490  0.3415  1.4764
  119CHL1   C1515010   0.895   2.226  12.268  0.5756 -0.2397 -0.0519
  119CHL1  H15A15011   0.950   2.131  12.283  0.4234 -0.0273  2.1024
  119CHL1  H15B15012   0.787   2.211  12.293  0.5226  0.8560  0.4235
  119CHL1   C1615013   0.904   2.277  12.130  0.3036 -0.0860  0.3843
  119CHL1  H16A15014   0.946   2.203  12.059 -0.2818  0.1526 -0.2164
  119CHL1  H16B15015   0.806   2.306  12.085 -0.7291 -2.9258  0.6001
  119CHL1   C1715016   0.997   2.399  12.143  0.6220 -0.5722 -0.2198
  119CHL1   H1715017   0.934   2.486  12.173 -1.0110 -0.3732 -3.7452
  119CHL1   C1315018   1.083   2.374  12.274  0.2509  0.5397  0.1226
  119CHL1   C1815019   1.188   2.266  12.250 -0.7997 -0.2511 -0.0763
  119CHL1  H18A15020   1.269   2.299  12.181 -0.6841  2.9771  1.4644
  119CHL1  H18B15021   1.246   2.225  12.336  0.9480  1.0917 -0.5656
  119CHL1  H18C15022   1.145   2.172  12.208 -0.7988 -0.5924  0.6631
  119CHL1   C1215023   1.143   2.496  12.345  0.0475 -0.2056  0.8547
  119CHL1  H12A15024   1.230   2.536  12.288  1.6800 -0.4707  3.0088
  119CHL1  H12B15025   1.067   2.577  12.345  2.1272  1.8974 -1.1470
  119CHL1   C1115026   1.185   2.466  12.493  0.5604 -0.3828 -0.0598
  119CHL1  H11A15027   1.275   2.402  12.494  1.8552  1.3319  1.9985
  119CHL1  H11B15028   1.217   2.563  12.536 -0.4561 -0.3910  0.7712
  119CHL1    C915029   1.070   2.394  12.574  0.5579 -0.0998  0.9545
  119CHL1    H915030   0.996   2.475  12.585  1.2570  0.6246  0.4239
  119CHL1   C1015031   1.108   2.356  12.721  0.0446  0.7710 -0.0773
  119CHL1   C1915032   1.254   2.289  12.719  0.5509 -0.3512  0.3735
  119CHL1  H19A15033   1.256   2.205  12.646 -1.9647 -0.2752  0.1433
  119CHL1  H19B15034   1.339   2.356  12.690  0.2894  0.0403  0.5071
  119CHL1  H19C15035   1.279   2.248  12.819  2.2072  1.6419  0.8397
  119CHL1    C115036   1.123   2.487  12.808  0.4024  0.4778  0.2209
  119CHL1   H1A15037   1.205   2.555  12.775  1.3521 -0.7053  0.0538
  119CHL1   H1B15038   1.025   2.539  12.798 -0.2408 -0.9427 -1.3684
  119CHL1    C215039   1.147   2.474  12.959  0.6883  0.5651 -0.3852
  119CHL1   H2A15040   1.149   2.574  13.007  0.9556 -0.2141  1.2780
  119CHL1   H2B15041   1.243   2.422  12.976  0.6192  0.3875 -0.5299
  119CHL1   C2015042   1.062   2.459  12.014  0.4181  0.4465 -0.0813
  119CHL1   H2015043   1.157   2.510  12.041 -0.6036  1.4431  1.8850
  119CHL1   C2115044   0.969   2.569  11.952  0.2199 -0.1666  0.0945
  119CHL1  H21A15045   0.951   2.654  12.021 -0.5732  1.1411 -1.6416
  119CHL1  H21B15046   0.871   2.523  11.929  0.2631  0.1966 -0.8645
  119CHL1  H21C15047   1.012   2.608  11.858  1.1212 -0.9121  0.1836
  119CHL1   C2215048   1.089   2.340  11.914 -0.6604 -0.4674 -0.0491
  119CHL1  H22A15049   1.143   2.262  11.973 -1.2569 -0.8422  0.0091
  119CHL1  H22B15050   0.993   2.297  11.879  0.0467 -2.4654  0.3055
  119CHL1   C2315051   1.183   2.380  11.803 -0.2710 -0.7981 -0.0034
  119CHL1  H23A15052   1.130   2.466  11.757 -1.1384 -0.6092  1.2976
  119CHL1  H23B15053   1.288   2.404  11.828 -1.1808  0.8265  2.7539
  119CHL1   C2415054   1.192   2.266  11.707 -0.4473 -0.0690  0.3096
  119CHL1  H24A15055   1.225   2.174  11.760  0.0598  1.3509  2.6090
  119CHL1  H24B15056   1.093   2.245  11.663 -0.9260 -0.5127  1.5464
  119CHL1   C2515057   1.299   2.289  11.593  0.3058  1.0783 -0.4120
  119CHL1   H2515058   1.391   2.323  11.646  0.1910  0.2439  0.3554
  119CHL1   C2615059   1.335   2.155  11.533  0.3891 -0.6457 -0.5037
  119CHL1  H26A15060   1.418   2.107  11.588 -0.9879 -0.3716  1.9365
  119CHL1  H26B15061   1.242   2.096  11.527 -1.3768  1.4792  2.7806
  119CHL1  H26C15062   1.368   2.158  11.427  0.5166  2.0642 -0.4729
  119CHL1   C2715063   1.237   2.383  11.489  0.4000 -0.4181 -0.7699
  119CHL1  H27A15064   1.205   2.477  11.540 -0.4630 -0.5832 -0.9834
  119CHL1  H27B15065   1.306   2.411  11.407  0.0469 -0.0203 -0.9342
  119CHL1  H27C15066   1.146   2.333  11.450  0.9384 -1.4650 -0.6951
  120CHL1    C315067   2.135   0.458  12.937 -0.3867  1.1565 -0.0142
  120CHL1    H315068   2.213   0.395  12.888 -0.8762  0.8863 -0.4493
  120CHL1    O315069   2.109   0.430  13.073 -0.3540 -0.2958 -0.3704
  120CHL1   H3'15070   2.063   0.346  13.076 -0.2666 -0.3141  0.8003
  120CHL1    C415071   2.170   0.612  12.923  0.4795  0.7813  0.2158
  120CHL1   H4A15072   2.080   0.660  12.967 -1.5932 -3.3767  1.0674
  120CHL1   H4B15073   2.257   0.650  12.981  0.2100  3.1586 -0.8409
  120CHL1    C515074   2.179   0.653  12.777 -0.3900 -0.5541 -0.3471
  120CHL1    C615075   2.285   0.722  12.732 -0.9373  0.0303  0.3236
  120CHL1    H615076   2.365   0.755  12.800 -1.2657  1.7182 -0.0911
  120CHL1    C715077   2.301   0.763  12.586  0.2149  0.5301  0.0384
  120CHL1   H7A15078   2.340   0.866  12.598  1.2781 -0.1050  3.0356
  120CHL1   H7B15079   2.389   0.711  12.543  0.9675  2.0624 -0.3399
  120CHL1    C815080   2.175   0.742  12.503  0.1067  0.0840 -0.5557
  120CHL1    H815081   2.109   0.826  12.533  1.4173  0.4421  1.5272
  120CHL1   C1415082   2.205   0.752  12.355  0.1186 -0.1997 -0.5631
  120CHL1   H1415083   2.250   0.655  12.323  3.0624  0.9749 -0.3495
  120CHL1   C1515084   2.306   0.860  12.314  0.2635  0.1755  0.2881
  120CHL1  H15A15085   2.257   0.959  12.329 -3.4323 -1.8816  3.9703
  120CHL1  H15B15086   2.411   0.856  12.351  0.7683  3.6861 -0.3408
  120CHL1   C1615087   2.298   0.835  12.159  0.2940 -0.0870  0.0352
  120CHL1  H16A15088   2.299   0.932  12.105  0.0174 -0.9677 -1.6114
  120CHL1  H16B15089   2.382   0.766  12.135  0.5324  0.1725  0.1168
  120CHL1   C1715090   2.166   0.750  12.126 -0.0287 -0.2598  0.1555
  120CHL1   H1715091   2.207   0.648  12.115 -1.1476 -0.6062 -1.0956
  120CHL1   C1315092   2.081   0.756  12.254  0.0693 -0.3517  0.6585
  120CHL1   C1815093   2.007   0.890  12.261  0.4299 -0.0134  0.4905
  120CHL1  H18A15094   1.915   0.892  12.199  0.1517 -1.4518  0.8089
  120CHL1  H18B15095   1.982   0.901  12.368 -0.3978 -2.6883  0.6425
  120CHL1  H18C15096   2.069   0.978  12.235  0.0540  0.1737  0.2225
  120CHL1   C1215097   1.993   0.635  12.290  0.0479 -0.5397 -0.3337
  120CHL1  H12A15098   1.899   0.648  12.232  0.1510  1.0668 -0.1957
  120CHL1  H12B15099   2.044   0.545  12.251  3.5327  0.5746  1.1921
  120CHL1   C1115100   1.966   0.629  12.440  0.3552  0.3405 -0.7619
  120CHL1  H11A15101   1.896   0.713  12.460  0.5500 -0.0378  1.9262
  120CHL1  H11B15102   1.912   0.535  12.461  0.6555  0.4221  0.4541
  120CHL1    C915103   2.091   0.623  12.532 -0.4309  0.3867 -0.2085
  120CHL1    H915104   2.150   0.533  12.504  2.6071  2.2459 -0.1872
  120CHL1   C1015105   2.060   0.602  12.688 -0.4008 -0.2877  0.8357
  120CHL1   C1915106   1.948   0.706  12.725 -0.3083  0.4877 -0.3028
  120CHL1  H19A15107   1.851   0.677  12.678 -0.1933  0.1695 -0.3481
  120CHL1  H19B15108   1.923   0.696  12.833 -0.6430 -0.8219 -0.4826
  120CHL1  H19C15109   1.968   0.811  12.695  0.1667  0.2209 -0.9373
  120CHL1    C115110   2.016   0.464  12.717  0.1005  0.1397 -0.2412
  120CHL1   H1A15111   1.924   0.444  12.658  1.7951  0.4718 -3.2057
  120CHL1   H1B15112   2.098   0.399  12.680  0.8069  0.0784  1.3264
  120CHL1    C215113   2.008   0.426  12.867  0.2136  0.5995 -0.1315
  120CHL1   H2A15114   1.983   0.318  12.872 -1.4508  1.0036  2.7183
  120CHL1   H2B15115   1.922   0.473  12.919  0.3918 -0.6010  1.2985
  120CHL1   C2015116   2.101   0.792  11.993  0.0903  0.6269  0.3472
  120CHL1   H2015117   2.063   0.895  12.009  0.4951  0.5772  1.7176
  120CHL1   C2115118   1.983   0.690  11.956  0.5703  0.0445 -0.2570
  120CHL1  H21A15119   1.937   0.704  11.856 -0.3575  1.8732  0.3842
  120CHL1  H21B15120   1.895   0.712  12.020  1.4179  1.1578  0.5823
  120CHL1  H21C15121   2.027   0.588  11.954  1.4274  0.4021 -1.7018
  120CHL1   C2215122   2.207   0.792  11.875 -0.0929 -0.3571  0.1514
  120CHL1  H22A15123   2.287   0.868  11.888 -1.0476  0.8754 -1.0469
  120CHL1  H22B15124   2.254   0.691  11.879 -0.4508 -0.6595 -2.0897
  120CHL1   C2315125   2.153   0.805  11.733 -0.2166  0.7352  0.3182
  120CHL1  H23A15126   2.238   0.802  11.661  0.7782  1.2537  1.4291
  120CHL1  H23B15127   2.085   0.723  11.701 -1.9084  2.0958  0.2803
  120CHL1   C2415128   2.063   0.934  11.712  0.5988  0.0017  0.2557
  120CHL1  H24A15129   2.027   0.921  11.608  0.1349  2.6003  0.0290
  120CHL1  H24B15130   1.976   0.940  11.780 -0.9818  0.9455 -1.7674
  120CHL1   C2515131   2.140   1.073  11.727  0.3043  1.0642  0.5799
  120CHL1   H2515132   2.190   1.071  11.826 -0.4199  0.0911  0.9352
  120CHL1   C2615133   2.241   1.101  11.611  0.2244 -0.4080 -0.0556
  120CHL1  H26A15134   2.179   1.091  11.519  1.2350  0.1527 -0.8232
  120CHL1  H26B15135   2.283   1.203  11.628  2.0742 -0.9213 -1.2126
  120CHL1  H26C15136   2.329   1.033  11.603 -0.5878 -1.5592  0.5691
  120CHL1   C2715137   2.039   1.180  11.741 -0.1269 -0.2457 -0.0718
  120CHL1  H27A15138   1.968   1.193  11.656 -0.7329 -1.2412  0.2529
  120CHL1  H27B15139   1.992   1.155  11.839  1.0388 -0.9647  0.3339
  120CHL1  H27C15140   2.081   1.282  11.747 -3.4165  1.2947 -0.9528
  121CHL1    C315141   4.805   5.000   9.560 -0.2019 -0.1344 -0.5161
  121CHL1    H315142   4.873   5.086   9.546 -0.6702  0.0211 -2.0023
  121CHL1    O315143   4.754   4.970   9.425 -0.5229  0.1475 -0.3305
  121CHL1   H3'15144   4.700   4.892   9.437  2.2676 -1.8624  0.3602
  121CHL1    C415145   4.883   4.881   9.618  0.1325 -0.6341 -0.3341
  121CHL1   H4A15146   4.820   4.789   9.620  0.9917 -1.2317  1.1815
  121CHL1   H4B15147   4.968   4.856   9.552 -0.0389 -2.7795  0.1693
  121CHL1    C515148   4.927   4.912   9.757 -0.1693 -0.1499  0.0833
  121CHL1    C615149   5.057   4.912   9.793  0.2931  0.3369  0.2199
  121CHL1    H615150   5.147   4.888   9.734  0.9501 -3.3361  2.3996
  121CHL1    C715151   5.106   4.932   9.936 -0.8221 -0.9998 -0.1086
  121CHL1   H7A15152   5.184   4.855   9.959  1.2070  0.2815 -2.2698
  121CHL1   H7B15153   5.147   5.034   9.948 -4.1332  0.3171  1.2105
  121CHL1    C815154   4.995   4.913  10.035  0.4095  1.0161 -0.7473
  121CHL1    H815155   4.970   4.805  10.035  1.4656  0.7606 -1.3656
  121CHL1   C1415156   5.044   4.965  10.173 -0.1928 -0.6116  0.3745
  121CHL1   H1415157   5.055   5.074  10.160 -2.0075 -0.1243  2.4540
  121CHL1   C1515158   5.186   4.926  10.219 -0.3456 -0.7752 -0.2506
  121CHL1  H15A15159   5.198   4.820  10.190  3.1747 -0.4531 -0.4437
  121CHL1  H15B15160   5.257   4.987  10.158 -2.2756  1.5683 -0.2984
  121CHL1   C1615161   5.180   4.948  10.375 -0.3689 -0.2897  0.3499
  121CHL1  H16A15162   5.196   4.845  10.415  0.0359 -1.6589 -3.0043
  121CHL1  H16B15163   5.258   5.015  10.417 -0.4404  0.2792 -0.4169
  121CHL1   C1715164   5.034   4.999  10.409  0.5997  0.5439 -0.9253
  121CHL1   H1715165   5.035   5.110  10.404  1.4357  0.6477  0.6606
  121CHL1   C1315166   4.952   4.951  10.287  0.2348  0.0740  0.2561
  121CHL1   C1815167   4.925   4.797  10.301 -0.0474  0.1386  0.2354
  121CHL1  H18A15168   4.875   4.781  10.399  0.3301  0.0935  0.4213
  121CHL1  H18B15169   4.856   4.751  10.227  0.0261 -1.3040  1.0181
  121CHL1  H18C15170   5.018   4.738  10.300 -0.1877 -0.2579 -3.6402
  121CHL1   C1215171   4.812   5.018  10.251  0.5133 -0.2559 -0.0769
  121CHL1  H12A15172   4.735   4.999  10.329 -1.5563  0.2530 -1.9083
  121CHL1  H12B15173   4.842   5.125  10.242  3.3367 -1.0579 -1.1153
  121CHL1   C1115174   4.756   4.982  10.114 -0.4867  0.1502  0.5540
  121CHL1  H11A15175   4.710   4.881  10.121  0.0207 -0.0681  0.8510
  121CHL1  H11B15176   4.670   5.052  10.104 -2.0840 -1.3980  2.4942
  121CHL1    C915177   4.868   4.985   9.999  0.1447  0.0755 -0.6853
  121CHL1    H915178   4.902   5.090  10.008 -0.0805  0.0124  1.8116
  121CHL1   C1015179   4.819   4.954   9.859  0.9276 -0.2742 -0.1460
  121CHL1   C1915180   4.721   4.834   9.874  0.1952  0.0939 -0.1588
  121CHL1  H19A15181   4.629   4.869   9.924  1.3981  0.8629  1.6355
  121CHL1  H19B15182   4.691   4.798   9.773  0.2439 -0.8185  0.1416
  121CHL1  H19C15183   4.766   4.753   9.935  0.2891  0.0842 -0.2405
  121CHL1    C115184   4.746   5.075   9.798 -0.3488  0.3115  0.1250
  121CHL1   H1A15185   4.666   5.109   9.868 -1.6174  0.6000 -1.3989
  121CHL1   H1B15186   4.808   5.166   9.805 -0.4080  0.4471 -0.9647
  121CHL1    C215187   4.695   5.046   9.654  0.0326 -0.3915 -0.4498
  121CHL1   H2A15188   4.651   5.143   9.621 -2.5603 -1.2599  0.2097
  121CHL1   H2B15189   4.607   4.978   9.656 -0.9537  0.8171  2.8107
  121CHL1   C2015190   4.982   4.963  10.552 -0.4020 -0.7038 -0.3834
  121CHL1   H2015191   4.991   4.853  10.548  1.7061 -0.5293 -1.5889
  121CHL1   C2115192   4.838   5.005  10.572 -0.6980 -0.0374  0.0891
  121CHL1  H21A15193   4.771   4.949  10.504 -0.9895 -1.2586  1.3213
  121CHL1  H21B15194   4.836   5.115  10.562  0.9018 -0.0138 -0.2887
  121CHL1  H21C15195   4.811   4.970  10.674 -0.8767  0.4263  0.2010
  121CHL1   C2215196   5.070   5.024  10.661  0.9661  0.0506 -0.7809
  121CHL1  H22A15197   5.175   5.037  10.626  1.8489 -2.8245  0.4783
  121CHL1  H22B15198   5.031   5.122  10.694  2.2201 -0.4895  2.7467
  121CHL1   C2315199   5.065   4.931  10.784 -0.1917 -0.5620 -0.7985
  121CHL1  H23A15200   4.963   4.927  10.826  0.0817 -0.8476 -0.1474
  121CHL1  H23B15201   5.100   4.831  10.750  1.9879  0.3639 -1.4859
  121CHL1   C2415202   5.153   4.975  10.905 -0.6932 -0.2687 -0.7137
  121CHL1  H24A15203   5.260   4.984  10.877 -0.5586  1.4277  0.2042
  121CHL1  H24B15204   5.117   5.068  10.955 -2.1606 -1.5842  0.8199
  121CHL1   C2515205   5.158   4.863  11.009  0.1339 -0.2008 -0.1392
  121CHL1   H2515206   5.142   4.771  10.949 -1.8975 -1.0320  1.5540
  121CHL1   C2615207   5.291   4.865  11.090 -0.1697  0.2984  0.2655
  121CHL1  H26A15208   5.380   4.857  11.025 -1.3920 -1.6074 -1.2760
  121CHL1  H26B15209   5.302   4.962  11.143  1.8093  0.4436 -0.3477
  121CHL1  H26C15210   5.292   4.778  11.159  0.6801 -1.5030 -1.9172
  121CHL1   C2715211   5.043   4.866  11.114  0.4584  0.3363  0.0219
  121CHL1  H27A15212   5.044   4.764  11.159 -2.2164  0.7408  1.1773
  121CHL1  H27B15213   5.052   4.931  11.204  1.8505  1.8330 -1.1353
  121CHL1  H27C15214   4.946   4.886  11.063 -0.0626  0.5222  1.0521
  122CHL1    C315215   4.147   4.233   9.813  0.4429  0.8867 -0.4143
  122CHL1    H315216   4.248   4.239   9.859  0.3089 -0.1400  0.0695
  122CHL1    O315217   4.152   4.285   9.685 -0.0575 -0.3519 -0.0208
  122CHL1   H3'15218   4.120   4.217   9.625 -1.3149  0.5618 -0.4365
  122CHL1    C415219   4.096   4.088   9.811 -0.3189  0.3241 -0.4008
  122CHL1   H4A15220   4.001   4.090   9.755  0.1783  1.5188 -1.2593
  122CHL1   H4B15221   4.164   4.043   9.736  1.2630  2.2769 -0.2413
  122CHL1    C515222   4.092   4.024   9.945  0.4876 -0.2248 -0.4042
  122CHL1    C615223   4.158   3.915   9.983 -0.5886 -0.3830  0.2031
  122CHL1    H615224   4.232   3.872   9.914  1.3897  1.9169  0.7611
  122CHL1    C715225   4.151   3.854  10.114 -0.1218  0.4034 -0.0697
  122CHL1   H7A15226   4.131   3.745  10.105  2.8723 -0.2449  0.1365
  122CHL1   H7B15227   4.249   3.869  10.165  0.3562  2.7309 -1.4907
  122CHL1    C815228   4.033   3.902  10.196 -0.4656 -0.0723 -0.3513
  122CHL1    H815229   3.946   3.846  10.156 -1.6623  0.5094  1.3435
  122CHL1   C1415230   4.065   3.873  10.346  0.5012  0.1665 -0.2370
  122CHL1   H1415231   4.153   3.934  10.376  0.0722  0.1030  1.2508
  122CHL1   C1515232   4.107   3.731  10.384 -0.2988  0.4161 -1.0738
  122CHL1  H15A15233   4.054   3.659  10.318 -2.0368  1.6039 -1.0371
  122CHL1  H15B15234   4.214   3.710  10.365 -0.4763 -0.0997 -1.5389
  122CHL1   C1615235   4.068   3.713  10.538 -0.3088 -0.2060  0.2407
  122CHL1  H16A15236   3.981   3.645  10.546  0.5583 -1.6225 -1.4724
  122CHL1  H16B15237   4.161   3.689  10.593  0.3052 -0.1335 -0.7396
  122CHL1   C1715238   4.013   3.855  10.576  0.8547 -0.4851  0.2262
  122CHL1   H1715239   4.093   3.922  10.615  0.4788 -1.3695  2.6849
  122CHL1   C1315240   3.953   3.913  10.437 -0.5337 -0.4433 -0.0623
  122CHL1   C1815241   3.823   3.843  10.401  0.5385  0.7394  0.3503
  122CHL1  H18A15242   3.735   3.852  10.469  0.6073 -2.4402  1.0591
  122CHL1  H18B15243   3.789   3.886  10.305  0.5971 -1.1802 -0.5906
  122CHL1  H18C15244   3.823   3.733  10.384 -0.2553  0.9564 -1.1500
  122CHL1   C1215245   3.941   4.069  10.435 -0.6343 -0.0219  1.0642
  122CHL1  H12A15246   3.857   4.108  10.495 -0.9657 -1.0451  1.2785
  122CHL1  H12B15247   4.037   4.107  10.477 -1.4802  3.1793  0.3479
  122CHL1   C1115248   3.923   4.124  10.289 -0.6462  0.0945 -0.2621
  122CHL1  H11A15249   3.818   4.101  10.260 -1.4341  0.8475  1.8319
  122CHL1  H11B15250   3.944   4.233  10.295  2.2767 -0.4100 -0.0742
  122CHL1    C915251   4.017   4.058  10.185  0.0982  0.1370 -0.5057
  122CHL1    H915252   4.117   4.095  10.217 -0.4937  1.3991 -0.0190
  122CHL1   C1015253   3.998   4.106  10.039  0.6192 -0.1908 -0.5287
  122CHL1   C1915254   3.850   4.084   9.996 -0.1730  0.2806  0.1928
  122CHL1  H19A15255   3.825   4.099   9.889  1.5514 -0.6574 -0.3896
  122CHL1  H19B15256   3.836   3.974  10.011  0.1131  0.5136  2.5850
  122CHL1  H19C15257   3.781   4.134  10.067  1.4513  1.8835  0.7271
  122CHL1    C115258   4.034   4.257  10.028  0.4141  0.4717  0.1942
  122CHL1   H1A15259   3.951   4.315  10.073 -2.8344 -2.9169 -0.8512
  122CHL1   H1B15260   4.129   4.278  10.082  0.8195 -0.7060 -0.0254
  122CHL1    C215261   4.043   4.315   9.891 -0.3138  0.1199  0.2594
  122CHL1   H2A15262   4.091   4.415   9.891  2.7841 -1.2222 -1.3325
  122CHL1   H2B15263   3.950   4.307   9.831 -0.8246  2.7392  0.5879
  122CHL1   C2015264   3.917   3.853  10.698  0.1979 -0.1251  0.0952
  122CHL1   H2015265   3.832   3.786  10.673 -0.8458  0.3835  2.0401
  122CHL1   C2115266   3.846   3.991  10.728 -0.1014 -0.3082  0.0771
  122CHL1  H21A15267   3.774   4.015  10.648 -1.1653 -0.3486  1.0000
  122CHL1  H21B15268   3.918   4.076  10.736 -1.6114  1.0274 -0.1108
  122CHL1  H21C15269   3.783   4.004  10.818  0.3818 -2.1855  0.7290
  122CHL1   C2215270   3.998   3.794  10.823  0.6767 -0.1081 -0.7635
  122CHL1  H22A15271   4.033   3.690  10.802 -0.7231 -1.0307  1.2041
  122CHL1  H22B15272   4.067   3.878  10.844 -0.2422  1.0080 -1.9589
  122CHL1   C2315273   3.905   3.779  10.951 -0.5486 -0.1953 -0.3939
  122CHL1  H23A15274   3.890   3.885  10.983  2.2365  0.0548  0.4068
  122CHL1  H23B15275   3.805   3.737  10.930 -0.6587 -0.2004  0.1250
  122CHL1   C2415276   3.961   3.701  11.070  0.1841  0.6550  0.6151
  122CHL1  H24A15277   4.002   3.604  11.033 -0.5588  0.6980 -0.3571
  122CHL1  H24B15278   4.037   3.767  11.117 -0.5895  0.3954  2.2949
  122CHL1   C2515279   3.874   3.663  11.191  0.0166  0.0534  0.3855
  122CHL1   H2515280   3.934   3.600  11.260 -0.4552 -0.7621  0.0692
  122CHL1   C2615281   3.824   3.778  11.280  0.5487  0.1208  0.4991
  122CHL1  H26A15282   3.909   3.838  11.319  0.2020  0.4480  0.7695
  122CHL1  H26B15283   3.760   3.839  11.212  0.5878 -1.4984 -1.0425
  122CHL1  H26C15284   3.759   3.742  11.362  0.1348  0.7701  0.4648
  122CHL1   C2715285   3.752   3.574  11.156  0.3091 -0.3104 -0.2798
  122CHL1  H27A15286   3.720   3.520  11.248 -0.1038 -0.1807 -0.3463
  122CHL1  H27B15287   3.674   3.638  11.110  2.1587  3.5862  1.5572
  122CHL1  H27C15288   3.785   3.496  11.083  2.0758  0.6073 -0.5181
  123CHL1    C315289   4.718   3.922   8.943  0.5115 -0.7675 -0.3316
  123CHL1    H315290   4.704   3.812   8.933  0.7454 -1.0774  2.1221
  123CHL1    O315291   4.674   3.989   8.823  0.1162 -0.0342  0.8368
  123CHL1   H3'15292   4.735   4.062   8.810 -1.9114  1.3171 -2.0235
  123CHL1    C415293   4.628   3.957   9.060  0.9104 -0.3070  0.0432
  123CHL1   H4A15294   4.621   4.067   9.063 -1.6566 -0.4161  2.7343
  123CHL1   H4B15295   4.525   3.926   9.030  1.5689 -0.9848 -1.6688
  123CHL1    C515296   4.663   3.902   9.195  0.0855 -0.5943  0.1803
  123CHL1    C615297   4.569   3.826   9.265 -0.6894 -0.4087 -0.2496
  123CHL1    H615298   4.469   3.806   9.224 -0.3795  1.9173 -2.3716
  123CHL1    C715299   4.602   3.773   9.401 -0.2612  0.1308 -0.3949
  123CHL1   H7A15300   4.522   3.804   9.471 -0.4016 -1.2653  0.1018
  123CHL1   H7B15301   4.596   3.662   9.400 -3.1590  0.1983 -1.2115
  123CHL1    C815302   4.739   3.825   9.457  0.1215 -0.8128 -0.2925
  123CHL1    H815303   4.722   3.930   9.488  1.9310 -0.2081 -1.2367
  123CHL1   C1415304   4.780   3.737   9.571 -0.0567  0.2636 -0.1827
  123CHL1   H1415305   4.791   3.635   9.528 -0.9520  0.4463 -0.8567
  123CHL1   C1515306   4.678   3.706   9.680  0.4149  0.0727  0.2866
  123CHL1  H15A15307   4.618   3.792   9.719 -0.2353 -0.7619  1.2052
  123CHL1  H15B15308   4.614   3.620   9.651  1.2827 -0.0139 -1.4390
  123CHL1   C1615309   4.768   3.663   9.802 -0.3506 -0.1408 -0.3073
  123CHL1  H16A15310   4.754   3.723   9.895  3.7741 -1.9720  1.7393
  123CHL1  H16B15311   4.752   3.561   9.841  1.9066 -0.5878 -0.4078
  123CHL1   C1715312   4.914   3.671   9.754 -0.1752  0.7879 -0.4616
  123CHL1   H1715313   4.934   3.569   9.714 -0.2142  0.7910 -0.4888
  123CHL1   C1315314   4.914   3.776   9.633  0.2511 -0.2533 -0.1393
  123CHL1   C1815315   4.907   3.918   9.695  0.5850  0.5787  0.4345
  123CHL1  H18A15316   4.880   3.989   9.614  1.2151  1.6610  1.1495
  123CHL1  H18B15317   4.844   3.924   9.787  2.1296  2.9391  1.4310
  123CHL1  H18C15318   5.007   3.941   9.737  0.6787  0.1464  0.4476
  123CHL1   C1215319   5.026   3.768   9.522 -0.8640 -0.1355  0.2227
  123CHL1  H12A15320   5.128   3.789   9.559 -1.4114  0.0704  1.6707
  123CHL1  H12B15321   5.022   3.669   9.471 -0.1144  1.0273 -2.2544
  123CHL1   C1115322   4.992   3.853   9.400 -0.1133  0.2857  0.3096
  123CHL1  H11A15323   5.003   3.958   9.435  0.4532  0.4885 -0.4472
  123CHL1  H11B15324   5.058   3.840   9.312  0.3663  0.7050  0.6060
  123CHL1    C915325   4.847   3.831   9.350  0.1323 -0.1114 -0.7321
  123CHL1    H915326   4.854   3.729   9.308  0.3903 -0.7671  0.8270
  123CHL1   C1015327   4.812   3.923   9.232  0.5710  0.3126 -0.1686
  123CHL1   C1915328   4.822   4.070   9.272  0.1630  0.3931  0.3406
  123CHL1  H19A15329   4.790   4.132   9.185  2.5654  1.3177  0.0246
  123CHL1  H19B15330   4.758   4.089   9.361 -0.1690  0.2121  0.1413
  123CHL1  H19C15331   4.924   4.096   9.308  0.4036 -1.4993  1.1379
  123CHL1    C115332   4.900   3.900   9.104  0.4444  0.3324 -0.4309
  123CHL1   H1A15333   5.003   3.936   9.122 -0.7213  3.4091  0.7533
  123CHL1   H1B15334   4.908   3.790   9.087  0.6625  0.4435 -1.0389
  123CHL1    C215335   4.854   3.970   8.977 -0.5758  0.5001  0.1061
  123CHL1   H2A15336   4.928   3.948   8.897  0.4294  2.4667  0.4175
  123CHL1   H2B15337   4.867   4.078   8.998 -0.2593  0.4668  0.0892
  123CHL1   C2015338   5.010   3.692   9.874  0.8395  0.2725 -0.3496
  123CHL1   H2015339   4.999   3.795   9.913 -0.3515 -0.4570  1.3488
  123CHL1   C2115340   5.144   3.669   9.817  0.0744  0.6444  0.1501
  123CHL1  H21A15341   5.163   3.752   9.746 -0.0716 -0.6253 -1.4196
  123CHL1  H21B15342   5.156   3.568   9.772 -1.4103  1.3881 -2.0872
  123CHL1  H21C15343   5.226   3.683   9.891  1.3808 -2.1080 -0.6428
  123CHL1   C2215344   4.982   3.597   9.986 -0.2368  0.1284 -0.2664
  123CHL1  H22A15345   4.876   3.600  10.019  0.4239  0.0258  2.0093
  123CHL1  H22B15346   5.003   3.495   9.946  1.1348 -0.0184  0.7432
  123CHL1   C2315347   5.072   3.606  10.107  0.1937 -0.4710  0.1387
  123CHL1  H23A15348   5.155   3.533  10.113  2.4453  1.7501 -1.5169
  123CHL1  H23B15349   5.136   3.697  10.097  0.1479 -0.5449 -1.0245
  123CHL1   C2415350   4.999   3.620  10.246 -0.3373 -0.2721 -0.1972
  123CHL1  H24A15351   4.920   3.699  10.248 -0.2004 -0.1499  1.2164
  123CHL1  H24B15352   4.962   3.518  10.267 -0.3398 -0.4490 -1.0221
  123CHL1   C2515353   5.103   3.639  10.354 -1.1500 -0.3503  0.1961
  123CHL1   H2515354   5.184   3.565  10.338  0.5099  1.2111  1.0061
  123CHL1   C2615355   5.156   3.786  10.355  0.2886  0.6917 -0.5316
  123CHL1  H26A15356   5.218   3.801  10.264  0.2192  1.8095 -0.4116
  123CHL1  H26B15357   5.065   3.847  10.341 -0.4031 -0.0452  0.5720
  123CHL1  H26C15358   5.211   3.806  10.449 -1.2487  0.3898  0.4583
  123CHL1   C2715359   5.039   3.607  10.492 -0.0631 -0.0520 -0.1312
  123CHL1  H27A15360   5.110   3.627  10.575  2.8866  0.0275 -2.4989
  123CHL1  H27B15361   4.943   3.659  10.511 -0.3195 -0.9041  1.1263
  123CHL1  H27C15362   5.022   3.497  10.488 -1.6045  0.1960 -0.9495
  124CHL1    C315363   3.770   5.128   9.664  0.2533 -0.4325  0.0209
  124CHL1    H315364   3.812   5.026   9.660 -0.9039 -0.8705 -1.5128
  124CHL1    O315365   3.714   5.137   9.534  0.8357 -0.0184  0.3566
  124CHL1   H3'15366   3.660   5.214   9.552  0.5120 -0.5004  1.5353
  124CHL1    C415367   3.654   5.119   9.757 -0.1600  0.1933 -1.1058
  124CHL1   H4A15368   3.600   5.216   9.749 -0.4765  0.1410  0.1614
  124CHL1   H4B15369   3.585   5.038   9.724 -2.3856  1.8798 -0.8096
  124CHL1    C515370   3.688   5.108   9.908  0.3895 -0.0526  0.3408
  124CHL1    C615371   3.622   5.026   9.991  1.2984  0.7198  0.0204
  124CHL1    H615372   3.540   4.969   9.947  2.9354 -1.6087 -0.1877
  124CHL1    C715373   3.660   5.009  10.135  0.5154  0.0693  0.0058
  124CHL1   H7A15374   3.568   5.009  10.197  0.8614 -3.2347  0.6760
  124CHL1   H7B15375   3.697   4.905  10.149  0.6718  0.1604  0.2741
  124CHL1    C815376   3.758   5.116  10.193  0.6297 -0.0200  0.2692
  124CHL1    H815377   3.694   5.205  10.216 -0.1460  0.0292 -1.8269
  124CHL1   C1415378   3.828   5.067  10.320  0.5153 -0.4436  0.2218
  124CHL1   H1415379   3.901   4.990  10.287  1.1709  0.1976  0.1329
  124CHL1   C1515380   3.739   5.000  10.422  0.3108 -0.4850 -0.1464
  124CHL1  H15A15381   3.645   5.053  10.448  1.1301 -0.2572  2.7173
  124CHL1  H15B15382   3.721   4.893  10.396 -1.0371 -0.2882 -0.0753
  124CHL1   C1615383   3.820   5.007  10.551  0.3743 -0.2650  0.7762
  124CHL1  H16A15384   3.769   5.064  10.632 -0.6026 -0.9989  0.6967
  124CHL1  H16B15385   3.850   4.906  10.586 -0.0668 -0.7541 -0.2219
  124CHL1   C1715386   3.949   5.092  10.516  0.2534 -0.8057 -0.0849
  124CHL1   H1715387   4.031   5.021  10.493  0.7886 -0.3676  0.4562
  124CHL1   C1315388   3.913   5.171  10.393 -0.2113 -0.4014 -0.6691
  124CHL1   C1815389   3.832   5.295  10.435  0.1883  0.4752  0.2151
  124CHL1  H18A15390   3.761   5.265  10.515 -0.2655  0.3414 -0.2361
  124CHL1  H18B15391   3.899   5.374  10.476 -1.0087  2.8731 -2.1044
  124CHL1  H18C15392   3.767   5.341  10.357  0.9007  0.2092 -0.5468
  124CHL1   C1215393   4.029   5.207  10.299  0.2847 -0.0229 -0.1815
  124CHL1  H12A15394   4.090   5.289  10.343  0.4805 -0.6908  0.8325
  124CHL1  H12B15395   4.097   5.124  10.271  1.4721  0.4574  1.1883
  124CHL1   C1115396   3.967   5.261  10.162  0.2515  0.2584  0.2481
  124CHL1  H11A15397   3.919   5.360  10.184  1.0324  1.0482 -1.4538
  124CHL1  H11B15398   4.044   5.290  10.088 -0.1384  0.8351  0.0554
  124CHL1    C915399   3.863   5.162  10.091 -0.1038 -0.1177 -0.1657
  124CHL1    H915400   3.923   5.071  10.074  0.9352  0.3502  0.8435
  124CHL1   C1015401   3.804   5.201   9.956  0.3886 -0.6333  0.3553
  124CHL1   C1915402   3.748   5.351   9.969  0.4421 -0.6354 -0.2836
  124CHL1  H19A15403   3.684   5.389   9.887 -0.4600  0.2030  0.7786
  124CHL1  H19B15404   3.697   5.368  10.066  1.4372 -0.2063  0.1719
  124CHL1  H19C15405   3.832   5.424   9.973  0.1773 -0.2406 -1.4268
  124CHL1    C115406   3.912   5.206   9.851 -0.5609  0.2541  0.1100
  124CHL1   H1A15407   3.997   5.269   9.884 -0.5888 -0.4389  1.6160
  124CHL1   H1B15408   3.957   5.104   9.845  0.7381  0.9038 -2.3735
  124CHL1    C215409   3.865   5.240   9.706  0.2950  0.0264  0.4876
  124CHL1   H2A15410   3.954   5.236   9.639  0.8607  0.3322  1.2153
  124CHL1   H2B15411   3.827   5.345   9.704 -1.4438 -0.5822  0.0666
  124CHL1   C2015412   4.003   5.164  10.639 -0.4371 -0.3664 -0.0921
  124CHL1   H2015413   3.929   5.238  10.679  0.4056 -0.3891  1.5685
  124CHL1   C2115414   4.137   5.229  10.602 -0.3550 -0.4910  0.1630
  124CHL1  H21A15415   4.191   5.262  10.694 -0.1312  0.1851 -0.2058
  124CHL1  H21B15416   4.119   5.317  10.536  3.4203  1.6298  1.6456
  124CHL1  H21C15417   4.193   5.145  10.556  0.0825 -0.1396  0.0521
  124CHL1   C2215418   4.026   5.060  10.754 -0.0400  0.3237 -0.1218
  124CHL1  H22A15419   3.926   5.025  10.787  0.9166 -3.2027 -0.6095
  124CHL1  H22B15420   4.078   4.971  10.713  0.0272  0.7494 -0.9878
  124CHL1   C2315421   4.092   5.108  10.879 -0.4860 -0.2569 -0.1993
  124CHL1  H23A15422   4.194   5.147  10.863 -0.9142  0.7963 -0.4163
  124CHL1  H23B15423   4.045   5.204  10.910  0.8350  0.3650 -0.0627
  124CHL1   C2415424   4.076   5.005  10.996 -0.6319 -0.4852 -0.1117
  124CHL1  H24A15425   3.968   4.999  11.021 -0.7781 -0.9069 -0.8259
  124CHL1  H24B15426   4.111   4.906  10.959  3.1015  1.1697 -1.5700
  124CHL1   C2515427   4.156   5.035  11.124 -0.1460 -0.1112  0.3814
  124CHL1   H2515428   4.255   5.059  11.080 -1.3858  2.3572 -1.3140
  124CHL1   C2615429   4.123   5.164  11.201 -0.3187  0.0336  0.1743
  124CHL1  H26A15430   4.146   5.252  11.137  0.5442  0.3932  0.9551
  124CHL1  H26B15431   4.015   5.154  11.228 -0.1028 -1.6269  0.5122
  124CHL1  H26C15432   4.193   5.167  11.287  2.8015 -1.3845 -2.1634
  124CHL1   C2715433   4.177   4.911  11.223 -0.0719 -0.1407 -0.3227
  124CHL1  H27A15434   4.244   4.936  11.308 -1.5688  0.5257  0.6896
  124CHL1  H27B15435   4.079   4.892  11.271 -0.5088  2.5438 -0.0051
  124CHL1  H27C15436   4.206   4.816  11.172 -0.0467 -1.7427  2.5045
  125CHL1    C315437   3.878   6.303   9.763  0.8150  0.7341 -0.0266
  125CHL1    H315438   3.777   6.341   9.792  0.2542 -0.8575  0.1945
  125CHL1    O315439   3.881   6.328   9.620 -0.0401 -0.8103 -0.3322
  125CHL1   H3'15440   3.796   6.300   9.586 -0.8650  0.2431  0.7763
  125CHL1    C415441   3.986   6.373   9.847 -0.4650 -0.3463 -1.2279
  125CHL1   H4A15442   4.078   6.332   9.802 -1.0748 -1.4994 -1.4663
  125CHL1   H4B15443   3.972   6.479   9.815 -1.7971  0.5047  1.7756
  125CHL1    C515444   3.972   6.348  10.001  0.5340  0.1322 -0.3549
  125CHL1    C615445   3.958   6.453  10.083 -0.3855  0.2747 -0.6040
  125CHL1    H615446   3.975   6.554  10.042 -1.0287 -0.0793 -1.7960
  125CHL1    C715447   3.938   6.442  10.229 -0.4752  0.1482 -0.4145
  125CHL1   H7A15448   4.031   6.493  10.262  0.8818 -1.5083 -1.5135
  125CHL1   H7B15449   3.858   6.499  10.281  0.4369 -1.0717  2.4999
  125CHL1    C815450   3.957   6.299  10.283 -0.1662 -0.3051  0.6691
  125CHL1    H815451   4.067   6.286  10.277 -0.3918 -2.0501 -3.0742
  125CHL1   C1415452   3.893   6.289  10.419 -0.2934  0.3129  0.3363
  125CHL1   H1415453   3.785   6.277  10.401 -0.4030 -1.2196  1.7009
  125CHL1   C1515454   3.904   6.399  10.519 -0.4383 -0.7713  0.3534
  125CHL1  H15A15455   4.000   6.454  10.526 -0.5808  0.1648 -3.1570
  125CHL1  H15B15456   3.831   6.477  10.489  0.0688 -1.0461 -1.8198
  125CHL1   C1615457   3.880   6.340  10.657  0.1778 -0.2449  0.2057
  125CHL1  H16A15458   3.975   6.349  10.714 -0.3283 -1.7424  1.3844
  125CHL1  H16B15459   3.798   6.381  10.720  0.1748 -0.8621  0.6170
  125CHL1   C1715460   3.864   6.184  10.631  0.4224 -0.2180  0.3488
  125CHL1   H1715461   3.754   6.168  10.625  0.5306 -1.3335  1.0105
  125CHL1   C1315462   3.918   6.154  10.495 -0.5869  0.3752  0.0301
  125CHL1   C1815463   4.072   6.141  10.501  0.8323  0.4017 -0.2229
  125CHL1  H18A15464   4.109   6.065  10.573 -0.1783 -1.9377 -2.0204
  125CHL1  H18B15465   4.119   6.115  10.403 -0.3058 -1.1536 -0.3879
  125CHL1  H18C15466   4.110   6.244  10.520  0.6098  0.5223 -0.4356
  125CHL1   C1215467   3.852   6.047  10.408  0.5479  0.3113  0.4132
  125CHL1  H12A15468   3.869   5.947  10.454 -1.9741  0.5476  2.0832
  125CHL1  H12B15469   3.743   6.057  10.428  0.2072 -1.7679 -0.0833
  125CHL1   C1115470   3.889   6.057  10.254  0.3275 -0.6963 -0.7770
  125CHL1  H11A15471   3.989   6.009  10.257  1.0839  0.8402  1.8546
  125CHL1  H11B15472   3.820   5.987  10.202  0.0515  0.3922 -1.9022
  125CHL1    C915473   3.895   6.197  10.190  0.2965 -0.1585 -0.0504
  125CHL1    H915474   3.788   6.219  10.173  0.0403 -1.0804  0.2714
  125CHL1   C1015475   3.954   6.201  10.042  0.4721  0.7140  0.1699
  125CHL1   C1915476   4.094   6.140  10.042 -0.3986 -0.2075  0.2940
  125CHL1  H19A15477   4.133   6.145   9.938 -0.7325 -0.5317  0.1525
  125CHL1  H19B15478   4.162   6.195  10.111  0.6980 -1.3279  0.1435
  125CHL1  H19C15479   4.081   6.033  10.070 -2.2778 -0.2274 -0.5067
  125CHL1    C115480   3.860   6.136   9.943 -0.0278 -1.1355  0.6757
  125CHL1   H1A15481   3.863   6.026   9.957  2.8440 -1.2585 -0.3213
  125CHL1   H1B15482   3.756   6.173   9.954  0.3396 -0.4661  2.2119
  125CHL1    C215483   3.886   6.155   9.791 -0.5518  0.1301  0.3820
  125CHL1   H2A15484   3.814   6.096   9.731  0.0357  2.2702 -2.6101
  125CHL1   H2B15485   3.987   6.131   9.752 -0.2749  0.7426  0.7164
  125CHL1   C2015486   3.897   6.097  10.749  0.0371  0.6157 -0.1487
  125CHL1   H2015487   3.999   6.130  10.779  0.2208  0.0755 -0.1728
  125CHL1   C2115488   3.905   5.941  10.728  0.2409  0.5540 -0.4691
  125CHL1  H21A15489   3.810   5.908  10.680 -0.7899  0.3638  1.5828
  125CHL1  H21B15490   3.925   5.880  10.818 -0.8386  0.0830 -0.5349
  125CHL1  H21C15491   3.989   5.922  10.658  1.3218  0.2520  0.8867
  125CHL1   C2215492   3.803   6.126  10.873 -0.3411 -0.8779 -0.1674
  125CHL1  H22A15493   3.808   6.237  10.882  1.2718 -0.9669  0.3180
  125CHL1  H22B15494   3.701   6.083  10.859 -1.8504  2.0215  1.0192
  125CHL1   C2315495   3.868   6.094  11.006 -0.2642  0.4613  0.0763
  125CHL1  H23A15496   3.859   5.983  11.006 -0.6354  0.4791  1.2566
  125CHL1  H23B15497   3.975   6.125  11.003 -0.2115  0.2510 -1.8328
  125CHL1   C2415498   3.795   6.140  11.130  0.1262 -0.3673  0.2164
  125CHL1  H24A15499   3.778   6.250  11.129  3.1560  0.1668 -1.3246
  125CHL1  H24B15500   3.693   6.097  11.123 -1.2246  2.3088  1.8095
  125CHL1   C2515501   3.851   6.107  11.272  0.3508 -0.3646  0.2732
  125CHL1   H2515502   3.878   6.000  11.279  2.4060 -0.0839 -1.9249
  125CHL1   C2615503   3.967   6.198  11.294 -0.1431 -0.5581  0.1153
  125CHL1  H26A15504   4.000   6.198  11.400  0.2831 -0.4929 -0.0141
  125CHL1  H26B15505   4.053   6.163  11.233 -2.8532 -1.9426 -3.2029
  125CHL1  H26C15506   3.950   6.300  11.253 -1.8996 -1.9303 -2.8747
  125CHL1   C2715507   3.738   6.124  11.377 -0.1426  0.3350  0.5216
  125CHL1  H27A15508   3.708   6.231  11.385 -0.4587  0.4797 -1.9072
  125CHL1  H27B15509   3.650   6.061  11.351 -0.2023  1.3432 -2.0427
  125CHL1  H27C15510   3.779   6.088  11.474  1.1209  1.3781  0.4050
  126CHL1    C315511   2.874   6.511   9.702 -0.7146  0.3208 -0.2898
  126CHL1    H315512   2.906   6.406   9.719  1.2157  0.6717 -1.3647
  126CHL1    O315513   2.884   6.527   9.563  0.6946  0.3026  0.2573
  126CHL1   H3'15514   2.798   6.504   9.525  0.6518 -1.6105  1.3901
  126CHL1    C415515   2.736   6.539   9.755  0.7034  0.6519  0.0738
  126CHL1   H4A15516   2.686   6.631   9.719 -2.1955 -0.8028  0.1142
  126CHL1   H4B15517   2.671   6.456   9.720  1.4158 -1.0849  2.5876
  126CHL1    C515518   2.729   6.542   9.905  0.3132  0.9125 -0.6750
  126CHL1    C615519   2.639   6.467   9.972  0.5354 -0.3104 -0.5959
  126CHL1    H615520   2.573   6.397   9.918 -0.1871 -1.7436  1.9637
  126CHL1    C715521   2.619   6.489  10.121  0.3944 -0.0417 -0.6598
  126CHL1   H7A15522   2.511   6.482  10.143  0.6627 -0.1168  0.7315
  126CHL1   H7B15523   2.671   6.400  10.164  1.9306 -0.1625 -2.6158
  126CHL1    C815524   2.690   6.607  10.192 -0.2076 -0.0848  0.3461
  126CHL1    H815525   2.635   6.702  10.176 -1.1531 -0.5767  0.5950
  126CHL1   C1415526   2.699   6.586  10.337  0.3599  0.3274 -0.5060
  126CHL1   H1415527   2.752   6.490  10.351  1.0750  0.7206 -0.4547
  126CHL1   C1515528   2.566   6.564  10.417 -0.0125 -0.5044 -0.0719
  126CHL1  H15A15529   2.485   6.640  10.406  0.8842  0.2856 -1.5072
  126CHL1  H15B15530   2.531   6.460  10.401 -0.9377 -0.6658  2.5077
  126CHL1   C1615531   2.616   6.579  10.559  0.7189  0.1424 -0.8257
  126CHL1  H16A15532   2.545   6.646  10.612  1.5259 -0.1443  0.6854
  126CHL1  H16B15533   2.596   6.481  10.607  1.8162 -0.8062 -2.2439
  126CHL1   C1715534   2.768   6.625  10.560  0.0622 -0.0122  0.7882
  126CHL1   H1715535   2.828   6.533  10.573  0.1187  0.1433  1.7300
  126CHL1   C1315536   2.778   6.684  10.417 -0.3105 -0.2558  0.4643
  126CHL1   C1815537   2.701   6.823  10.417 -0.3916  0.0506 -0.3972
  126CHL1  H18A15538   2.599   6.830  10.460 -0.4825  1.7798 -0.8113
  126CHL1  H18B15539   2.757   6.887  10.488  1.3165  0.7668 -2.3229
  126CHL1  H18C15540   2.708   6.868  10.316  2.6856  0.2773 -0.1736
  126CHL1   C1215541   2.929   6.686  10.351 -0.2414  0.4769 -0.3259
  126CHL1  H12A15542   2.985   6.772  10.393 -0.7602  1.5119 -1.6616
  126CHL1  H12B15543   2.962   6.585  10.381  0.3717  0.6257 -0.5002
  126CHL1   C1115544   2.914   6.722  10.200  0.1659  0.0807 -0.1942
  126CHL1  H11A15545   2.869   6.823  10.192 -1.4636 -0.6282 -0.3947
  126CHL1  H11B15546   3.016   6.737  10.159  0.6746 -0.4160  0.8533
  126CHL1    C915547   2.834   6.618  10.132  0.2443  0.2509  0.7865
  126CHL1    H915548   2.883   6.519  10.139  2.7921  1.3042 -0.7886
  126CHL1   C1015549   2.827   6.637   9.977  0.1317  1.1610  0.6205
  126CHL1   C1915550   2.770   6.778   9.948 -0.8086  0.0017  0.3425
  126CHL1  H19A15551   2.817   6.859  10.009 -3.0914  1.7797 -0.1227
  126CHL1  H19B15552   2.785   6.817   9.845 -0.8694  1.5733  0.9014
  126CHL1  H19C15553   2.661   6.782   9.969 -0.8698 -1.8588  0.4972
  126CHL1    C115554   2.969   6.612   9.924 -0.6441 -0.0412 -0.6797
  126CHL1   H1A15555   3.030   6.697   9.960 -1.1639  0.6932 -1.4881
  126CHL1   H1B15556   3.019   6.515   9.945  0.0043  0.0267 -1.8256
  126CHL1    C215557   2.976   6.612   9.771  0.1231  0.1455 -0.0083
  126CHL1   H2A15558   3.081   6.582   9.750 -0.5103 -1.6916 -0.7327
  126CHL1   H2B15559   2.960   6.715   9.734 -1.7108 -0.1325 -0.0784
  126CHL1   C2015560   2.814   6.711  10.677  0.9045  0.2331 -0.2685
  126CHL1   H2015561   2.732   6.786  10.685 -0.3235 -1.0763 -0.0795
  126CHL1   C2115562   2.949   6.774  10.676 -0.2674  0.1868 -0.5740
  126CHL1  H21A15563   3.033   6.710  10.640  1.7681  1.4338  1.7206
  126CHL1  H21B15564   2.985   6.814  10.773  1.6579 -0.0037 -1.1696
  126CHL1  H21C15565   2.951   6.854  10.599 -0.5199  0.0052 -0.7734
  126CHL1   C2215566   2.788   6.638  10.822 -0.4858  0.0740  0.9134
  126CHL1  H22A15567   2.723   6.548  10.815 -0.7726  0.3652 -0.3991
  126CHL1  H22B15568   2.884   6.626  10.875 -0.2879 -0.0250  0.5358
  126CHL1   C2315569   2.714   6.739  10.917 -0.1922  0.1261  0.1345
  126CHL1  H23A15570   2.753   6.841  10.897 -2.3894  1.3536  1.7575
  126CHL1  H23B15571   2.613   6.743  10.871  0.4179  1.8872 -1.1472
  126CHL1   C2415572   2.724   6.695  11.064  0.1916  0.8073  0.5862
  126CHL1  H24A15573   2.823   6.697  11.115 -0.3911 -2.8689  2.1415
  126CHL1  H24B15574   2.654   6.766  11.114  0.3600 -0.4260  2.7145
  126CHL1   C2515575   2.667   6.553  11.088  0.0104  0.3403 -0.9729
  126CHL1   H2515576   2.715   6.479  11.021  3.2186  0.5130  0.9171
  126CHL1   C2615577   2.683   6.515  11.237 -0.4810  0.0638 -0.0116
  126CHL1  H26A15578   2.791   6.506  11.264 -0.2545  1.4970 -0.3135
  126CHL1  H26B15579   2.646   6.590  11.310 -1.0547 -1.1830  1.0061
  126CHL1  H26C15580   2.632   6.420  11.263  1.0692 -1.0176 -0.7495
  126CHL1   C2715581   2.516   6.542  11.057 -0.5623  0.6789 -0.5389
  126CHL1  H27A15582   2.472   6.641  11.033 -1.4069  1.0338  2.1733
  126CHL1  H27B15583   2.508   6.492  10.958 -1.9234  1.1703 -0.6984
  126CHL1  H27C15584   2.453   6.495  11.136 -0.3285  2.6295  0.8629
  127CHL1    C315585   3.597   6.582   9.653 -0.1599 -0.4013 -0.3444
  127CHL1    H315586   3.703   6.571   9.685  0.2209 -0.6686 -1.6070
  127CHL1    O315587   3.585   6.566   9.513 -0.3961 -0.1062 -0.5120
  127CHL1   H3'15588   3.573   6.471   9.510 -0.5717 -0.0587 -2.0226
  127CHL1    C415589   3.509   6.479   9.726 -0.5534 -0.2187 -0.0207
  127CHL1   H4A15590   3.402   6.483   9.695 -0.4534  0.4639 -0.3106
  127CHL1   H4B15591   3.555   6.380   9.708  1.4123  0.9022 -1.5874
  127CHL1    C515592   3.506   6.495   9.877  0.4433  0.1644  0.1569
  127CHL1    C615593   3.533   6.397   9.962  0.7535  0.0153 -0.8719
  127CHL1    H615594   3.551   6.297   9.921  0.3251  0.3114 -1.8238
  127CHL1    C715595   3.516   6.406  10.114 -0.6197 -0.4526  0.1899
  127CHL1   H7A15596   3.466   6.321  10.165 -0.2529 -0.8924 -0.1760
  127CHL1   H7B15597   3.615   6.413  10.163 -0.7328 -2.6988  0.8522
  127CHL1    C815598   3.441   6.538  10.157  0.5956 -0.1263 -0.3059
  127CHL1    H815599   3.331   6.527  10.142  0.2023 -0.0832  2.0809
  127CHL1   C1415600   3.477   6.566  10.306  0.3950  0.1500  0.1898
  127CHL1   H1415601   3.586   6.587  10.302  0.2577  0.8357 -0.1389
  127CHL1   C1515602   3.452   6.457  10.409  0.0839  0.3340 -0.2787
  127CHL1  H15A15603   3.354   6.410  10.387 -0.2397  0.5732  0.6444
  127CHL1  H15B15604   3.530   6.377  10.403 -0.6940 -0.4645  0.0118
  127CHL1   C1615605   3.455   6.528  10.546 -0.7798  0.5477  0.4592
  127CHL1  H16A15606   3.367   6.493  10.605 -0.4820 -0.0456  0.5569
  127CHL1  H16B15607   3.547   6.492  10.596 -1.0693  0.0027  0.6040
  127CHL1   C1715608   3.468   6.674  10.517 -0.4418 -0.4282 -0.1955
  127CHL1   H1715609   3.578   6.686  10.524 -0.4196 -0.2692 -0.7359
  127CHL1   C1315610   3.420   6.696  10.365  0.0592 -0.3559 -0.2402
  127CHL1   C1815611   3.265   6.680  10.348  0.6852 -0.2285 -0.6801
  127CHL1  H18A15612   3.221   6.586  10.386  0.3668 -1.7482 -4.3842
  127CHL1  H18B15613   3.208   6.764  10.394  1.0836 -0.1040 -0.4082
  127CHL1  H18C15614   3.241   6.680  10.240 -0.5549  0.5859 -0.4278
  127CHL1   C1215615   3.467   6.811  10.284 -0.2692  0.2914 -0.1433
  127CHL1  H12A15616   3.410   6.901  10.316  0.7684  0.1289  2.4359
  127CHL1  H12B15617   3.575   6.816  10.308  0.5886 -4.6442 -1.8739
  127CHL1   C1115618   3.449   6.794  10.127 -0.0213  0.5138  0.2197
  127CHL1  H11A15619   3.344   6.821  10.103  0.1876  2.4764  1.3391
  127CHL1  H11B15620   3.512   6.871  10.079  1.7912 -0.8490  0.2950
  127CHL1    C915621   3.487   6.655  10.071 -0.0328  0.3865 -0.1902
  127CHL1    H915622   3.597   6.656  10.081  0.1168 -3.4556 -0.0923
  127CHL1   C1015623   3.462   6.638   9.917  0.0276  0.0895  0.4646
  127CHL1   C1915624   3.313   6.658   9.874  0.1345  0.4648  0.5299
  127CHL1  H19A15625   3.279   6.753   9.921  0.4873  0.7788  0.1570
  127CHL1  H19B15626   3.306   6.667   9.764 -4.1752  0.0243  0.5880
  127CHL1  H19C15627   3.254   6.570   9.908 -1.5821  1.9974  1.7433
  127CHL1    C115628   3.543   6.749   9.841 -0.2130  0.1494  0.7374
  127CHL1   H1A15629   3.492   6.846   9.854  0.0823  0.0526  3.1134
  127CHL1   H1B15630   3.643   6.747   9.889  1.3416 -0.6573 -2.2997
  127CHL1    C215631   3.561   6.729   9.692 -0.2041 -0.3131 -0.1919
  127CHL1   H2A15632   3.632   6.805   9.652  0.1439  0.0194  1.0341
  127CHL1   H2B15633   3.467   6.760   9.641 -2.2830 -0.2800  3.3240
  127CHL1   C2015634   3.394   6.770  10.615  0.6975 -0.8859  0.2762
  127CHL1   H2015635   3.288   6.786  10.586  0.6015  1.1512  1.5667
  127CHL1   C2115636   3.453   6.914  10.601 -0.6664  0.0771 -0.3627
  127CHL1  H21A15637   3.563   6.900  10.613 -0.4865 -0.5374 -2.3696
  127CHL1  H21B15638   3.409   6.993  10.665 -0.7359 -0.2035 -0.0620
  127CHL1  H21C15639   3.447   6.948  10.495 -0.9330  1.7732  0.1736
  127CHL1   C2215640   3.389   6.726  10.764 -0.5033  0.5717  0.2549
  127CHL1  H22A15641   3.327   6.798  10.822 -0.4197  0.8060  0.0573
  127CHL1  H22B15642   3.319   6.640  10.765 -0.1165  0.2528  1.9876
  127CHL1   C2315643   3.517   6.704  10.831  0.0770 -0.3661 -0.6996
  127CHL1  H23A15644   3.572   6.636  10.762 -1.1202 -0.2363 -1.8200
  127CHL1  H23B15645   3.584   6.793  10.833  2.2381 -1.8571 -1.9280
  127CHL1   C2415646   3.506   6.637  10.971 -0.1581  0.1900  0.3191
  127CHL1  H24A15647   3.456   6.704  11.044  1.6089  1.4957  0.3963
  127CHL1  H24B15648   3.450   6.541  10.976  0.0733 -0.0080 -0.6811
  127CHL1   C2515649   3.650   6.613  11.028 -0.5776 -0.0281  0.1896
  127CHL1   H2515650   3.708   6.704  11.002 -0.3177 -0.0920  0.5458
  127CHL1   C2615651   3.643   6.618  11.181 -0.2591 -0.7676 -0.1072
  127CHL1  H26A15652   3.589   6.711  11.207  0.4670 -0.6563  1.0782
  127CHL1  H26B15653   3.590   6.526  11.215  0.4399 -0.5051  1.8144
  127CHL1  H26C15654   3.744   6.634  11.226  0.0751 -1.8063 -0.4480
  127CHL1   C2715655   3.717   6.483  10.976  0.3713  0.0625 -0.7253
  127CHL1  H27A15656   3.719   6.477  10.865  1.5542  0.4374 -0.7355
  127CHL1  H27B15657   3.815   6.482  11.027 -0.9893  0.9690  2.1022
  127CHL1  H27C15658   3.647   6.401  11.003 -1.9788  1.8545 -0.9898
  128CHL1    C315659   3.237   2.826   9.665 -0.1859  0.7182 -0.5798
  128CHL1    H315660   3.286   2.913   9.714 -1.0122  0.9585 -0.1739
  128CHL1    O315661   3.242   2.824   9.523  1.0345 -0.3885  0.2742
  128CHL1   H3'15662   3.239   2.734   9.490 -0.4896 -1.0799  2.1255
  128CHL1    C415663   3.291   2.688   9.724  0.1337  0.1810 -0.1033
  128CHL1   H4A15664   3.234   2.607   9.674 -0.5377  0.8512 -0.4493
  128CHL1   H4B15665   3.394   2.658   9.697  0.1397 -1.2765  1.3564
  128CHL1    C515666   3.272   2.689   9.873  0.0568 -0.7124 -0.1030
  128CHL1    C615667   3.371   2.696   9.959  0.8135  0.5099  0.5792
  128CHL1    H615668   3.470   2.697   9.910 -0.7701  0.5279 -2.8499
  128CHL1    C715669   3.351   2.691  10.113  0.0930  0.3000  0.0617
  128CHL1   H7A15670   3.429   2.621  10.150  2.2002  2.0946 -0.7882
  128CHL1   H7B15671   3.381   2.790  10.153 -1.4087  0.3914  1.0309
  128CHL1    C815672   3.206   2.654  10.154  0.2575 -0.3351 -0.4085
  128CHL1    H815673   3.191   2.545  10.140 -1.6701 -0.2815  0.8561
  128CHL1   C1415674   3.185   2.699  10.295  0.7590 -0.0969  0.7550
  128CHL1   H1415675   3.188   2.810  10.303  1.3217 -0.1096  0.7297
  128CHL1   C1515676   3.282   2.647  10.401 -0.5981 -0.0983 -0.2835
  128CHL1  H15A15677   3.302   2.538  10.395 -0.3845 -0.3664  3.2560
  128CHL1  H15B15678   3.381   2.699  10.400 -1.7830  2.2957 -0.1813
  128CHL1   C1615679   3.210   2.677  10.526 -0.5111  0.6647 -0.4882
  128CHL1  H16A15680   3.222   2.588  10.591  1.5370 -1.0733 -3.0147
  128CHL1  H16B15681   3.245   2.758  10.594 -2.8477 -1.2036  3.2807
  128CHL1   C1715682   3.061   2.705  10.491  0.0061 -0.3438  0.4876
  128CHL1   H1715683   3.051   2.815  10.500  0.8407 -0.3201  1.2817
  128CHL1   C1315684   3.045   2.672  10.348 -0.1704 -0.1606  0.0614
  128CHL1   C1815685   2.998   2.517  10.337 -0.1091  0.2985 -0.5393
  128CHL1  H18A15686   3.005   2.486  10.230 -2.1200 -0.0081 -0.6235
  128CHL1  H18B15687   3.064   2.451  10.396  0.1844 -0.1428 -1.3468
  128CHL1  H18C15688   2.893   2.506  10.372  0.3157 -1.6253  0.2069
  128CHL1   C1215689   2.950   2.758  10.264 -0.0430  0.0280 -0.4750
  128CHL1  H12A15690   2.846   2.741  10.301  0.1720 -0.2873 -0.0135
  128CHL1  H12B15691   2.979   2.865  10.271  1.6035 -0.4706  1.1211
  128CHL1   C1115692   2.958   2.717  10.117  0.4653  0.0513 -0.7203
  128CHL1  H11A15693   2.915   2.615  10.111  1.1442 -0.2726 -0.1619
  128CHL1  H11B15694   2.890   2.783  10.058  2.1473  1.0485 -1.6071
  128CHL1    C915695   3.102   2.726  10.069 -0.1951 -0.1409  0.1360
  128CHL1    H915696   3.118   2.836  10.078  2.6049 -0.3614 -0.9919
  128CHL1   C1015697   3.123   2.695   9.916 -0.2041 -0.5920  0.1247
  128CHL1   C1915698   3.052   2.563   9.881 -0.9298 -0.5303  0.6644
  128CHL1  H19A15699   3.059   2.546   9.771  0.1768 -2.1816  0.9561
  128CHL1  H19B15700   3.102   2.473   9.922 -1.1628 -1.5960 -1.2306
  128CHL1  H19C15701   2.942   2.557   9.898 -1.1878  0.8322 -0.3714
  128CHL1    C115702   3.057   2.811   9.839 -0.2515  0.1092  0.3167
  128CHL1   H1A15703   2.947   2.816   9.853 -0.4605  2.0083 -1.4305
  128CHL1   H1B15704   3.105   2.901   9.885  4.8808 -2.5362  0.9624
  128CHL1    C215705   3.088   2.827   9.689  1.4001 -0.7703 -0.8602
  128CHL1   H2A15706   3.050   2.923   9.648  0.7095 -0.3140  0.7813
  128CHL1   H2B15707   3.037   2.744   9.635 -0.9851  0.5531 -0.7285
  128CHL1   C2015708   2.967   2.660  10.603 -0.0393 -0.2845 -0.0237
  128CHL1   H2015709   2.978   2.549  10.599  0.2012 -0.2596 -0.0895
  128CHL1   C2115710   2.829   2.706  10.563  0.4388 -0.1622  0.0160
  128CHL1  H21A15711   2.834   2.810  10.524  2.1283 -0.2076  0.0107
  128CHL1  H21B15712   2.754   2.708  10.644 -0.3583 -0.3526 -0.7014
  128CHL1  H21C15713   2.795   2.651  10.473 -2.5707  2.0705 -0.3623
  128CHL1   C2215714   3.005   2.712  10.745 -0.4007 -0.2993  0.2699
  128CHL1  H22A15715   3.109   2.692  10.778  0.2265  1.3528 -0.5814
  128CHL1  H22B15716   2.979   2.820  10.751 -1.3903 -0.5202  0.1589
  128CHL1   C2315717   2.928   2.639  10.856  0.1165 -0.7873  0.3990
  128CHL1  H23A15718   2.842   2.585  10.811  0.5965 -0.9638 -0.3206
  128CHL1  H23B15719   2.991   2.552  10.885 -1.7223 -3.0459 -1.9559
  128CHL1   C2415720   2.903   2.731  10.981 -0.0965  0.1221 -0.1263
  128CHL1  H24A15721   2.995   2.793  10.994  0.0356 -0.3804  1.7124
  128CHL1  H24B15722   2.814   2.794  10.958  0.6564  1.8739  1.4492
  128CHL1   C2515723   2.857   2.653  11.107  0.4026  0.2643  0.6170
  128CHL1   H2515724   2.945   2.605  11.154  0.4362 -0.8630 -0.5228
  128CHL1   C2615725   2.789   2.751  11.205 -0.6310  0.0572  0.6079
  128CHL1  H26A15726   2.868   2.824  11.234 -1.0518  0.5183  0.5842
  128CHL1  H26B15727   2.703   2.800  11.155 -1.0983 -1.3584 -0.0350
  128CHL1  H26C15728   2.752   2.692  11.291 -0.7896 -0.2040  0.3623
  128CHL1   C2715729   2.765   2.527  11.074 -0.1165 -0.1036 -0.0561
  128CHL1  H27A15730   2.662   2.565  11.060 -0.8183 -2.4317 -1.8976
  128CHL1  H27B15731   2.800   2.470  10.986 -1.4095  0.3203 -0.8612
  128CHL1  H27C15732   2.757   2.463  11.165 -1.4146  0.0031 -0.0749
  129CHL1    C315733   5.349   5.901   9.658 -0.0796 -0.3386  0.1950
  129CHL1    H315734   5.299   6.000   9.664  1.5261  0.7613 -2.8815
  129CHL1    O315735   5.364   5.865   9.519  0.9410  0.3020 -0.3013
  129CHL1   H3'15736   5.440   5.916   9.490  0.8691  0.0278 -0.9839
  129CHL1    C415737   5.491   5.912   9.725 -0.2449 -0.0136 -0.4755
  129CHL1   H4A15738   5.545   5.816   9.708  0.8308  0.3507  0.7854
  129CHL1   H4B15739   5.544   5.993   9.670 -0.0072 -1.2008 -2.0893
  129CHL1    C515740   5.484   5.937   9.876  0.2687 -0.3450  0.5861
  129CHL1    C615741   5.542   6.043   9.930  0.2811 -0.4971 -0.4555
  129CHL1    H615742   5.600   6.116   9.871  3.7364 -0.5289  2.5580
  129CHL1    C715743   5.542   6.063  10.078  0.0432  0.0245  0.2573
  129CHL1   H7A15744   5.644   6.074  10.122  0.4430  0.7393 -0.7778
  129CHL1   H7B15745   5.487   6.153  10.114 -0.5531 -0.1726 -0.1491
  129CHL1    C815746   5.478   5.946  10.160 -0.0149 -0.1689 -0.8045
  129CHL1    H815747   5.562   5.874  10.158 -0.2027 -0.3811 -1.2451
  129CHL1   C1415748   5.453   5.998  10.299 -0.0724 -0.1418 -0.0731
  129CHL1   H1415749   5.379   6.079  10.282 -0.8337 -0.1213  2.9050
  129CHL1   C1515750   5.573   6.054  10.375  0.5947 -0.0344  0.2489
  129CHL1  H15A15751   5.651   5.976  10.375  0.3136 -0.3573 -1.7377
  129CHL1  H15B15752   5.619   6.150  10.343  0.6531 -0.6147 -1.5303
  129CHL1   C1615753   5.520   6.059  10.514 -0.4066  0.4039 -0.9273
  129CHL1  H16A15754   5.601   6.011  10.573  0.1202 -0.6125 -2.4095
  129CHL1  H16B15755   5.506   6.163  10.548 -2.3036  0.3118 -1.3184
  129CHL1   C1715756   5.381   5.993  10.521  0.4967 -0.3791  0.4420
  129CHL1   H1715757   5.304   6.070  10.499 -1.8938 -2.8695 -0.4226
  129CHL1   C1315758   5.378   5.901  10.393 -0.3623 -0.9935 -0.1305
  129CHL1   C1815759   5.479   5.786  10.423  0.1261 -0.0819 -0.1286
  129CHL1  H18A15760   5.551   5.818  10.501 -0.7450  0.3226  0.5240
  129CHL1  H18B15761   5.430   5.694  10.462 -0.5730  0.6561  0.7853
  129CHL1  H18C15762   5.523   5.749  10.328  0.4505  2.1672 -0.9066
  129CHL1   C1215763   5.252   5.850  10.324 -0.3046  0.2056 -0.1328
  129CHL1  H12A15764   5.208   5.768  10.385  0.5753  0.4457  0.8541
  129CHL1  H12B15765   5.180   5.935  10.327  1.2364  1.6420 -1.4351
  129CHL1   C1115766   5.286   5.787  10.189 -0.4323 -0.3327  0.7505
  129CHL1  H11A15767   5.348   5.696  10.203  1.6607  0.7366 -0.9466
  129CHL1  H11B15768   5.193   5.747  10.144 -2.3503  1.4801  2.8157
  129CHL1    C915769   5.354   5.889  10.094 -0.0135 -0.8285 -0.0093
  129CHL1    H915770   5.286   5.976  10.082  1.7257  0.5396 -0.3586
  129CHL1   C1015771   5.388   5.837   9.947  0.5130 -0.2761 -0.0753
  129CHL1   C1915772   5.447   5.700   9.967 -0.4721 -0.2985 -0.6286
  129CHL1  H19A15773   5.488   5.664   9.870  1.7594 -1.5384  0.6874
  129CHL1  H19B15774   5.529   5.708  10.041 -1.2849 -1.5391  0.4355
  129CHL1  H19C15775   5.365   5.631   9.997 -0.7724  0.6235  0.7495
  129CHL1    C115776   5.253   5.819   9.878 -0.1831 -0.0607 -0.2654
  129CHL1   H1A15777   5.203   5.726   9.911  0.2296 -0.2002 -0.0321
  129CHL1   H1B15778   5.182   5.903   9.894  1.2872  1.6806 -2.2808
  129CHL1    C215779   5.266   5.793   9.727 -0.0178  0.0239 -0.5960
  129CHL1   H2A15780   5.168   5.778   9.677 -1.6274  1.8994  1.7742
  129CHL1   H2B15781   5.322   5.698   9.720 -0.5784 -0.2034 -2.6381
  129CHL1   C2015782   5.346   5.934  10.654  0.1263  0.2008  0.3025
  129CHL1   H2015783   5.412   5.846  10.673  0.2537  0.2919  0.2806
  129CHL1   C2115784   5.194   5.892  10.646 -0.2799 -0.5766  0.0016
  129CHL1  H21A15785   5.131   5.980  10.621 -1.2390 -0.7773  1.5971
  129CHL1  H21B15786   5.160   5.859  10.746  0.1936  2.2602  1.1838
  129CHL1  H21C15787   5.178   5.809  10.573  0.0303  0.7263 -1.6215
  129CHL1   C2215788   5.355   6.040  10.766 -0.1307  0.2803 -0.1613
  129CHL1  H22A15789   5.457   6.081  10.748 -0.1594  0.0553 -0.8586
  129CHL1  H22B15790   5.277   6.113  10.738 -0.3445 -0.5499 -1.9189
  129CHL1   C2315791   5.358   5.986  10.911  0.2164 -0.8621 -0.2291
  129CHL1  H23A15792   5.258   5.940  10.924 -0.0968 -1.0274 -2.7727
  129CHL1  H23B15793   5.429   5.902  10.916  1.1976 -0.1633 -1.6554
  129CHL1   C2415794   5.379   6.095  11.013 -0.2287  0.4016 -0.8244
  129CHL1  H24A15795   5.486   6.126  11.013 -0.3787  1.0660  1.4858
  129CHL1  H24B15796   5.317   6.184  10.990 -1.6606 -0.5452 -0.7427
  129CHL1   C2515797   5.355   6.042  11.156  0.8166 -0.5331 -0.0667
  129CHL1   H2515798   5.248   6.015  11.167  0.3088  1.9507  2.0334
  129CHL1   C2615799   5.430   5.909  11.175  0.5887  0.3458  0.4756
  129CHL1  H26A15800   5.411   5.830  11.099 -1.7339  0.0197  1.3083
  129CHL1  H26B15801   5.539   5.929  11.170  0.4016  1.1661 -0.4382
  129CHL1  H26C15802   5.391   5.865  11.270 -0.9653  0.3258 -0.1365
  129CHL1   C2715803   5.401   6.140  11.260  0.5404 -0.3802  0.6712
  129CHL1  H27A15804   5.390   6.095  11.362 -2.2325 -4.6516 -1.2181
  129CHL1  H27B15805   5.509   6.163  11.246  0.4870  0.6208  1.7080
  129CHL1  H27C15806   5.344   6.235  11.265  1.0236 -0.1531  2.9781
  130CHL1    C315807   1.794   5.975   9.524  0.0006  0.6060  0.0173
  130CHL1    H315808   1.881   6.044   9.523  1.0305 -0.6827 -0.2536
  130CHL1    O315809   1.739   5.962   9.392  0.3484  0.2919 -0.5388
  130CHL1   H3'15810   1.656   5.919   9.412 -0.3425  2.4818  1.9836
  130CHL1    C415811   1.834   5.839   9.565 -0.4451  0.3091 -0.2646
  130CHL1   H4A15812   1.745   5.773   9.574  0.9041 -1.7392 -1.0986
  130CHL1   H4B15813   1.895   5.796   9.483  1.3168  0.8342  0.7242
  130CHL1    C515814   1.912   5.851   9.699  0.5802  0.0647  0.1953
  130CHL1    C615815   2.046   5.823   9.708  0.2728  0.2713  0.1321
  130CHL1    H615816   2.105   5.785   9.623  2.6849  0.5883  1.5717
  130CHL1    C715817   2.120   5.827   9.838  0.1673  0.6636  0.1552
  130CHL1   H7A15818   2.185   5.741   9.863  2.3047  1.7373 -1.3875
  130CHL1   H7B15819   2.193   5.911   9.840 -0.0868  0.9702 -1.6012
  130CHL1    C815820   2.022   5.833   9.952 -0.1861 -0.2451  0.3417
  130CHL1    H815821   1.980   5.732   9.972  1.1472 -0.8864  0.0853
  130CHL1   C1415822   2.099   5.871  10.077 -0.2213  0.7720 -0.3423
  130CHL1   H1415823   2.155   5.967  10.065  0.5860  0.8341  2.8829
  130CHL1   C1515824   2.211   5.778  10.126 -0.7107 -0.1597  0.0672
  130CHL1  H15A15825   2.189   5.672  10.098 -3.1134  0.7202 -1.7099
  130CHL1  H15B15826   2.310   5.807  10.086 -0.1922  2.0327  2.7167
  130CHL1   C1615827   2.208   5.797  10.281 -0.5940 -0.1499 -0.5001
  130CHL1  H16A15828   2.188   5.692  10.310 -0.1978 -0.6822 -2.0296
  130CHL1  H16B15829   2.306   5.835  10.319 -1.6980  1.7178  0.6116
  130CHL1   C1715830   2.103   5.907  10.312  0.1154  0.2002  0.3740
  130CHL1   H1715831   2.157   6.002  10.291 -2.6381  2.1431  1.5656
  130CHL1   C1315832   2.003   5.888  10.196  0.2350 -0.4143 -0.0216
  130CHL1   C1815833   1.918   5.761  10.228 -0.3555 -0.6744  0.0634
  130CHL1  H18A15834   1.846   5.786  10.309  0.9371  0.7140  0.8301
  130CHL1  H18B15835   1.881   5.723  10.130 -0.5980 -1.2041  0.3567
  130CHL1  H18C15836   1.985   5.683  10.268  3.1685  1.5601 -0.9736
  130CHL1   C1215837   1.912   6.010  10.185 -0.6290 -0.4735 -0.2118
  130CHL1  H12A15838   1.846   6.020  10.274 -1.0319  1.6772 -0.6917
  130CHL1  H12B15839   1.977   6.101  10.181 -0.6985 -0.3098  1.5748
  130CHL1   C1115840   1.829   5.981  10.059  0.5851 -0.5598 -0.0814
  130CHL1  H11A15841   1.744   5.918  10.092 -0.4485  1.6959  1.9522
  130CHL1  H11B15842   1.783   6.079  10.035  2.5318  0.2816 -0.5942
  130CHL1    C915843   1.910   5.940   9.935 -0.2151  0.2114  0.2866
  130CHL1    H915844   1.974   6.027   9.910  3.0463 -1.9975  0.3657
  130CHL1   C1015845   1.824   5.913   9.810  0.2273  0.3290  0.0030
  130CHL1   C1915846   1.714   5.811   9.848 -0.0313 -0.1265 -0.5474
  130CHL1  H19A15847   1.640   5.849   9.921  1.4047  0.7747  0.5026
  130CHL1  H19B15848   1.656   5.791   9.755  1.4467  0.3441 -1.6179
  130CHL1  H19C15849   1.759   5.712   9.871  1.0440 -0.0651 -2.1765
  130CHL1    C115850   1.755   6.042   9.768  0.2620 -0.2075 -0.1724
  130CHL1   H1A15851   1.693   6.068   9.856  1.5167  1.3728  0.3124
  130CHL1   H1B15852   1.833   6.122   9.770  0.6130 -0.5625  0.6865
  130CHL1    C215853   1.688   6.031   9.628 -0.0172 -0.4199 -0.4351
  130CHL1   H2A15854   1.644   6.126   9.591  0.4157  0.2961  0.8488
  130CHL1   H2B15855   1.599   5.966   9.640 -0.7109  0.5880  0.0064
  130CHL1   C2015856   2.048   5.920  10.456 -0.6319 -0.4616 -0.3350
  130CHL1   H2015857   1.938   5.909  10.464 -0.4903 -0.7832  1.5388
  130CHL1   C2115858   2.083   6.066  10.502 -0.5532  0.4979  0.0127
  130CHL1  H21A15859   2.192   6.089  10.508 -0.6749  1.3033 -0.5642
  130CHL1  H21B15860   2.034   6.083  10.600 -0.8074  2.1714 -0.3688
  130CHL1  H21C15861   2.049   6.138  10.424  0.1096  0.7690 -0.0319
  130CHL1   C2215862   2.114   5.819  10.557  0.0327 -1.0034 -0.1191
  130CHL1  H22A15863   2.087   5.715  10.528 -1.6555 -0.7607  0.4842
  130CHL1  H22B15864   2.223   5.819  10.539 -0.1461 -2.3213 -1.4141
  130CHL1   C2315865   2.079   5.822  10.706 -0.2723 -0.2167  0.0783
  130CHL1  H23A15866   2.143   5.749  10.761  0.4032  0.5161  0.2905
  130CHL1  H23B15867   2.102   5.926  10.739 -3.2308  0.1138  1.3794
  130CHL1   C2415868   1.928   5.801  10.738 -0.2627  0.4966  0.6290
  130CHL1  H24A15869   1.875   5.866  10.665 -2.4577  1.2900  2.7977
  130CHL1  H24B15870   1.904   5.693  10.730  0.9367  0.2126  0.7609
  130CHL1   C2515871   1.888   5.852  10.876 -0.0136 -0.3471  0.3710
  130CHL1   H2515872   1.892   5.963  10.876  0.3275 -0.2694  3.3217
  130CHL1   C2615873   1.746   5.810  10.905 -0.6188 -0.7054 -0.4618
  130CHL1  H26A15874   1.679   5.852  10.828 -1.1720 -2.3093 -0.8945
  130CHL1  H26B15875   1.748   5.699  10.899  1.2769 -0.7487  0.1767
  130CHL1  H26C15876   1.718   5.846  11.007  0.3248  1.6405 -0.9743
  130CHL1   C2715877   1.976   5.799  10.987  0.2120 -0.4068  0.1335
  130CHL1  H27A15878   1.945   5.837  11.087 -3.0560 -0.2782 -0.8479
  130CHL1  H27B15879   1.977   5.687  10.991 -2.7638 -0.6022 -1.6812
  130CHL1  H27C15880   2.080   5.827  10.960  0.4296 -0.9137  0.4066
  131CHL1    C315881   3.596   5.831   9.836  0.0489  0.2424  0.2497
  131CHL1    H315882   3.706   5.838   9.852  0.3212 -0.8633 -0.8721
  131CHL1    O315883   3.578   5.801   9.697  0.4948  0.2095 -0.1232
  131CHL1   H3'15884   3.625   5.866   9.645 -0.6192 -0.3314 -1.8874
  131CHL1    C415885   3.531   5.725   9.925 -0.1783 -0.1498  0.6163
  131CHL1   H4A15886   3.429   5.697   9.891  0.6025 -2.0918 -0.2558
  131CHL1   H4B15887   3.587   5.631   9.908  0.1654  0.1913 -0.1896
  131CHL1    C515888   3.522   5.759  10.074  0.1942  0.4638 -0.6315
  131CHL1    C615889   3.581   5.673  10.162 -0.5210 -0.4520  0.4833
  131CHL1    H615890   3.639   5.582  10.142  1.5625  0.2045  2.9278
  131CHL1    C715891   3.579   5.685  10.310  0.2173 -0.9834 -0.3202
  131CHL1   H7A15892   3.551   5.594  10.369 -0.5276 -0.2259  0.5291
  131CHL1   H7B15893   3.679   5.708  10.352 -0.0500 -1.2808  0.5161
  131CHL1    C815894   3.480   5.797  10.353  0.6757  0.2466  0.2926
  131CHL1    H815895   3.383   5.750  10.326  1.6209 -0.2875 -2.5373
  131CHL1   C1415896   3.515   5.840  10.497  0.0667  0.1067  0.7274
  131CHL1   H1415897   3.617   5.883  10.500 -0.2620  0.8911  0.8619
  131CHL1   C1515898   3.522   5.731  10.606 -0.9869  0.0659 -0.1586
  131CHL1  H15A15899   3.435   5.665  10.583 -0.2919 -0.8674 -0.1761
  131CHL1  H15B15900   3.616   5.673  10.592  0.5199  2.1459  0.7589
  131CHL1   C1615901   3.496   5.805  10.740  1.3838 -0.7671  0.2580
  131CHL1  H16A15902   3.412   5.748  10.785 -0.2808 -0.5972 -2.4284
  131CHL1  H16B15903   3.584   5.802  10.808  0.9914  0.0517  0.8108
  131CHL1   C1715904   3.464   5.949  10.704  0.1416 -0.3903  0.5023
  131CHL1   H1715905   3.567   5.987  10.688  0.7825 -1.4395  2.0139
  131CHL1   C1315906   3.416   5.941  10.555  0.1572  0.5890 -0.3936
  131CHL1   C1815907   3.271   5.874  10.564 -0.3961  0.5228 -0.4244
  131CHL1  H18A15908   3.231   5.834  10.468 -0.1689 -1.8772  0.4064
  131CHL1  H18B15909   3.256   5.799  10.645  0.3401  0.1514 -0.6301
  131CHL1  H18C15910   3.201   5.953  10.601 -1.1355  0.1316 -0.9652
  131CHL1   C1215911   3.417   6.063  10.469  0.0555 -0.0737 -0.3770
  131CHL1  H12A15912   3.342   6.141  10.496 -0.6134 -0.4922 -0.9934
  131CHL1  H12B15913   3.519   6.107  10.462  0.1812 -0.3620 -0.3385
  131CHL1   C1115914   3.386   6.024  10.323  0.1122  0.4579  0.3084
  131CHL1  H11A15915   3.283   5.983  10.314 -0.0213  1.2213 -3.1700
  131CHL1  H11B15916   3.380   6.120  10.268 -0.3780  0.4245  0.3016
  131CHL1    C915917   3.481   5.922  10.265  0.7477 -0.3853  0.2935
  131CHL1    H915918   3.584   5.963  10.273  1.0166 -1.0589  0.3191
  131CHL1   C1015919   3.452   5.894  10.112 -0.1436  0.4042 -0.2370
  131CHL1   C1915920   3.307   5.882  10.076 -0.2123 -0.4375  0.1467
  131CHL1  H19A15921   3.290   5.858   9.969 -3.7277  1.5233  0.0978
  131CHL1  H19B15922   3.256   5.805  10.138  1.3227 -2.6092 -1.1533
  131CHL1  H19C15923   3.252   5.978  10.089  0.1297 -0.0712 -1.0271
  131CHL1    C115924   3.528   5.991  10.021 -0.1977  0.5217 -0.0513
  131CHL1   H1A15925   3.479   6.089  10.038 -2.3800 -0.4898 -0.1367
  131CHL1   H1B15926   3.633   5.995  10.056 -0.9207  1.0612  2.2603
  131CHL1    C215927   3.528   5.969   9.865  0.3510 -0.2050 -0.8294
  131CHL1   H2A15928   3.592   6.053   9.832  1.1887 -0.8043 -0.7679
  131CHL1   H2B15929   3.427   5.977   9.818  0.1078 -0.5449 -0.3863
  131CHL1   C2015930   3.389   6.036  10.802  0.6985  0.7090 -0.6873
  131CHL1   H2015931   3.284   6.044  10.766 -0.0874 -1.3786  0.9518
  131CHL1   C2115932   3.439   6.182  10.801 -0.2976  0.4796 -0.5567
  131CHL1  H21A15933   3.546   6.183  10.831 -0.8732  0.4609  1.7085
  131CHL1  H21B15934   3.381   6.237  10.879  2.9634  1.9266  1.0301
  131CHL1  H21C15935   3.431   6.221  10.697  0.2714 -1.2453 -1.2724
  131CHL1   C2215936   3.381   5.978  10.948 -0.2242  0.4585 -0.1011
  131CHL1  H22A15937   3.305   5.896  10.953 -0.1659  0.3854 -0.4147
  131CHL1  H22B15938   3.482   5.939  10.972  0.3824  2.6925  1.2356
  131CHL1   C2315939   3.342   6.072  11.053 -0.5942  0.0602 -0.4600
  131CHL1  H23A15940   3.423   6.145  11.074  0.9907 -1.0753 -2.2886
  131CHL1  H23B15941   3.243   6.119  11.030 -0.6938 -0.2031 -0.5783
  131CHL1   C2415942   3.311   5.980  11.168 -0.0353  0.1316  0.3142
  131CHL1  H24A15943   3.227   5.909  11.155  0.3536 -0.8436  2.6320
  131CHL1  H24B15944   3.397   5.924  11.210 -1.8862 -1.8346  1.6849
  131CHL1   C2515945   3.255   6.052  11.294 -0.5527  0.4795  0.6405
  131CHL1   H2515946   3.162   6.106  11.264 -1.0399 -0.6610  0.0140
  131CHL1   C2615947   3.212   5.944  11.394  0.2827 -0.0121 -0.4157
  131CHL1  H26A15948   3.165   6.003  11.475  0.0855 -2.3353  1.2879
  131CHL1  H26B15949   3.135   5.875  11.353  1.3510 -1.7911  0.4484
  131CHL1  H26C15950   3.294   5.880  11.434 -0.5113 -1.6649 -1.3088
  131CHL1   C2715951   3.353   6.144  11.355 -0.3109  0.0876 -0.3595
  131CHL1  H27A15952   3.448   6.092  11.379  1.5843  1.4131 -4.2430
  131CHL1  H27B15953   3.395   6.231  11.301 -0.4070  0.4225  0.1043
  131CHL1  H27C15954   3.314   6.188  11.449 -1.4613  0.7389 -1.1217
  132CHL1    C315955   4.372   1.122   9.322  0.6075  0.2928 -0.1023
  132CHL1    H315956   4.325   1.022   9.334  2.4644 -0.5633  0.4986
  132CHL1    O315957   4.405   1.135   9.185 -0.0646  0.7200 -0.0733
  132CHL1   H3'15958   4.497   1.164   9.189  0.3780 -0.5407 -0.7308
  132CHL1    C415959   4.288   1.237   9.367 -0.5379  0.1654 -0.2228
  132CHL1   H4A15960   4.336   1.338   9.368 -0.9061  0.3551 -0.9339
  132CHL1   H4B15961   4.196   1.242   9.305 -0.2918  1.2442 -0.5159
  132CHL1    C515962   4.260   1.210   9.513  0.0537 -0.1980  0.1317
  132CHL1    C615963   4.129   1.196   9.555  0.9761  0.3178  0.0124
  132CHL1    H615964   4.045   1.210   9.485  0.9515  0.2945  0.0371
  132CHL1    C715965   4.074   1.187   9.695 -0.1728 -0.1926 -0.6065
  132CHL1   H7A15966   3.990   1.259   9.702  0.2766  0.3225 -0.4205
  132CHL1   H7B15967   4.030   1.087   9.718  1.7755 -0.6713  1.4430
  132CHL1    C815968   4.184   1.220   9.793  0.3308 -0.3582 -0.3715
  132CHL1    H815969   4.205   1.329   9.789 -0.7163 -0.1934 -2.2890
  132CHL1   C1415970   4.143   1.180   9.941  0.1027  0.2346  0.4288
  132CHL1   H1415971   4.124   1.070   9.935 -0.3439  0.3543 -0.4599
  132CHL1   C1515972   4.017   1.243   9.999 -0.1458 -0.2157  0.1219
  132CHL1  H15A15973   4.022   1.351   9.972 -1.6135  0.4162  2.0692
  132CHL1  H15B15974   3.921   1.205   9.958 -0.2258  1.4343 -1.3669
  132CHL1   C1615975   4.019   1.232  10.149  0.1395 -0.4285  0.3915
  132CHL1  H16A15976   4.013   1.336  10.190  1.7860 -0.1622  0.0494
  132CHL1  H16B15977   3.944   1.165  10.196  0.0898 -2.2223 -2.0653
  132CHL1   C1715978   4.156   1.164  10.180 -0.7523 -0.3759 -0.7638
  132CHL1   H1715979   4.151   1.054  10.178  0.3430 -0.4970  1.0388
  132CHL1   C1315980   4.246   1.199  10.054 -0.5160  0.3469 -0.0813
  132CHL1   C1815981   4.293   1.348  10.062 -0.3081 -0.1211 -0.2973
  132CHL1  H18A15982   4.329   1.390   9.966  0.9574 -1.4059 -0.4370
  132CHL1  H18B15983   4.214   1.421  10.089 -0.0262  0.3671 -0.7942
  132CHL1  H18C15984   4.372   1.359  10.140  0.0181 -0.7144 -0.5371
  132CHL1   C1215985   4.360   1.097  10.008  0.2203  0.1462 -0.1690
  132CHL1  H12A15986   4.446   1.091  10.078  1.1820  1.5171 -1.1918
  132CHL1  H12B15987   4.324   0.992   9.999  0.5662 -0.2809  2.5970
  132CHL1   C1115988   4.420   1.155   9.871  0.3946 -0.2733 -0.1200
  132CHL1  H11A15989   4.460   1.256   9.894 -1.8988  0.6064  0.2679
  132CHL1  H11B15990   4.502   1.089   9.835  0.0594 -0.1454 -1.1606
  132CHL1    C915991   4.316   1.151   9.754 -0.3064  0.2690 -0.7199
  132CHL1    H915992   4.287   1.044   9.748 -0.0191  0.2662 -2.7030
  132CHL1   C1015993   4.371   1.200   9.622 -0.1503 -0.0818  0.2409
  132CHL1   C1915994   4.449   1.330   9.637  0.7570  0.8767  0.7372
  132CHL1  H19A15995   4.539   1.305   9.696  0.1531  0.5366  1.5253
  132CHL1  H19B15996   4.467   1.377   9.538  0.6373  0.3314  0.4536
  132CHL1  H19C15997   4.389   1.409   9.686 -1.4401  1.0133 -1.9120
  132CHL1    C115998   4.470   1.100   9.557 -0.3482 -0.1319  0.0329
  132CHL1   H1A15999   4.562   1.093   9.619 -0.1899 -0.0314 -0.1840
  132CHL1   H1B16000   4.427   0.998   9.559 -0.1000 -0.2454 -0.3093
  132CHL1    C216001   4.497   1.124   9.405  0.6662  1.0667 -0.0826
  132CHL1   H2A16002   4.571   1.049   9.369 -0.6310 -0.0204 -0.6156
  132CHL1   H2B16003   4.544   1.224   9.403  0.7806  1.1220  2.3757
  132CHL1   C2016004   4.215   1.194  10.320  0.5664  0.8240  0.0775
  132CHL1   H2016005   4.211   1.305  10.324 -2.1244  0.9138 -1.9763
  132CHL1   C2116006   4.358   1.140  10.328  0.1401  0.1085  0.3194
  132CHL1  H21A16007   4.439   1.180  10.263 -0.3552  0.5994 -0.0004
  132CHL1  H21B16008   4.352   1.030  10.308 -0.6330 -0.0909  1.5276
  132CHL1  H21C16009   4.407   1.139  10.428  1.1003 -3.8601 -0.0143
  132CHL1   C2216010   4.123   1.147  10.436 -0.1322  0.0667  0.1460
  132CHL1  H22A16011   4.022   1.192  10.427  0.3291  0.9288 -0.9308
  132CHL1  H22B16012   4.109   1.037  10.439 -1.8102  0.2112 -1.0713
  132CHL1   C2316013   4.169   1.186  10.580  0.5592 -0.7016  0.5202
  132CHL1  H23A16014   4.277   1.165  10.593  0.7491  0.3455  0.7572
  132CHL1  H23B16015   4.153   1.295  10.593 -0.7265 -0.9154  0.8222
  132CHL1   C2416016   4.084   1.110  10.690 -0.0884  0.7942  0.5630
  132CHL1  H24A16017   3.975   1.127  10.683 -0.2798 -0.7177 -0.4332
  132CHL1  H24B16018   4.097   1.004  10.662  0.7515  0.4231  2.2659
  132CHL1   C2516019   4.145   1.123  10.834  0.1332  0.4870  0.0381
  132CHL1   H2516020   4.256   1.112  10.836  0.0467 -0.3315  0.8677
  132CHL1   C2616021   4.122   1.263  10.884 -0.4040 -0.0931 -0.5430
  132CHL1  H26A16022   4.011   1.275  10.888 -0.4227 -0.5461  0.9997
  132CHL1  H26B16023   4.179   1.271  10.979  0.9550 -2.2914 -1.1079
  132CHL1  H26C16024   4.165   1.337  10.813 -0.3002  1.1811  0.8011
  132CHL1   C2716025   4.088   1.009  10.920 -0.3117 -0.3219  0.1531
  132CHL1  H27A16026   4.124   1.023  11.024  0.3746  0.8567 -0.2274
  132CHL1  H27B16027   3.977   0.999  10.917 -0.1886 -1.6590 -1.2265
  132CHL1  H27C16028   4.128   0.913  10.881  3.0270  1.1266 -0.2789
  133CHL1    C316029   1.713   3.223   9.415 -0.2912  0.0800  0.5641
  133CHL1    H316030   1.798   3.283   9.454  0.6458  0.1112 -1.4464
  133CHL1    O316031   1.730   3.223   9.278  0.3495 -0.4565 -0.0903
  133CHL1   H3'16032   1.650   3.189   9.237  0.9418  0.9456 -2.6055
  133CHL1    C416033   1.723   3.069   9.458 -0.3983 -0.8151 -0.3867
  133CHL1   H4A16034   1.634   3.021   9.414 -1.5298 -1.1930  2.1806
  133CHL1   H4B16035   1.815   3.023   9.415 -0.5049  0.3218 -1.9198
  133CHL1    C516036   1.717   3.058   9.607 -0.1822  0.3783  0.0098
  133CHL1    C616037   1.808   2.988   9.676  0.0546  0.0206  0.5092
  133CHL1    H616038   1.898   2.945   9.630  0.6973  0.9929  0.8131
  133CHL1    C716039   1.800   2.959   9.821  0.3605  0.3169 -0.0408
  133CHL1   H7A16040   1.815   2.854   9.852 -0.5353  0.8199  2.3289
  133CHL1   H7B16041   1.871   3.028   9.870 -0.0431  0.8441 -0.1819
  133CHL1    C816042   1.659   2.993   9.881  0.3004 -0.8748 -0.1616
  133CHL1    H816043   1.599   2.903   9.855 -1.0443 -0.3855  1.1403
  133CHL1   C1416044   1.680   3.012  10.028 -0.3575  0.0445 -0.1861
  133CHL1   H1416045   1.754   3.094  10.042 -0.6183  0.2308  0.0975
  133CHL1   C1516046   1.749   2.893  10.106  0.1791  0.2036  0.5365
  133CHL1  H15A16047   1.717   2.794  10.067 -2.1644  1.4675 -0.9871
  133CHL1  H15B16048   1.859   2.903  10.097  0.0380  0.5761 -0.9246
  133CHL1   C1616049   1.706   2.921  10.242 -0.3249 -0.2194 -0.6866
  133CHL1  H16A16050   1.659   2.836  10.295  0.4430 -0.3527 -0.2096
  133CHL1  H16B16051   1.795   2.935  10.307 -0.8153 -1.2517  0.2253
  133CHL1   C1716052   1.608   3.050  10.251 -0.3865  0.1678 -0.0481
  133CHL1   H1716053   1.682   3.132  10.267  0.7199 -1.0936  1.5617
  133CHL1   C1316054   1.554   3.052  10.109  0.1214 -0.7540  0.4046
  133CHL1   C1816055   1.438   2.945  10.091 -0.1319  0.4400  0.1461
  133CHL1  H18A16056   1.462   2.851  10.145 -0.3018  0.5379  0.3918
  133CHL1  H18B16057   1.337   2.980  10.119 -2.1291 -2.2849 -2.9182
  133CHL1  H18C16058   1.434   2.905   9.987  2.1586  0.3259  0.0502
  133CHL1   C1216059   1.505   3.185  10.052 -0.6036 -0.6916  0.2123
  133CHL1  H12A16060   1.415   3.225  10.104 -1.0467 -0.6366 -0.5848
  133CHL1  H12B16061   1.586   3.260  10.063 -1.9978  0.6542  1.9523
  133CHL1   C1116062   1.476   3.173   9.901  0.2508  0.6264 -0.4028
  133CHL1  H11A16063   1.386   3.110   9.880 -0.6006  1.4612  0.6108
  133CHL1  H11B16064   1.450   3.275   9.866  2.0319  0.7569 -1.4459
  133CHL1    C916065   1.602   3.127   9.822  0.0037  0.5665 -0.0535
  133CHL1    H916066   1.677   3.205   9.848  0.2754  0.4860 -0.5886
  133CHL1   C1016067   1.594   3.121   9.673  0.8192  0.4307 -0.1125
  133CHL1   C1916068   1.473   3.032   9.639  0.1015  0.4722  0.5804
  133CHL1  H19A16069   1.371   3.054   9.679 -1.4860 -3.2580 -0.8857
  133CHL1  H19B16070   1.456   3.018   9.530 -1.9326 -3.2999  1.2172
  133CHL1  H19C16071   1.486   2.927   9.671 -1.0428  0.0995 -0.0847
  133CHL1    C116072   1.560   3.261   9.614 -0.3642 -0.2394  0.7263
  133CHL1   H1A16073   1.453   3.282   9.636 -1.1510 -0.6526 -2.3675
  133CHL1   H1B16074   1.623   3.345   9.650 -2.0978  1.3468  0.2042
  133CHL1    C216075   1.571   3.266   9.458 -0.3500  0.7116 -0.0183
  133CHL1   H2A16076   1.555   3.371   9.424  1.4968  0.5669 -1.4771
  133CHL1   H2B16077   1.498   3.203   9.404  0.5137 -0.8947  0.6069
  133CHL1   C2016078   1.518   3.052  10.372 -0.3162  0.6808  0.0757
  133CHL1   H2016079   1.440   2.974  10.359  0.6075 -0.1268 -0.8344
  133CHL1   C2116080   1.444   3.193  10.390  0.0832  0.2604 -0.1753
  133CHL1  H21A16081   1.396   3.216  10.488 -0.8623 -1.3067 -0.2422
  133CHL1  H21B16082   1.363   3.207  10.315  0.3634 -2.5763 -1.1422
  133CHL1  H21C16083   1.515   3.276  10.369  1.2862 -0.8517 -0.6117
  133CHL1   C2216084   1.597   3.014  10.500 -1.0527 -0.2223  1.1175
  133CHL1  H22A16085   1.650   2.919  10.479 -0.8469  0.3375 -1.0919
  133CHL1  H22B16086   1.659   3.106  10.513 -2.5386  1.0376 -0.2285
  133CHL1   C2316087   1.511   2.998  10.624 -0.0148  0.0114  0.2996
  133CHL1  H23A16088   1.442   3.079  10.656  0.2991  1.4015 -2.3201
  133CHL1  H23B16089   1.434   2.927  10.586  0.1334 -0.9525  1.7039
  133CHL1   C2416090   1.594   2.954  10.739 -0.2538  0.4334  0.0536
  133CHL1  H24A16091   1.657   2.864  10.725 -1.2596 -0.1299 -0.9947
  133CHL1  H24B16092   1.658   3.044  10.756  0.2851  0.0466  0.0902
  133CHL1   C2516093   1.509   2.933  10.868  0.8253 -0.4854  0.7158
  133CHL1   H2516094   1.436   3.016  10.871 -0.2313 -1.0116 -3.4906
  133CHL1   C2616095   1.426   2.800  10.854 -0.4507  0.1560  0.3794
  133CHL1  H26A16096   1.376   2.788  10.953  1.5054  2.6060  1.8071
  133CHL1  H26B16097   1.359   2.809  10.766 -3.1961 -1.0147  2.2151
  133CHL1  H26C16098   1.498   2.717  10.840  0.1764  0.6793  0.4185
  133CHL1   C2716099   1.598   2.930  10.989  0.7362 -0.9636  0.1905
  133CHL1  H27A16100   1.659   3.021  11.005 -0.7668 -0.3879  3.2433
  133CHL1  H27B16101   1.549   2.913  11.087 -0.0209  0.8965  0.1742
  133CHL1  H27C16102   1.686   2.863  10.973  1.9154  0.4404  0.5358
  134CHL1    C316103   6.324   4.500   9.495 -0.0310  0.3700  0.1448
  134CHL1    H316104   6.381   4.407   9.471  1.1125  0.9887  0.3817
  134CHL1    O316105   6.309   4.567   9.371  0.1590 -0.7256  1.1202
  134CHL1   H3'16106   6.297   4.658   9.396 -0.8075 -0.9403  1.4836
  134CHL1    C416107   6.183   4.451   9.539 -0.3542 -0.6652 -0.2698
  134CHL1   H4A16108   6.105   4.530   9.537  0.4675  0.2402  0.9695
  134CHL1   H4B16109   6.154   4.379   9.461 -2.0016  1.2492 -1.5368
  134CHL1    C516110   6.191   4.390   9.679  0.2936 -0.0640  0.0265
  134CHL1    C616111   6.136   4.266   9.705  0.1445 -0.0197  0.6738
  134CHL1    H616112   6.079   4.213   9.628  1.4734 -1.8318  0.8847
  134CHL1    C716113   6.132   4.210   9.841 -0.0315  0.4221  0.2262
  134CHL1   H7A16114   6.030   4.169   9.858 -0.5580  0.7083 -1.8770
  134CHL1   H7B16115   6.210   4.131   9.845 -0.9425 -0.5412 -0.4570
  134CHL1    C816116   6.162   4.314   9.953  0.6337  0.6535 -0.3829
  134CHL1    H816117   6.075   4.382   9.948  0.4215  0.2933 -1.9836
  134CHL1   C1416118   6.193   4.246  10.087  0.0189 -0.4482 -0.1653
  134CHL1   H1416119   6.287   4.189  10.074 -0.0858 -1.2070  1.9312
  134CHL1   C1516120   6.093   4.140  10.136  0.2027 -0.4066 -0.1063
  134CHL1  H15A16121   5.994   4.177  10.100  0.5383  0.4275 -0.2065
  134CHL1  H15B16122   6.121   4.041  10.093  1.3837 -0.3333  0.4676
  134CHL1   C1616123   6.092   4.133  10.287 -0.3787 -0.4982 -0.2639
  134CHL1  H16A16124   5.990   4.156  10.323  0.5182  1.9736  0.8997
  134CHL1  H16B16125   6.110   4.031  10.328 -0.6619  0.3343  2.0565
  134CHL1   C1716126   6.195   4.240  10.333  0.9386 -0.2131 -0.2455
  134CHL1   H1716127   6.291   4.185  10.336 -0.1649 -2.2685  2.8265
  134CHL1   C1316128   6.197   4.336  10.207 -0.8130 -0.0318 -0.1510
  134CHL1   C1816129   6.069   4.422  10.222 -0.5188  0.3500 -0.0110
  134CHL1  H18A16130   6.066   4.488  10.312 -1.0265 -1.2044  1.1608
  134CHL1  H18B16131   6.033   4.472  10.130 -3.1764  2.0808  1.8096
  134CHL1  H18C16132   5.991   4.346  10.241  0.8310 -1.4565 -1.3678
  134CHL1   C1216133   6.318   4.429  10.180 -0.3507 -0.0385 -0.3490
  134CHL1  H12A16134   6.339   4.498  10.264 -0.5789 -1.1937  0.6970
  134CHL1  H12B16135   6.407   4.363  10.171  0.0663  0.3053  1.0792
  134CHL1   C1116136   6.314   4.496  10.045  0.1916 -0.1396 -0.0300
  134CHL1  H11A16137   6.231   4.571  10.047  1.3109  1.1427  1.7636
  134CHL1  H11B16138   6.409   4.550  10.023  3.1567 -3.6561  2.8781
  134CHL1    C916139   6.277   4.404   9.920 -0.9119 -0.1993  0.7076
  134CHL1    H916140   6.360   4.331   9.908 -0.3249  0.7652 -1.8399
  134CHL1   C1016141   6.262   4.478   9.782 -0.4967 -0.3601  0.4482
  134CHL1   C1916142   6.168   4.603   9.808 -0.1225 -0.0116 -0.0340
  134CHL1  H19A16143   6.162   4.653   9.709  0.7085 -0.1796 -0.1743
  134CHL1  H19B16144   6.064   4.575   9.836  0.4254 -0.0132  2.2071
  134CHL1  H19C16145   6.208   4.676   9.882 -0.5453  0.8126 -0.6075
  134CHL1    C116146   6.404   4.522   9.729  0.4893  0.4553  0.0014
  134CHL1   H1A16147   6.450   4.600   9.794  4.1793 -0.4284 -1.2810
  134CHL1   H1B16148   6.467   4.433   9.710  0.2628  0.7470 -2.5163
  134CHL1    C216149   6.404   4.593   9.592  0.6185  0.0622 -0.1378
  134CHL1   H2A16150   6.504   4.595   9.544  0.7724 -2.2864 -0.0366
  134CHL1   H2B16151   6.360   4.695   9.592 -0.1532 -0.2626 -0.2124
  134CHL1   C2016152   6.159   4.288  10.481  0.1199  0.0718 -0.3485
  134CHL1   H2016153   6.058   4.333  10.483  0.8130  1.7720 -1.3947
  134CHL1   C2116154   6.255   4.410  10.514 -0.3685 -0.5739  0.1050
  134CHL1  H21A16155   6.235   4.489  10.439 -2.0783 -0.7463  0.3525
  134CHL1  H21B16156   6.363   4.386  10.504  0.4537  2.0568  1.7017
  134CHL1  H21C16157   6.230   4.447  10.616 -3.3467 -0.6929 -0.5119
  134CHL1   C2216158   6.171   4.175  10.589  0.2301 -0.2762  0.2996
  134CHL1  H22A16159   6.125   4.082  10.549  1.9512 -0.8419 -0.4881
  134CHL1  H22B16160   6.280   4.155  10.599  0.8151  2.4048  0.0424
  134CHL1   C2316161   6.099   4.208  10.726 -0.9428  0.3750 -0.1838
  134CHL1  H23A16162   6.128   4.312  10.753 -1.1603  0.1221  1.0722
  134CHL1  H23B16163   5.988   4.200  10.726 -1.2042  2.7275  1.8852
  134CHL1   C2416164   6.161   4.114  10.841  0.3155 -0.5450 -0.0188
  134CHL1  H24A16165   6.126   4.011  10.818 -0.7176 -0.4469  1.0464
  134CHL1  H24B16166   6.272   4.110  10.843  0.3201 -0.0894  0.6762
  134CHL1   C2516167   6.114   4.148  10.976  0.3350 -0.3624 -0.4022
  134CHL1   H2516168   6.004   4.138  10.981  0.0118  2.7504  0.1549
  134CHL1   C2616169   6.168   4.045  11.079 -0.6612 -0.4176 -0.3794
  134CHL1  H26A16170   6.279   4.047  11.074 -0.6768  0.8253 -0.5909
  134CHL1  H26B16171   6.134   4.086  11.177 -0.8228  0.5266 -0.8162
  134CHL1  H26C16172   6.124   3.944  11.066  0.0940 -0.5142 -2.7289
  134CHL1   C2716173   6.153   4.283  11.034 -0.6494 -0.1548  0.6453
  134CHL1  H27A16174   6.095   4.306  11.126  0.8755  2.4537  1.0623
  134CHL1  H27B16175   6.261   4.279  11.058 -0.8267 -1.9791  1.2816
  134CHL1  H27C16176   6.139   4.361  10.956 -0.7006 -2.8100 -2.2044
  135CHL1    C316177   1.164   3.985   9.403  0.3273  0.4854  0.3306
  135CHL1    H316178   1.260   4.038   9.423  0.4365  0.2709  0.3865
  135CHL1    O316179   1.136   3.991   9.265  0.5327  0.4497  0.5065
  135CHL1   H3'16180   1.053   3.944   9.253  1.2197 -0.5155 -0.7050
  135CHL1    C416181   1.189   3.834   9.436  0.2368  0.5797  0.7243
  135CHL1   H4A16182   1.097   3.783   9.403  0.8211 -0.5603  0.8223
  135CHL1   H4B16183   1.271   3.796   9.371 -0.8463 -0.9715  0.2380
  135CHL1    C516184   1.211   3.804   9.588  0.8474 -0.1097  0.9651
  135CHL1    C616185   1.323   3.744   9.632 -0.0097  0.2572 -0.6650
  135CHL1    H616186   1.400   3.707   9.563  0.7128 -1.4922  0.9896
  135CHL1    C716187   1.347   3.714   9.777  0.3725 -0.1247  0.6203
  135CHL1   H7A16188   1.373   3.606   9.774 -0.9786 -0.4581 -0.7587
  135CHL1   H7B16189   1.432   3.777   9.810  0.2480  0.6513 -0.4707
  135CHL1    C816190   1.214   3.719   9.851  0.8574  0.0499  0.0996
  135CHL1    H816191   1.139   3.643   9.819 -0.5130  2.0190 -1.6625
  135CHL1   C1416192   1.247   3.711  10.007  0.7523 -0.3827  0.1809
  135CHL1   H1416193   1.323   3.786  10.037 -1.5510  1.9974  0.3859
  135CHL1   C1516194   1.313   3.576  10.046  0.2976 -0.2782  0.4143
  135CHL1  H15A16195   1.267   3.498   9.981 -1.1508  0.3988  0.5972
  135CHL1  H15B16196   1.424   3.574  10.037  0.3642  0.4219  0.9752
  135CHL1   C1616197   1.277   3.580  10.197 -0.1916  0.7102 -0.5789
  135CHL1  H16A16198   1.215   3.489  10.213  1.0492 -0.2578 -1.0862
  135CHL1  H16B16199   1.375   3.581  10.251 -1.1369  0.1820  1.2175
  135CHL1   C1716200   1.192   3.709  10.229 -0.0373 -0.7256  0.2548
  135CHL1   H1716201   1.270   3.786  10.248 -0.4034 -0.1172 -0.6479
  135CHL1   C1316202   1.126   3.735  10.092  0.5760  0.1307  0.1410
  135CHL1   C1816203   1.021   3.623  10.074 -0.9589 -1.2882 -0.6394
  135CHL1  H18A16204   0.996   3.607   9.967 -1.9366  1.3390 -0.8621
  135CHL1  H18B16205   1.047   3.520  10.108 -0.5278 -1.4463 -1.4053
  135CHL1  H18C16206   0.925   3.652  10.120  1.4107  2.9253  2.2716
  135CHL1   C1216207   1.075   3.877  10.060  0.5885  0.4058  0.0328
  135CHL1  H12A16208   0.981   3.893  10.118  0.7054 -0.2183  0.4101
  135CHL1  H12B16209   1.143   3.959  10.088  1.4020  0.5442 -2.1521
  135CHL1   C1116210   1.025   3.880   9.918 -0.0572 -0.2557 -0.4963
  135CHL1  H11A16211   0.954   3.797   9.900  1.4470 -1.7206  0.0834
  135CHL1  H11B16212   0.973   3.978   9.914  2.3541  1.0804 -0.9859
  135CHL1    C916213   1.139   3.854   9.819 -0.6583  0.8780  0.1991
  135CHL1    H916214   1.211   3.938   9.831 -1.1094  1.5391 -1.4524
  135CHL1   C1016215   1.089   3.861   9.674 -0.1562  0.4174  0.5348
  135CHL1   C1916216   0.957   3.773   9.648 -1.0744  0.1193  0.1309
  135CHL1  H19A16217   0.864   3.820   9.684 -0.6042  0.8501  0.4110
  135CHL1  H19B16218   0.939   3.761   9.539  0.0802  0.6831 -0.1440
  135CHL1  H19C16219   0.968   3.673   9.697 -1.1661  0.6726  1.3215
  135CHL1    C116220   1.060   4.009   9.637  0.9932 -0.5055  0.2867
  135CHL1   H1A16221   0.962   4.036   9.681  1.2306  3.7258 -1.3066
  135CHL1   H1B16222   1.141   4.072   9.679 -0.3314  1.1735  0.4285
  135CHL1    C216223   1.056   4.040   9.486 -0.0806 -0.4364  0.3294
  135CHL1   H2A16224   1.041   4.148   9.463  0.2159 -0.6810 -1.0871
  135CHL1   H2B16225   0.956   3.998   9.465 -2.0321  2.8842  2.1017
  135CHL1   C2016226   1.102   3.704  10.358  0.2265  0.2904 -0.2411
  135CHL1   H2016227   1.021   3.631  10.334  0.3068  0.4055 -0.8819
  135CHL1   C2116228   1.039   3.835  10.389 -0.6978 -0.2646 -0.4486
  135CHL1  H21A16229   1.119   3.905  10.420  0.6435 -2.1861  0.6503
  135CHL1  H21B16230   0.981   3.822  10.483  1.4281  0.1264  0.9738
  135CHL1  H21C16231   0.969   3.872  10.310  1.3288  2.1926 -1.2215
  135CHL1   C2216232   1.181   3.643  10.474 -0.4102 -0.4515 -0.1813
  135CHL1  H22A16233   1.119   3.647  10.567  2.0996  1.2676  1.5264
  135CHL1  H22B16234   1.206   3.537  10.453  2.9798 -0.3101  2.2303
  135CHL1   C2316235   1.312   3.711  10.505  0.3188 -0.4810 -0.2239
  135CHL1  H23A16236   1.371   3.712  10.411  0.0667  0.5329 -0.3827
  135CHL1  H23B16237   1.299   3.817  10.535 -0.1334 -0.6503  0.1950
  135CHL1   C2416238   1.391   3.636  10.615  0.1574  0.3794  0.0509
  135CHL1  H24A16239   1.474   3.698  10.656  0.2728 -1.8834  3.5905
  135CHL1  H24B16240   1.329   3.611  10.703  1.2026 -2.0195  0.1931
  135CHL1   C2516241   1.467   3.512  10.573 -0.6576  0.2912  0.7608
  135CHL1   H2516242   1.401   3.442  10.518 -1.4176  0.6348  1.2090
  135CHL1   C2616243   1.593   3.554  10.490 -0.2211  0.2559 -0.5036
  135CHL1  H26A16244   1.565   3.592  10.389 -0.8811  0.9172 -0.0830
  135CHL1  H26B16245   1.648   3.638  10.537 -0.7993 -0.0743  0.7974
  135CHL1  H26C16246   1.654   3.463  10.476 -1.7372 -0.8369 -0.2016
  135CHL1   C2716247   1.516   3.442  10.694 -0.1762  0.0787 -0.3097
  135CHL1  H27A16248   1.436   3.385  10.746  2.3224 -2.5047  1.0097
  135CHL1  H27B16249   1.599   3.372  10.670  0.4896  0.6657  0.2284
  135CHL1  H27C16250   1.555   3.520  10.763 -1.9599  1.1942 -0.4978
  136CHL1    C316251   6.530   0.344  10.312  0.1661  0.0305 -1.4080
  136CHL1    H316252   6.419   0.339  10.312  0.1541 -1.9626  1.4645
  136CHL1    O316253   6.577   0.296  10.185 -0.1898  0.5362  0.1991
  136CHL1   H3'16254   6.673   0.304  10.192 -0.2648  0.5031  1.3195
  136CHL1    C416255   6.576   0.488  10.337 -0.7298 -0.1274 -0.4056
  136CHL1   H4A16256   6.684   0.498  10.317 -1.2575  4.9745 -2.1253
  136CHL1   H4B16257   6.538   0.557  10.258 -0.6526  0.8063  0.3667
  136CHL1    C516258   6.542   0.545  10.476 -0.3042  0.5362 -0.3333
  136CHL1    C616259   6.474   0.655  10.494 -0.0304 -0.2024  0.0764
  136CHL1    H616260   6.442   0.716  10.408  0.1928  1.3375  1.0419
  136CHL1    C716261   6.440   0.720  10.625  0.3867  0.2842  0.0947
  136CHL1   H7A16262   6.474   0.825  10.622  1.3022 -0.0076 -0.6338
  136CHL1   H7B16263   6.330   0.712  10.630  0.3541  0.2590 -0.5501
  136CHL1    C816264   6.508   0.647  10.739 -0.0051 -0.0812  0.3776
  136CHL1    H816265   6.611   0.686  10.748 -0.5605  2.3214 -2.2195
  136CHL1   C1416266   6.435   0.689  10.866 -0.3984  0.4683 -0.2626
  136CHL1   H1416267   6.332   0.648  10.853  0.1444 -0.4689 -1.8597
  136CHL1   C1516268   6.416   0.842  10.898  0.2603  0.2058  0.4276
  136CHL1  H15A16269   6.514   0.895  10.889  0.3392 -0.3269 -2.7227
  136CHL1  H15B16270   6.345   0.896  10.833  0.0967  1.7443  1.8137
  136CHL1   C1616271   6.375   0.839  11.049  0.0199  0.2608  0.1316
  136CHL1  H16A16272   6.448   0.899  11.108  0.9504  0.2627 -0.9988
  136CHL1  H16B16273   6.268   0.869  11.057 -0.7066 -2.2265  0.5584
  136CHL1   C1716274   6.390   0.692  11.095  0.7242  0.4159  0.5373
  136CHL1   H1716275   6.289   0.646  11.084  1.3342 -0.8068 -0.1530
  136CHL1   C1316276   6.484   0.628  10.994 -0.7278  0.3030 -0.3615
  136CHL1   C1816277   6.630   0.665  11.026  0.7441  0.6420 -0.4936
  136CHL1  H18A16278   6.638   0.775  11.040 -1.2931  0.6127  1.2665
  136CHL1  H18B16279   6.680   0.617  11.113 -0.3150 -0.3821 -0.4300
  136CHL1  H18C16280   6.699   0.644  10.940  2.8292  0.8874  1.0461
  136CHL1   C1216281   6.464   0.478  10.979  0.0656  0.3017 -0.4870
  136CHL1  H12A16282   6.506   0.428  11.069 -1.0782  0.6276  0.2493
  136CHL1  H12B16283   6.358   0.449  10.962  0.4878 -1.6256 -0.1164
  136CHL1   C1116284   6.539   0.418  10.859 -0.7074 -0.0461 -0.3895
  136CHL1  H11A16285   6.647   0.439  10.874 -0.1723 -2.4135 -0.6298
  136CHL1  H11B16286   6.525   0.308  10.860 -0.1658 -0.1200 -0.5770
  136CHL1    C916287   6.502   0.493  10.723  0.1499 -0.5860 -0.2296
  136CHL1    H916288   6.393   0.475  10.708  0.2225  0.4570 -2.5780
  136CHL1   C1016289   6.574   0.452  10.593  0.2641  0.8010  0.4161
  136CHL1   C1916290   6.730   0.450  10.610 -0.1437 -0.0645  0.0623
  136CHL1  H19A16291   6.778   0.544  10.646  1.7031 -1.0198  0.2308
  136CHL1  H19B16292   6.758   0.371  10.683  0.4225  0.7384  0.7281
  136CHL1  H19C16293   6.784   0.417  10.518  0.5923 -0.2560  0.5505
  136CHL1    C116294   6.525   0.306  10.555  0.2020 -0.5645  0.1034
  136CHL1   H1A16295   6.526   0.236  10.642 -0.8841  0.0675  0.6539
  136CHL1   H1B16296   6.415   0.309  10.541 -0.0575 -1.8517  1.5514
  136CHL1    C216297   6.577   0.247  10.417  0.1168  0.0309 -0.4283
  136CHL1   H2A16298   6.521   0.153  10.395 -0.9639  0.0201  2.0423
  136CHL1   H2B16299   6.687   0.240  10.414  0.3987  1.5122  2.7032
  136CHL1   C2016300   6.414   0.669  11.245  0.4318 -0.0320  0.2139
  136CHL1   H2016301   6.481   0.583  11.265 -2.7225 -2.2952  1.9974
  136CHL1   C2116302   6.285   0.611  11.310 -0.3651 -0.1344 -0.5022
  136CHL1  H21A16303   6.242   0.527  11.252 -2.0341  0.2471  0.1189
  136CHL1  H21B16304   6.206   0.690  11.312 -0.4004 -0.1741  0.0223
  136CHL1  H21C16305   6.306   0.578  11.414 -0.7396  1.3125  0.0719
  136CHL1   C2216306   6.467   0.790  11.328 -0.0493 -0.4086 -0.7203
  136CHL1  H22A16307   6.557   0.822  11.271  0.3729 -2.9692 -1.6464
  136CHL1  H22B16308   6.390   0.870  11.325 -0.0746 -0.4523 -2.5740
  136CHL1   C2316309   6.521   0.759  11.470  0.3439  0.8266  0.1408
  136CHL1  H23A16310   6.432   0.760  11.538  1.4781 -0.1856  1.7293
  136CHL1  H23B16311   6.560   0.655  11.470  0.9455  1.0471 -0.6738
  136CHL1   C2416312   6.632   0.851  11.515 -0.1433 -0.1691 -0.2072
  136CHL1  H24A16313   6.716   0.826  11.447  1.6309  1.5624  1.2392
  136CHL1  H24B16314   6.608   0.959  11.502  0.4289  0.5371  3.5388
  136CHL1   C2516315   6.684   0.847  11.659 -0.1207 -0.3670 -0.8735
  136CHL1   H2516316   6.708   0.742  11.688  0.0854  0.1178  0.8432
  136CHL1   C2616317   6.808   0.938  11.676  0.2252  0.7677  0.0779
  136CHL1  H26A16318   6.845   0.929  11.780 -0.1959  2.2751  0.3866
  136CHL1  H26B16319   6.890   0.909  11.607  0.1295  0.1328  0.2303
  136CHL1  H26C16320   6.773   1.044  11.670  1.2439  1.0212 -2.3226
  136CHL1   C2716321   6.574   0.887  11.764  0.1623 -0.3698 -0.1805
  136CHL1  H27A16322   6.506   0.968  11.729  1.0960  0.1375 -0.8715
  136CHL1  H27B16323   6.521   0.792  11.783 -0.5816  0.2521  0.9553
  136CHL1  H27C16324   6.638   0.907  11.853  1.3823 -1.3676 -0.7985
  137CHL1    C316325   2.673   3.417   9.505 -0.3340  0.3876  0.9610
  137CHL1    H316326   2.568   3.453   9.516 -1.0333 -1.3393  0.2285
  137CHL1    O316327   2.723   3.472   9.383  0.3760  0.0325  0.4915
  137CHL1   H3'16328   2.799   3.424   9.350  1.8376  2.0815  0.6555
  137CHL1    C416329   2.770   3.462   9.611 -0.1433  0.1948  0.4508
  137CHL1   H4A16330   2.871   3.426   9.585  0.7785  2.2672  0.8908
  137CHL1   H4B16331   2.781   3.573   9.609 -1.0907  0.3309  1.4599
  137CHL1    C516332   2.723   3.405   9.744  0.0739  0.3440  0.0463
  137CHL1    C616333   2.721   3.486   9.853 -0.2114 -0.8603  0.8705
  137CHL1    H616334   2.742   3.593   9.842  0.2347 -1.0780 -0.7944
  137CHL1    C716335   2.686   3.434   9.990 -0.3799  0.8406  0.2044
  137CHL1   H7A16336   2.757   3.464  10.070 -2.0059 -1.3652  2.6566
  137CHL1   H7B16337   2.592   3.485  10.022 -0.9595 -1.4435  2.4940
  137CHL1    C816338   2.678   3.281   9.998  0.9129  0.8250  0.6472
  137CHL1    H816339   2.783   3.246  10.000  0.8243  0.5571  0.6387
  137CHL1   C1416340   2.602   3.235  10.122  0.9525 -0.2168  0.8626
  137CHL1   H1416341   2.493   3.247  10.102  0.8740 -1.8778  0.1678
  137CHL1   C1516342   2.636   3.307  10.252  0.0348  0.3550 -0.1106
  137CHL1  H15A16343   2.747   3.321  10.254  0.2604 -1.2701  1.1783
  137CHL1  H15B16344   2.587   3.406  10.253  2.2502  1.5189  0.9213
  137CHL1   C1616345   2.576   3.214  10.356  0.4439 -0.5337 -0.8523
  137CHL1  H16A16346   2.645   3.180  10.436  1.4924  3.8411  0.3901
  137CHL1  H16B16347   2.506   3.279  10.413 -0.5861 -1.7797 -0.6515
  137CHL1   C1716348   2.525   3.089  10.280  0.2046  0.0208 -0.2239
  137CHL1   H1716349   2.419   3.109  10.253 -0.1574 -0.3326  0.9167
  137CHL1   C1316350   2.595   3.085  10.148 -0.6942  0.4739  0.4476
  137CHL1   C1816351   2.729   3.026  10.173 -0.5486 -0.0247  0.1657
  137CHL1  H18A16352   2.797   3.040  10.086 -2.5787 -0.8344 -1.6616
  137CHL1  H18B16353   2.771   3.081  10.259 -2.3308  0.9142  0.4796
  137CHL1  H18C16354   2.709   2.921  10.203  2.9741 -0.2714  2.2616
  137CHL1   C1216355   2.526   3.024  10.025 -0.4989 -0.3661 -0.2162
  137CHL1  H12A16356   2.529   2.913  10.031  2.9156 -0.6195 -3.3552
  137CHL1  H12B16357   2.420   3.058  10.016 -0.3851  0.0434 -0.0160
  137CHL1   C1116358   2.592   3.067   9.893 -0.1661  0.5564 -0.2237
  137CHL1  H11A16359   2.687   3.009   9.898 -0.5327  0.0368  1.2569
  137CHL1  H11B16360   2.530   3.024   9.811  0.1898  0.1150 -0.2639
  137CHL1    C916361   2.615   3.219   9.873  0.8359  0.4605  0.2054
  137CHL1    H916362   2.513   3.261   9.858  0.5074 -0.8810 -1.6745
  137CHL1   C1016363   2.690   3.256   9.748 -0.1896 -0.2370 -0.6402
  137CHL1   C1916364   2.830   3.179   9.744 -0.7279 -0.5397  0.2999
  137CHL1  H19A16365   2.802   3.072   9.731 -0.4511 -0.8233  1.8192
  137CHL1  H19B16366   2.897   3.215   9.663 -0.4565 -0.1673  0.6877
  137CHL1  H19C16367   2.892   3.177   9.837 -0.1108  3.2231  0.1257
  137CHL1    C116368   2.616   3.216   9.623 -0.1698 -0.2265 -0.4050
  137CHL1   H1A16369   2.597   3.107   9.616  0.7762 -0.5167  1.2222
  137CHL1   H1B16370   2.511   3.255   9.621 -0.0711  0.0234 -2.2401
  137CHL1    C216371   2.675   3.266   9.489 -0.3279 -0.1443 -0.6402
  137CHL1   H2A16372   2.609   3.228   9.408  0.6182  0.3907 -1.7016
  137CHL1   H2B16373   2.779   3.229   9.473 -0.9034 -1.8273 -0.7240
  137CHL1   C2016374   2.523   2.966  10.378 -0.5200 -0.2489  1.2786
  137CHL1   H2016375   2.628   2.940  10.405 -0.3105  1.0001  1.7370
  137CHL1   C2116376   2.455   2.846  10.302 -0.2530 -0.3563  0.4604
  137CHL1  H21A16377   2.363   2.887  10.255  1.0494  4.3628  1.4616
  137CHL1  H21B16378   2.431   2.760  10.368  0.4545 -0.5850  0.4310
  137CHL1  H21C16379   2.511   2.797  10.220 -1.4251 -1.5879  0.3812
  137CHL1   C2216380   2.454   2.989  10.510  0.1004  0.3664 -0.2013
  137CHL1  H22A16381   2.497   3.079  10.561  0.6258 -0.1799  0.3347
  137CHL1  H22B16382   2.346   3.009  10.498 -0.3072 -0.4220  1.7628
  137CHL1   C2316383   2.458   2.877  10.613  0.2309  0.3027 -0.8284
  137CHL1  H23A16384   2.386   2.799  10.583  0.1300  1.0771 -2.7032
  137CHL1  H23B16385   2.556   2.824  10.622  0.3192  0.5467 -0.2779
  137CHL1   C2416386   2.426   2.933  10.754  0.0718  0.1604  0.2481
  137CHL1  H24A16387   2.508   2.994  10.798  1.1696 -2.4911  2.1457
  137CHL1  H24B16388   2.340   3.002  10.741 -2.9191 -3.1085  1.1637
  137CHL1   C2516389   2.369   2.836  10.863  0.3945  1.1584  1.3276
  137CHL1   H2516390   2.278   2.788  10.821  0.9971 -0.6843  2.0417
  137CHL1   C2616391   2.462   2.717  10.897  0.5352 -0.2732 -0.8762
  137CHL1  H26A16392   2.420   2.653  10.977 -0.4474  1.3067 -0.0597
  137CHL1  H26B16393   2.474   2.652  10.808 -1.1449 -1.1561 -0.4978
  137CHL1  H26C16394   2.565   2.749  10.925  0.0573  2.2808 -1.7896
  137CHL1   C2716395   2.332   2.907  10.985  0.4732  0.3525  0.0515
  137CHL1  H27A16396   2.279   3.001  10.959  0.6607  0.7440  1.0023
  137CHL1  H27B16397   2.261   2.849  11.048  0.8384  1.9845  2.1026
  137CHL1  H27C16398   2.421   2.928  11.050  1.0202 -1.1454 -0.1829
  138CHL1    C316399   0.589   1.287   9.751 -0.3253  0.0624 -0.3122
  138CHL1    H316400   0.614   1.199   9.814  1.8720  0.3902 -0.6522
  138CHL1    O316401   0.620   1.273   9.612 -0.2568  0.1861  0.1494
  138CHL1   H3'16402   0.612   1.362   9.577 -1.5651  0.2862  0.6625
  138CHL1    C416403   0.435   1.316   9.769  0.2259 -0.3337  0.6261
  138CHL1   H4A16404   0.403   1.409   9.718 -0.3201  0.1941  1.8944
  138CHL1   H4B16405   0.385   1.225   9.728 -2.4404  0.7466  1.2894
  138CHL1    C516406   0.410   1.326   9.922  0.2103  0.3691  0.1462
  138CHL1    C616407   0.315   1.249   9.979 -1.0413  0.0018 -0.4436
  138CHL1    H616408   0.268   1.175   9.912 -1.0600 -0.6757  0.3077
  138CHL1    C716409   0.272   1.263  10.126  0.3339  0.3218 -0.2767
  138CHL1   H7A16410   0.162   1.266  10.138  0.3058  0.3514 -0.5545
  138CHL1   H7B16411   0.310   1.176  10.184 -1.2894 -0.6612 -0.6191
  138CHL1    C816412   0.325   1.393  10.195  0.6122 -0.3063  0.0321
  138CHL1    H816413   0.273   1.486  10.163 -1.2414 -0.5854  2.0129
  138CHL1   C1416414   0.314   1.371  10.341 -0.5641  0.3048  0.3884
  138CHL1   H1416415   0.361   1.272  10.358 -2.6244 -1.3231 -2.5989
  138CHL1   C1516416   0.173   1.370  10.396  0.5374  0.1619  0.1769
  138CHL1  H15A16417   0.114   1.456  10.355  0.2465  0.3746  1.0241
  138CHL1  H15B16418   0.124   1.274  10.371 -1.5439  1.0334  0.6423
  138CHL1   C1616419   0.192   1.393  10.546  0.3149  0.2239  0.2383
  138CHL1  H16A16420   0.148   1.491  10.573  2.8429  1.0598  1.6471
  138CHL1  H16B16421   0.147   1.313  10.609  1.8901  0.4626  1.7389
  138CHL1   C1716422   0.349   1.415  10.564  0.4567 -0.1583 -0.3865
  138CHL1   H1716423   0.395   1.315  10.581  0.6664  0.1752  1.1876
  138CHL1   C1316424   0.394   1.472  10.430 -0.8756  0.0596 -0.0008
  138CHL1   C1816425   0.331   1.617  10.414  0.1064  0.2126 -0.6084
  138CHL1  H18A16426   0.222   1.626  10.432 -0.5348 -1.8579 -2.9989
  138CHL1  H18B16427   0.392   1.682  10.481 -1.4365  0.7024  0.3811
  138CHL1  H18C16428   0.342   1.645  10.307 -0.0385 -0.0927 -0.7015
  138CHL1   C1216429   0.544   1.473  10.395 -0.0434  0.0442 -0.0758
  138CHL1  H12A16430   0.604   1.548  10.450  0.9465  1.9667 -3.4353
  138CHL1  H12B16431   0.589   1.376  10.424 -1.3912 -0.5456  0.1355
  138CHL1   C1116432   0.566   1.499  10.244 -0.0153 -1.0703 -0.3146
  138CHL1  H11A16433   0.537   1.606  10.237  1.6275 -0.4575  1.2801
  138CHL1  H11B16434   0.673   1.501  10.216  0.2486  0.0650  0.6539
  138CHL1    C916435   0.474   1.407  10.157  0.6008  0.6294  0.6251
  138CHL1    H916436   0.515   1.305  10.173  2.2079  1.0750 -0.3744
  138CHL1   C1016437   0.492   1.430  10.002 -0.5887  0.0739  0.7321
  138CHL1   C1916438   0.453   1.575   9.960 -0.1041  0.1367 -0.0697
  138CHL1  H19A16439   0.524   1.653   9.994 -2.0357  1.1605  1.9144
  138CHL1  H19B16440   0.459   1.587   9.850 -0.8563  0.5538 -0.0766
  138CHL1  H19C16441   0.358   1.606  10.009 -0.8616 -0.7572 -0.9245
  138CHL1    C116442   0.642   1.407   9.972 -0.2794  0.4584 -0.3309
  138CHL1   H1A16443   0.694   1.500  10.003 -1.6376  0.5656  1.8696
  138CHL1   H1B16444   0.684   1.317  10.022  0.5037 -0.9500 -3.3298
  138CHL1    C216445   0.674   1.400   9.816 -0.0223 -0.1375 -0.2514
  138CHL1   H2A16446   0.783   1.381   9.816 -0.0388 -1.1393  3.7916
  138CHL1   H2B16447   0.659   1.502   9.775 -0.8889 -0.3969 -0.6062
  138CHL1   C2016448   0.393   1.489  10.693  0.0831 -0.2559 -0.3224
  138CHL1   H2016449   0.394   1.598  10.675  1.3848 -0.2623 -0.3558
  138CHL1   C2116450   0.541   1.455  10.730 -0.5303 -0.1347 -0.8941
  138CHL1  H21A16451   0.541   1.359  10.786 -0.9897  0.7127  0.6211
  138CHL1  H21B16452   0.579   1.540  10.790  0.1188 -1.2680  0.3600
  138CHL1  H21C16453   0.606   1.455  10.640  0.6726  2.7001 -0.1159
  138CHL1   C2216454   0.295   1.449  10.815 -0.2643 -0.5839 -0.1960
  138CHL1  H22A16455   0.189   1.477  10.795 -0.2470  0.9158  1.5432
  138CHL1  H22B16456   0.285   1.339  10.826 -1.5920 -0.7931 -2.5946
  138CHL1   C2316457   0.332   1.515  10.953 -0.0558  0.1959 -0.1046
  138CHL1  H23A16458   0.438   1.482  10.960 -0.0065  0.3642 -0.0622
  138CHL1  H23B16459   0.312   1.624  10.951  1.8605  0.5844 -2.2846
  138CHL1   C2416460   0.245   1.445  11.068 -0.6022  0.1019  0.0643
  138CHL1  H24A16461   0.139   1.478  11.059  0.2679  3.0112 -0.5019
  138CHL1  H24B16462   0.253   1.334  11.067  0.4171  0.1494  0.8705
  138CHL1   C2516463   0.289   1.485  11.218  0.7285 -0.4132 -0.0503
  138CHL1   H2516464   0.288   1.596  11.219  0.6954 -0.3899 -1.1017
  138CHL1   C2616465   0.182   1.441  11.324 -0.7019  0.1490  0.1165
  138CHL1  H26A16466   0.138   1.342  11.301 -0.6353 -0.0972  1.0134
  138CHL1  H26B16467   0.225   1.434  11.426  0.1750 -0.7501 -0.3078
  138CHL1  H26C16468   0.095   1.511  11.318 -0.7453  0.1801  0.9974
  138CHL1   C2716469   0.426   1.432  11.260  0.3631 -0.3590  0.0860
  138CHL1  H27A16470   0.421   1.321  11.258  0.8725 -0.4913  2.9886
  138CHL1  H27B16471   0.498   1.474  11.186  0.0935 -1.3051 -0.7439
  138CHL1  H27C16472   0.455   1.460  11.363 -0.2319 -1.6094  0.6149
  139CHL1    C316473   0.843   0.084   9.939  0.3677 -0.5107 -0.5994
  139CHL1    H316474   0.877  -0.021   9.931 -0.7846 -0.8837 -0.8951
  139CHL1    O316475   0.817   0.122   9.801 -0.1025 -0.1760 -0.2936
  139CHL1   H3'16476   0.820   0.218   9.805 -0.3799 -0.1403 -0.8508
  139CHL1    C416477   0.707   0.088  10.016 -0.1917 -0.5395  0.0711
  139CHL1   H4A16478   0.650   0.180   9.991  1.1461 -0.4411 -2.9874
  139CHL1   H4B16479   0.644   0.006   9.975  0.8224 -0.4861 -1.6769
  139CHL1    C516480   0.735   0.074  10.165 -0.3559  0.1146 -0.6763
  139CHL1    C616481   0.665  -0.017  10.232 -0.1452 -0.4080 -0.6751
  139CHL1    H616482   0.587  -0.073  10.179 -1.5036 -1.0482  1.8183
  139CHL1    C716483   0.680  -0.048  10.380  0.1405  0.4753 -0.4574
  139CHL1   H7A16484   0.579  -0.051  10.426 -1.0158  1.6133 -2.7414
  139CHL1   H7B16485   0.729  -0.146  10.399 -2.7006 -0.8489  0.6381
  139CHL1    C816486   0.758   0.061  10.452  0.1538  0.0471 -0.6286
  139CHL1    H816487   0.692   0.149  10.464 -0.4826 -0.6773  1.6069
  139CHL1   C1416488   0.802   0.022  10.596 -0.2072  0.1509 -0.0630
  139CHL1   H1416489   0.881  -0.054  10.576  1.1242  1.0118  1.6654
  139CHL1   C1516490   0.699  -0.043  10.690 -0.4801  0.0774  0.0980
  139CHL1  H15A16491   0.608   0.020  10.698 -2.3315 -2.3526 -0.5150
  139CHL1  H15B16492   0.680  -0.146  10.654  4.9722 -1.5803  0.9840
  139CHL1   C1616493   0.764  -0.033  10.827  0.2642  0.4678  0.0974
  139CHL1  H16A16494   0.689  -0.003  10.903  1.0346  0.1925  0.9738
  139CHL1  H16B16495   0.802  -0.130  10.865  0.9975  0.8241  0.2900
  139CHL1   C1716496   0.889   0.059  10.812  0.6837 -0.4012 -0.2481
  139CHL1   H1716497   0.976  -0.008  10.793  1.2041  0.0393  0.5155
  139CHL1   C1316498   0.875   0.128  10.677  0.0544 -0.3139 -0.2438
  139CHL1   C1816499   0.790   0.261  10.694  0.3743 -0.3581 -0.5536
  139CHL1  H18A16500   0.851   0.340  10.741  1.0969 -0.0887 -1.9146
  139CHL1  H18B16501   0.765   0.311  10.598 -1.5637 -0.4846 -0.1561
  139CHL1  H18C16502   0.699   0.247  10.757  0.6368  2.2785  0.5307
  139CHL1   C1216503   0.998   0.169  10.593  0.0048  0.4905  0.3976
  139CHL1  H12A16504   1.041   0.253  10.652 -0.5575  0.4784  0.8339
  139CHL1  H12B16505   1.068   0.083  10.585  1.2469  1.3992  1.2640
  139CHL1   C1116506   0.962   0.210  10.451  0.1959 -0.1321 -0.0610
  139CHL1  H11A16507   0.915   0.310  10.466  0.0966 -0.2729  0.6325
  139CHL1  H11B16508   1.052   0.237  10.391  0.7602 -3.6602 -1.0676
  139CHL1    C916509   0.875   0.111  10.375  0.7126  0.9384  0.1792
  139CHL1    H916510   0.930   0.018  10.351  0.2968  1.5041 -3.5636
  139CHL1   C1016511   0.840   0.163  10.233 -0.7406 -0.8452 -0.1793
  139CHL1   C1916512   0.769   0.305  10.250  0.3688  0.0209  0.7927
  139CHL1  H19A16513   0.693   0.307  10.331  1.8424 -0.5531  2.2431
  139CHL1  H19B16514   0.844   0.386  10.256 -0.8787  1.1507  1.9174
  139CHL1  H19C16515   0.715   0.331  10.157  0.5987 -0.5803  0.4871
  139CHL1    C116516   0.976   0.170  10.142 -0.0279 -0.1391  0.7966
  139CHL1   H1A16517   1.045   0.240  10.194 -0.1759  0.2645  0.4633
  139CHL1   H1B16518   1.022   0.070  10.150  0.3336  0.0400  0.9554
  139CHL1    C216519   0.945   0.187   9.993  0.4685  0.0499  0.4742
  139CHL1   H2A16520   1.028   0.194   9.919  0.8523  0.1505  0.9102
  139CHL1   H2B16521   0.893   0.285   9.981 -0.8703 -0.6519  0.3802
  139CHL1   C2016522   0.932   0.141  10.934 -0.6920 -0.5541 -0.2233
  139CHL1   H2016523   0.990   0.227  10.894  1.6596 -1.6986  0.5853
  139CHL1   C2116524   1.032   0.066  11.020  0.5518  1.0347 -0.6520
  139CHL1  H21A16525   0.975  -0.016  11.067  0.2045 -0.4011 -3.3874
  139CHL1  H21B16526   1.077   0.136  11.093  1.1631  0.1925 -0.2176
  139CHL1  H21C16527   1.112   0.028  10.953  2.4025  2.0839  0.8661
  139CHL1   C2216528   0.822   0.192  11.021  0.6729  0.9710 -0.6096
  139CHL1  H22A16529   0.743   0.235  10.955 -1.4020 -0.9542  0.4783
  139CHL1  H22B16530   0.788   0.108  11.086  1.4721 -0.8745 -2.4784
  139CHL1   C2316531   0.885   0.307  11.101 -0.4245  0.0069 -0.5170
  139CHL1  H23A16532   0.939   0.259  11.186 -0.2989 -0.1931 -0.7101
  139CHL1  H23B16533   0.963   0.369  11.052 -1.0387 -0.1339 -1.6911
  139CHL1   C2416534   0.774   0.390  11.170  0.5272 -0.3088 -0.6119
  139CHL1  H24A16535   0.808   0.485  11.217 -1.2104  0.3749 -0.6764
  139CHL1  H24B16536   0.702   0.423  11.092 -0.1203  0.7820  0.4207
  139CHL1   C2516537   0.696   0.301  11.277  0.1530  0.4136 -0.6974
  139CHL1   H2516538   0.684   0.195  11.248 -0.0478  0.1679  0.2367
  139CHL1   C2616539   0.762   0.295  11.413 -0.5121 -0.8645 -0.3714
  139CHL1  H26A16540   0.701   0.235  11.483  0.4689 -0.6816  0.6802
  139CHL1  H26B16541   0.860   0.243  11.404  0.8504  1.7680 -1.9787
  139CHL1  H26C16542   0.769   0.392  11.466 -0.2568 -2.1492  2.1294
  139CHL1   C2716543   0.545   0.344  11.284 -0.1354  0.6298  0.1187
  139CHL1  H27A16544   0.503   0.335  11.182  0.7490 -0.2123 -0.1852
  139CHL1  H27B16545   0.485   0.276  11.348  1.2875  1.0837  2.0385
  139CHL1  H27C16546   0.541   0.449  11.322 -1.1333  0.9806 -0.8978
  140CHL1    C316547   0.059   0.664   9.863 -0.4843  0.3423 -0.2124
  140CHL1    H316548  -0.022   0.603   9.910 -0.1037 -1.6362 -1.9882
  140CHL1    O316549   0.055   0.640   9.725 -0.1301 -0.1379  0.2500
  140CHL1   H3'16550   0.041   0.730   9.694 -1.2084 -0.7788 -1.2112
  140CHL1    C416551   0.033   0.813   9.897 -0.9761  0.0067 -0.0142
  140CHL1   H4A16552   0.107   0.871   9.837 -1.0680  0.5953  0.4299
  140CHL1   H4B16553  -0.067   0.830   9.854 -0.4602  0.6951 -0.9783
  140CHL1    C516554   0.033   0.835  10.050 -0.3017  0.9566 -0.0321
  140CHL1    C616555  -0.070   0.896  10.121  0.2434  0.0202 -0.0130
  140CHL1    H616556  -0.156   0.931  10.062 -1.7565 -1.2894  1.9274
  140CHL1    C716557  -0.061   0.923  10.267 -0.5374  0.5063 -0.9909
  140CHL1   H7A16558  -0.090   1.028  10.289  1.8800  0.6267  2.3584
  140CHL1   H7B16559  -0.126   0.853  10.325 -1.3942 -0.0486 -2.5371
  140CHL1    C816560   0.084   0.909  10.327 -0.0120  0.1392 -0.8567
  140CHL1    H816561   0.149   0.995  10.302  1.6254 -0.7655  0.0790
  140CHL1   C1416562   0.075   0.901  10.473  0.0933  0.6072 -1.0527
  140CHL1   H1416563   0.026   0.802  10.485  0.2352  0.6201 -0.3257
  140CHL1   C1516564  -0.014   1.007  10.546 -0.1655  0.1969  0.3402
  140CHL1  H15A16565   0.016   1.103  10.500 -0.5093  0.1683  0.0483
  140CHL1  H15B16566  -0.122   0.995  10.522  0.2724  0.0677 -1.7571
  140CHL1   C1616567   0.035   1.003  10.693 -0.0473  0.1606  0.3656
  140CHL1  H16A16568   0.072   1.102  10.726  0.1591  0.0632  0.4300
  140CHL1  H16B16569  -0.053   0.978  10.755 -0.6047 -0.0316 -0.4851
  140CHL1   C1716570   0.155   0.900  10.696  0.8435  0.5005 -0.7409
  140CHL1   H1716571   0.108   0.801  10.708 -0.6522  1.0793 -1.5480
  140CHL1   C1316572   0.213   0.890  10.552 -0.3266  0.1623  0.7855
  140CHL1   C1816573   0.301   1.013  10.522  0.7111 -0.7523  0.4407
  140CHL1  H18A16574   0.389   1.017  10.589  0.0852 -0.3859  1.2486
  140CHL1  H18B16575   0.334   1.010  10.415  0.5120  1.5109  0.2746
  140CHL1  H18C16576   0.245   1.106  10.546 -0.7562 -1.4640 -0.0502
  140CHL1   C1216577   0.279   0.760  10.503  1.4260  0.3135  0.2728
  140CHL1  H12A16578   0.371   0.738  10.560  1.6627  0.0577 -0.2013
  140CHL1  H12B16579   0.229   0.666  10.535  1.1918  0.7740  1.2903
  140CHL1   C1116580   0.295   0.762  10.351 -0.2315 -0.1654 -0.4617
  140CHL1  H11A16581   0.367   0.841  10.321 -0.4454 -0.5097 -1.9590
  140CHL1  H11B16582   0.336   0.664  10.317 -2.7526 -1.1207 -1.0225
  140CHL1    C916583   0.159   0.786  10.275 -0.3618  0.0849 -0.2801
  140CHL1    H916584   0.099   0.695  10.295  0.7864 -0.9094 -1.1333
  140CHL1   C1016585   0.158   0.785  10.115 -0.0321  0.4292 -0.4012
  140CHL1   C1916586   0.270   0.879  10.068  0.4426  0.0671 -0.5352
  140CHL1  H19A16587   0.278   0.890   9.957  0.3969  2.2524 -0.3609
  140CHL1  H19B16588   0.254   0.981  10.108  1.8781  0.2321 -0.3478
  140CHL1  H19C16589   0.370   0.841  10.097 -0.3036  0.2697  2.6358
  140CHL1    C116590   0.195   0.642  10.078  0.3036  0.7285  0.2248
  140CHL1   H1A16591   0.290   0.607  10.123 -1.4422 -3.5293  1.0987
  140CHL1   H1B16592   0.121   0.571  10.120 -0.6581  1.1110 -0.7720
  140CHL1    C216593   0.196   0.617   9.925 -0.0379 -0.1298  0.9845
  140CHL1   H2A16594   0.211   0.508   9.916 -0.6688 -0.3304  2.1354
  140CHL1   H2B16595   0.281   0.664   9.871  0.2457 -1.1273  0.5495
  140CHL1   C2016596   0.245   0.931  10.815 -0.4333 -0.5917  0.1676
  140CHL1   H2016597   0.289   1.031  10.797  1.2226 -1.3161 -0.0152
  140CHL1   C2116598   0.355   0.820  10.809  0.0401  0.9306  0.1056
  140CHL1  H21A16599   0.404   0.807  10.908 -1.3554  0.9856  0.8202
  140CHL1  H21B16600   0.437   0.842  10.736  0.3946  3.1497  1.0801
  140CHL1  H21C16601   0.312   0.721  10.783 -0.4757  1.2964 -0.4562
  140CHL1   C2216602   0.178   0.920  10.956  0.2548 -0.9984  0.1431
  140CHL1  H22A16603   0.087   0.983  10.962 -0.2633 -1.4807 -1.9583
  140CHL1  H22B16604   0.152   0.814  10.978 -1.3814 -0.8850 -1.0578
  140CHL1   C2316605   0.266   0.974  11.081  0.0482  0.6387  0.4443
  140CHL1  H23A16606   0.373   0.945  11.067 -0.4056 -1.0700  0.2965
  140CHL1  H23B16607   0.259   1.085  11.076 -0.0553  0.5742 -1.3759
  140CHL1   C2416608   0.219   0.915  11.211 -0.3074  0.1794 -0.4787
  140CHL1  H24A16609   0.116   0.945  11.240 -0.5344 -0.9072 -0.1150
  140CHL1  H24B16610   0.197   0.807  11.205 -0.0122 -0.0202  1.3206
  140CHL1   C2516611   0.318   0.934  11.329 -0.5041 -0.8997 -0.4949
  140CHL1   H2516612   0.269   0.885  11.415 -0.0232  2.3954  1.8520
  140CHL1   C2616613   0.331   1.082  11.370 -0.4126 -0.1889 -0.4325
  140CHL1  H26A16614   0.400   1.093  11.456 -0.9971  0.0088  0.0106
  140CHL1  H26B16615   0.368   1.140  11.283  2.4748 -1.1494  0.0401
  140CHL1  H26C16616   0.237   1.132  11.399  0.0614 -0.3385  1.4511
  140CHL1   C2716617   0.448   0.867  11.314  0.1355 -0.1867  0.5347
  140CHL1  H27A16618   0.440   0.759  11.291 -2.4108  0.4746 -2.4766
  140CHL1  H27B16619   0.509   0.908  11.230  2.4429  2.3264  3.2124
  140CHL1  H27C16620   0.501   0.878  11.411 -0.5693 -2.8881  1.2945
  141DOPC     N16621   5.564   4.111  13.885 -0.3557 -0.8292  0.8336
  141DOPC   C1216622   5.603   4.212  13.778  0.4374  0.5719 -0.3533
  141DOPC  H12A16623   5.686   4.164  13.727  1.1065  1.2385  0.0854
  141DOPC  H12B16624   5.633   4.306  13.821  0.9875  0.8399 -1.2833
  141DOPC   C1316625   5.679   4.078  13.977  0.0060  0.4481  0.2326
  141DOPC  H13A16626   5.754   4.019  13.927  0.7976  1.4139  0.2596
  141DOPC  H13B16627   5.717   4.171  14.017 -1.5304  1.0924  0.2806
  141DOPC  H13C16628   5.636   4.016  14.054 -0.7670  0.5724 -0.0854
  141DOPC   C1416629   5.504   3.989  13.820  0.5253  0.4819  0.1855
  141DOPC  H14A16630   5.425   4.016  13.752  0.6753  1.0881  0.2481
  141DOPC  H14B16631   5.584   3.935  13.771 -1.2302 -0.6937 -1.5257
  141DOPC  H14C16632   5.466   3.919  13.893 -0.1500 -0.9248 -1.4251
  141DOPC   C1516633   5.456   4.175  13.967  0.0783  0.2122  0.6257
  141DOPC  H15A16634   5.374   4.210  13.906  0.4359  4.1279  2.1161
  141DOPC  H15B16635   5.499   4.254  14.026  1.6602  0.7690 -1.1801
  141DOPC  H15C16636   5.412   4.109  14.041  1.1953 -0.4643  0.7090
  141DOPC   C1116637   5.498   4.249  13.674 -0.3778  0.2986  0.4436
  141DOPC  H11A16638   5.544   4.308  13.592  0.6579  0.7715  1.3386
  141DOPC  H11B16639   5.460   4.158  13.623 -0.6842  0.5822  0.1630
  141DOPC     P16640   5.391   4.472  13.734  0.2978 -0.6041  0.3830
  141DOPC   O1316641   5.496   4.519  13.811 -0.5686 -0.0851  0.0772
  141DOPC   O1416642   5.256   4.530  13.761 -0.0437  0.0455  0.3811
  141DOPC   O1216643   5.384   4.313  13.729 -0.3055  0.2240 -0.6184
  141DOPC   O1116644   5.423   4.503  13.579  0.5285 -0.0132 -0.4288
  141DOPC    C116645   5.321   4.459  13.483 -0.3070 -0.2017 -0.5538
  141DOPC    HA16646   5.226   4.413  13.518 -0.9934  0.5330 -1.3921
  141DOPC    HB16647   5.361   4.380  13.416 -0.0309 -1.7552  1.3491
  141DOPC    C216648   5.271   4.569  13.391 -0.8911 -0.2669  0.9576
  141DOPC    HS16649   5.237   4.649  13.460  0.7562  1.3949 -0.0485
  141DOPC   O2116650   5.168   4.517  13.310  0.9400 -0.1519  0.8214
  141DOPC   C2116651   5.091   4.601  13.247 -1.0471 -0.2401 -0.6575
  141DOPC   O2216652   5.081   4.723  13.264  0.1974  0.7083  0.6669
  141DOPC   C2216653   5.017   4.525  13.139  1.0588  0.7516  0.0719
  141DOPC   H2R16654   4.991   4.428  13.186 -0.1669 -0.1819 -2.3262
  141DOPC   H2S16655   5.099   4.496  13.070 -0.3703  1.3674 -1.9862
  141DOPC    C316656   5.382   4.624  13.303 -0.5027  0.4357  0.8149
  141DOPC    HX16657   5.458   4.656  13.377  0.8167 -0.4602 -0.1066
  141DOPC    HY16658   5.368   4.714  13.240  2.7453 -0.3384 -1.2398
  141DOPC   O3116659   5.439   4.518  13.224  0.5164 -0.5377 -1.0495
  141DOPC   C3116660   5.421   4.527  13.093  0.3715  0.4670 -0.3357
  141DOPC   O3216661   5.353   4.613  13.036 -0.2755 -0.4353  0.1831
  141DOPC   C3216662   5.488   4.407  13.023 -1.0976  0.0627 -0.2890
  141DOPC   H2X16663   5.594   4.410  13.058 -1.1200  1.1122 -0.2822
  141DOPC   H2Y16664   5.452   4.311  13.067 -2.0160  0.7548  0.4913
  141DOPC   C2316665   4.897   4.601  13.072 -0.0620 -0.5362  0.4623
  141DOPC   H3R16666   4.946   4.690  13.026  0.1750 -1.3165 -0.8518
  141DOPC   H3S16667   4.822   4.638  13.145 -1.3580  1.5874 -1.8051
  141DOPC   C2416668   4.817   4.511  12.975 -0.1656 -0.0068  0.3945
  141DOPC   H4R16669   4.726   4.561  12.936  0.0922 -0.6709 -1.1076
  141DOPC   H4S16670   4.791   4.413  13.021 -0.1508  0.5810  1.6961
  141DOPC   C2516671   4.889   4.482  12.846 -0.0616  0.1836  0.5336
  141DOPC   H5R16672   4.983   4.424  12.860  0.9846  1.4056 -1.0496
  141DOPC   H5S16673   4.906   4.575  12.788  0.8036 -1.8188 -2.6265
  141DOPC   C2616674   4.803   4.397  12.754 -0.6668  0.0628  0.5316
  141DOPC   H6R16675   4.714   4.459  12.730  0.3016  0.1523 -3.4850
  141DOPC   H6S16676   4.769   4.304  12.805 -0.0460 -0.8790 -0.7271
  141DOPC   C2716677   4.871   4.349  12.626  0.3590 -0.3834  0.1711
  141DOPC   H7R16678   4.923   4.252  12.645 -1.0913 -1.5136 -1.2983
  141DOPC   H7S16679   4.948   4.425  12.604  0.0026 -0.3015 -0.8492
  141DOPC   C2816680   4.774   4.336  12.500  0.3593 -0.4500  0.2454
  141DOPC   H8R16681   4.707   4.424  12.490  1.3688  0.3487  0.3107
  141DOPC   H8S16682   4.709   4.248  12.519  2.3670 -1.8924  0.8082
  141DOPC   C2916683   4.863   4.314  12.380  0.2031 -0.3041  1.0138
  141DOPC   H9R16684   4.922   4.222  12.392  2.6121  1.0590  0.1857
  141DOPC  C21016685   4.873   4.393  12.275 -0.8515 -0.3654 -0.5708
  141DOPC  H10R16686   4.944   4.355  12.200  1.0558 -0.5365  1.2417
  141DOPC  C21116687   4.800   4.520  12.243  0.7836 -0.9253 -0.1293
  141DOPC  H11R16688   4.816   4.602  12.317 -0.5641 -0.2595 -0.5361
  141DOPC  H11S16689   4.690   4.503  12.246  0.7022 -1.3032 -2.7403
  141DOPC  C21216690   4.842   4.582  12.107  0.6257 -0.1977  0.0869
  141DOPC  H12R16691   4.953   4.574  12.104  0.5497 -1.2836 -2.6655
  141DOPC  H12S16692   4.814   4.689  12.108  1.8728  0.1388  0.1300
  141DOPC  C21316693   4.780   4.511  11.983 -0.1023 -0.2313  0.0387
  141DOPC  H13R16694   4.671   4.530  11.989  0.1044  0.5450  2.0436
  141DOPC  H13S16695   4.800   4.402  11.992  0.6867 -0.0554  0.5862
  141DOPC  C21416696   4.826   4.561  11.846 -0.6307 -0.5920 -0.1167
  141DOPC  H14R16697   4.932   4.593  11.853 -1.3688  2.1812 -0.4489
  141DOPC  H14S16698   4.766   4.654  11.840 -1.4269 -1.0895 -0.1240
  141DOPC  C21516699   4.786   4.475  11.729  0.1600  0.2525  0.2912
  141DOPC  H15R16700   4.684   4.504  11.694  0.4552  1.4806  0.3803
  141DOPC  H15S16701   4.789   4.370  11.764 -0.6646  0.2653  0.4314
  141DOPC  C21616702   4.885   4.504  11.607 -0.3535 -0.1098  0.5486
  141DOPC  H16R16703   4.981   4.454  11.629 -1.3878 -2.0067  1.0272
  141DOPC  H16S16704   4.901   4.613  11.593 -3.0476  0.2374 -0.5407
  141DOPC  C21716705   4.831   4.453  11.477  0.4754  0.0243 -0.0090
  141DOPC  H17R16706   4.729   4.493  11.463 -0.6695 -2.4175  0.6969
  141DOPC  H17S16707   4.821   4.344  11.500 -0.5625 -0.4633 -2.3850
  141DOPC  C21816708   4.923   4.483  11.355  0.2156  0.1372  0.5992
  141DOPC  H18R16709   4.894   4.583  11.316  0.7849 -0.4089 -1.2880
  141DOPC  H18S16710   4.909   4.411  11.272 -0.0040  0.0166  0.7365
  141DOPC  H18T16711   5.028   4.484  11.389  0.9223 -1.3937 -1.3596
  141DOPC   C3316712   5.484   4.410  12.867 -0.2526  1.0323  0.2773
  141DOPC   H3X16713   5.376   4.420  12.841 -0.5726 -0.4129  0.9270
  141DOPC   H3Y16714   5.517   4.307  12.843  0.1551  1.3807 -0.7194
  141DOPC   C3416715   5.578   4.509  12.799 -0.3184 -0.0751 -0.5514
  141DOPC   H4X16716   5.681   4.502  12.838  0.3240 -0.2434 -2.1900
  141DOPC   H4Y16717   5.544   4.611  12.827 -1.1693  0.2594 -2.6262
  141DOPC   C3516718   5.586   4.495  12.644  0.7197 -0.1437  0.0115
  141DOPC   H5X16719   5.653   4.579  12.615  0.8572  0.4506  1.9145
  141DOPC   H5Y16720   5.488   4.504  12.593  1.5148  0.0817 -1.5178
  141DOPC   C3616721   5.655   4.369  12.598  0.4185 -0.5433  0.2250
  141DOPC   H6X16722   5.748   4.353  12.657 -0.5412  0.0873  1.9864
  141DOPC   H6Y16723   5.579   4.288  12.613 -0.6603  0.3012 -0.5243
  141DOPC   C3716724   5.698   4.368  12.448 -0.2369 -0.3524  0.7006
  141DOPC   H7X16725   5.615   4.425  12.401  1.1581  0.6740 -0.6287
  141DOPC   H7Y16726   5.780   4.442  12.436  0.2152 -0.7579  1.2019
  141DOPC   C3816727   5.733   4.231  12.387  0.0324  0.3958 -0.3892
  141DOPC   H8X16728   5.634   4.181  12.385  0.1629  0.0776 -3.2607
  141DOPC   H8Y16729   5.792   4.175  12.462  0.1245 -0.4092 -1.0605
  141DOPC   C3916730   5.801   4.228  12.250  0.1055  0.0142  0.1639
  141DOPC   H9X16731   5.887   4.159  12.253  0.5791  0.4246 -2.2471
  141DOPC  C31016732   5.763   4.284  12.134 -0.5898 -0.1633 -1.1928
  141DOPC  H10X16733   5.838   4.262  12.056 -0.1757 -1.0255 -0.5676
  141DOPC  C31116734   5.650   4.372  12.102  0.1759 -1.1191  0.6277
  141DOPC  H11X16735   5.695   4.472  12.080 -0.8092 -0.1421  2.7974
  141DOPC  H11Y16736   5.592   4.395  12.194 -0.0923  0.9130  0.0089
  141DOPC  C31216737   5.565   4.309  11.985 -0.0582 -0.6916 -0.0774
  141DOPC  H12X16738   5.475   4.372  11.968  1.4660  1.4378 -0.7088
  141DOPC  H12Y16739   5.547   4.202  12.010  1.3170 -0.4211  2.3815
  141DOPC  C31316740   5.647   4.323  11.854 -0.3039 -0.2036 -0.6431
  141DOPC  H13X16741   5.669   4.431  11.838  0.8471 -0.4089 -0.5279
  141DOPC  H13Y16742   5.745   4.273  11.870 -1.2790 -1.3475  2.5726
  141DOPC  C31416743   5.579   4.263  11.729  0.7712 -0.1614 -0.1938
  141DOPC  H14X16744   5.660   4.217  11.669 -0.8333 -1.8507 -1.1775
  141DOPC  H14Y16745   5.518   4.180  11.770 -1.0190  0.6680 -1.0593
  141DOPC  C31516746   5.495   4.371  11.658 -0.0711  0.2167 -1.0007
  141DOPC  H15X16747   5.546   4.470  11.654  0.3356  0.1280  0.9338
  141DOPC  H15Y16748   5.405   4.383  11.723 -1.0414 -0.4274 -2.1894
  141DOPC  C31616749   5.448   4.336  11.512 -0.3569 -0.2518  0.1214
  141DOPC  H16X16750   5.536   4.306  11.452 -1.0223 -1.9311 -0.0879
  141DOPC  H16Y16751   5.383   4.251  11.543 -0.4676 -0.7554 -1.3925
  141DOPC  C31716752   5.355   4.432  11.430  0.2273  0.3346 -0.3052
  141DOPC  H17X16753   5.294   4.381  11.352 -0.2683 -1.4214  1.1661
  141DOPC  H17Y16754   5.280   4.470  11.504 -0.4513 -1.4239 -0.0381
  141DOPC  C31816755   5.441   4.547  11.374 -0.7639 -0.2569 -0.1402
  141DOPC  H18X16756   5.494   4.515  11.281  2.0691 -1.5051  1.7578
  141DOPC  H18Y16757   5.376   4.632  11.344  1.2633  1.0397 -1.0611
  141DOPC  H18Z16758   5.520   4.588  11.439 -1.0942 -0.6736  0.5334
  142DOPC     N16759   5.814   4.683  13.623  0.4621 -0.2134 -0.4980
  142DOPC   C1216760   5.932   4.647  13.534 -0.0385 -0.2934  0.7600
  142DOPC  H12A16761   5.965   4.738  13.485  1.2659 -1.6439 -1.0119
  142DOPC  H12B16762   5.898   4.574  13.462  0.5519 -0.0022  0.1759
  142DOPC   C1316763   5.755   4.560  13.676 -0.2255 -0.0820  0.2098
  142DOPC  H13A16764   5.673   4.581  13.743 -2.4782 -0.9761 -2.1081
  142DOPC  H13B16765   5.718   4.495  13.598  0.0670  0.2166 -0.1802
  142DOPC  H13C16766   5.842   4.513  13.720  1.3650  0.1196 -2.4909
  142DOPC   C1416767   5.710   4.755  13.542  0.7251 -0.1099 -0.2931
  142DOPC  H14A16768   5.636   4.803  13.606 -1.5015  0.1423 -2.8699
  142DOPC  H14B16769   5.758   4.831  13.482  1.1505  0.4903  0.7734
  142DOPC  H14C16770   5.661   4.680  13.481  1.2510  0.9774 -2.1283
  142DOPC   C1516771   5.859   4.770  13.737 -0.6633  0.1536 -0.4046
  142DOPC  H15A16772   5.773   4.803  13.793  0.1502  1.7196 -0.0161
  142DOPC  H15B16773   5.915   4.854  13.697 -2.2195  1.0630 -0.7612
  142DOPC  H15C16774   5.930   4.706  13.787 -1.0792 -0.5554 -0.7093
  142DOPC   C1116775   6.065   4.609  13.596  0.3484  0.1691 -0.1722
  142DOPC  H11A16776   6.150   4.628  13.527 -1.0573  1.0672 -1.7275
  142DOPC  H11B16777   6.084   4.686  13.674  0.1842 -1.0987  1.1569
  142DOPC     P16778   6.117   4.366  13.555  0.0218  0.0289 -0.3692
  142DOPC   O1316779   6.082   4.237  13.621 -0.3357 -0.2444  0.3443
  142DOPC   O1416780   6.258   4.385  13.525 -0.0914  0.3912  0.4885
  142DOPC   O1216781   6.073   4.480  13.660  0.2097 -0.1413  0.0351
  142DOPC   O1116782   6.025   4.392  13.426 -0.8876 -0.0312  0.2217
  142DOPC    C116783   6.063   4.318  13.308 -0.3665  0.6433 -0.5817
  142DOPC    HA16784   6.015   4.218  13.314 -1.2007  1.1140  1.2518
  142DOPC    HB16785   6.173   4.307  13.298 -0.2602 -0.1034  1.1654
  142DOPC    C216786   6.010   4.396  13.194  0.6632  0.7894  0.1166
  142DOPC    HS16787   5.900   4.404  13.203  0.6411  0.6528 -0.0358
  142DOPC   O2116788   6.055   4.338  13.070 -0.1790 -0.4548  0.1549
  142DOPC   C2116789   5.973   4.369  12.967  0.1410  0.1620 -0.5174
  142DOPC   O2216790   5.868   4.429  12.971 -0.2349 -0.4358  0.4943
  142DOPC   C2216791   6.041   4.317  12.844  0.5398 -0.1083 -0.2388
  142DOPC   H2R16792   5.966   4.249  12.799 -0.3424  1.5930 -1.4357
  142DOPC   H2S16793   6.135   4.265  12.873  1.2246  1.3657  0.2619
  142DOPC    C316794   6.071   4.540  13.215  0.3401 -0.0581 -0.4116
  142DOPC    HX16795   6.181   4.526  13.203  0.5728  0.6025  0.7165
  142DOPC    HY16796   6.054   4.576  13.319 -1.8856  2.0650 -1.4162
  142DOPC   O3116797   6.020   4.644  13.128  0.3339 -0.9684  0.0708
  142DOPC   C3116798   5.891   4.674  13.157  0.3022 -0.1584  0.4128
  142DOPC   O3216799   5.825   4.614  13.241 -0.2415  0.5604 -0.4126
  142DOPC   C3216800   5.842   4.794  13.075 -0.2610  0.5150  0.1747
  142DOPC   H2X16801   5.870   4.893  13.119  2.9387 -0.5179  0.7483
  142DOPC   H2Y16802   5.892   4.783  12.977 -1.7888  0.6327 -0.6397
  142DOPC   C2316803   6.072   4.437  12.753 -0.4983  0.2738  0.0327
  142DOPC   H3R16804   6.165   4.494  12.773 -0.1237  0.1961 -1.4032
  142DOPC   H3S16805   5.979   4.499  12.750 -0.1927  0.7718  0.5820
  142DOPC   C2416806   6.078   4.376  12.610 -0.0345 -0.6532 -0.1747
  142DOPC   H4R16807   5.983   4.331  12.574 -0.9734  1.9741 -1.2128
  142DOPC   H4S16808   6.165   4.307  12.607  2.1989  1.6969  2.9687
  142DOPC   C2516809   6.098   4.477  12.495  0.1586  0.0835  0.7198
  142DOPC   H5R16810   6.195   4.526  12.521  0.8457 -0.8712  0.0241
  142DOPC   H5S16811   6.021   4.557  12.493  1.2046  1.2523  3.0716
  142DOPC   C2616812   6.116   4.415  12.351 -0.1880  0.1984  0.0431
  142DOPC   H6R16813   6.024   4.358  12.326 -1.5608  2.3996 -0.2019
  142DOPC   H6S16814   6.195   4.337  12.357 -1.1407 -0.7005  1.9263
  142DOPC   C2716815   6.149   4.513  12.245  0.5227 -0.1308  0.0473
  142DOPC   H7R16816   6.231   4.580  12.279 -0.4065  1.0374  0.0723
  142DOPC   H7S16817   6.062   4.578  12.221  0.5062 -0.3602 -0.5311
  142DOPC   C2816818   6.189   4.449  12.111 -0.2441 -0.1912  0.4393
  142DOPC   H8R16819   6.122   4.373  12.065  1.9168 -2.6697  1.1461
  142DOPC   H8S16820   6.279   4.391  12.139 -0.0165  0.3499  0.8575
  142DOPC   C2916821   6.221   4.548  12.002 -0.3096  0.6155  0.1666
  142DOPC   H9R16822   6.307   4.612  12.026  0.7805 -0.1838 -1.3805
  142DOPC  C21016823   6.156   4.575  11.883 -0.4613  0.5888 -0.1834
  142DOPC  H10R16824   6.213   4.632  11.809  0.3865 -1.2136 -0.9889
  142DOPC  C21116825   6.034   4.508  11.833 -0.3024  0.3015  0.1661
  142DOPC  H11R16826   5.943   4.562  11.865  0.3854 -0.1031  3.0321
  142DOPC  H11S16827   6.024   4.404  11.872  1.5572  0.2409  0.5655
  142DOPC  C21216828   6.041   4.507  11.680  0.1567  0.3508 -0.3562
  142DOPC  H12R16829   6.144   4.473  11.658  0.7196  2.3225 -0.9921
  142DOPC  H12S16830   6.039   4.611  11.639  0.0561  0.3304 -0.4052
  142DOPC  C21316831   5.941   4.415  11.611 -0.0894  0.6622 -0.0775
  142DOPC  H13R16832   5.838   4.439  11.647 -0.7251 -1.2060 -0.5510
  142DOPC  H13S16833   5.961   4.306  11.622  1.3266  0.9011 -0.1143
  142DOPC  C21416834   5.932   4.447  11.456 -0.0202 -0.4442 -0.3418
  142DOPC  H14R16835   5.902   4.356  11.400  0.3648  0.9959 -3.1250
  142DOPC  H14S16836   6.034   4.471  11.418  0.1686 -1.0910 -0.2410
  142DOPC  C21516837   5.830   4.554  11.419  0.4689 -0.0318  0.5443
  142DOPC  H15R16838   5.849   4.653  11.466 -1.2114  0.8312 -0.5044
  142DOPC  H15S16839   5.731   4.527  11.461  0.6637  0.9915  1.7086
  142DOPC  C21616840   5.815   4.579  11.263 -0.4213  0.2298  0.1958
  142DOPC  H16R16841   5.711   4.613  11.245 -0.6480 -1.5456 -2.2808
  142DOPC  H16S16842   5.817   4.485  11.204 -0.9125 -0.1122  0.7149
  142DOPC  C21716843   5.916   4.675  11.199  0.2908  0.0578  0.1557
  142DOPC  H17R16844   6.018   4.648  11.235  0.4014 -0.3220 -0.4287
  142DOPC  H17S16845   5.897   4.780  11.229  0.8775  0.2361 -0.0748
  142DOPC  C21816846   5.913   4.668  11.040 -0.0797  0.2306 -0.7087
  142DOPC  H18R16847   5.963   4.576  11.004  1.1598 -0.4148  2.3692
  142DOPC  H18S16848   5.973   4.752  11.000 -0.0401 -0.0851 -1.3244
  142DOPC  H18T16849   5.806   4.675  11.008 -0.1142 -3.2338 -1.7766
  142DOPC   C3316850   5.687   4.782  13.053  0.2139  0.1471 -0.6655
  142DOPC   H3X16851   5.636   4.812  13.146 -0.4048  1.4272 -1.3987
  142DOPC   H3Y16852   5.662   4.675  13.032  2.1667 -0.9132  1.8136
  142DOPC   C3416853   5.631   4.866  12.936  0.4305  0.4925  0.3099
  142DOPC   H4X16854   5.638   4.975  12.958 -1.9542  0.4333  1.6265
  142DOPC   H4Y16855   5.526   4.833  12.924  1.6030 -3.2876 -0.9103
  142DOPC   C3516856   5.705   4.838  12.805  0.5519 -0.1617 -0.0238
  142DOPC   H5X16857   5.712   4.727  12.798 -0.0215 -0.3844  2.1893
  142DOPC   H5Y16858   5.800   4.895  12.797  0.4287  0.2818  1.3267
  142DOPC   C3616859   5.608   4.887  12.689  0.0119 -0.6418 -0.4897
  142DOPC   H6X16860   5.519   4.822  12.676  0.0887 -0.7705 -0.3874
  142DOPC   H6Y16861   5.574   4.992  12.701  0.8272 -0.3458 -0.7036
  142DOPC   C3716862   5.677   4.887  12.555  0.0543  0.8118 -0.6556
  142DOPC   H7X16863   5.766   4.953  12.568  1.3345 -1.1347  1.0623
  142DOPC   H7Y16864   5.714   4.784  12.537 -1.2808  0.1946  0.0487
  142DOPC   C3816865   5.605   4.939  12.434 -0.1296 -0.3783 -0.2367
  142DOPC   H8X16866   5.511   4.879  12.425 -2.8599  3.7091 -1.4994
  142DOPC   H8Y16867   5.664   4.924  12.342  1.4918  1.6535  0.3956
  142DOPC   C3916868   5.571   5.085  12.441  0.3423 -0.3701 -0.8004
  142DOPC   H9X16869   5.634   5.155  12.497 -2.0002  0.2692  1.2291
  142DOPC  C31016870   5.471   5.155  12.380 -0.4660  0.0141 -0.1071
  142DOPC  H10X16871   5.471   5.263  12.401 -2.5263  0.2051 -0.8546
  142DOPC  C31116872   5.367   5.101  12.287 -0.6534 -0.1028 -0.6450
  142DOPC  H11X16873   5.268   5.146  12.309 -1.1299 -1.0205 -0.8945
  142DOPC  H11Y16874   5.353   4.991  12.289 -2.5794  0.0855 -1.3126
  142DOPC  C31216875   5.420   5.162  12.156 -0.1457 -0.4359  0.1845
  142DOPC  H12X16876   5.503   5.099  12.119  0.6794 -1.2661  3.1533
  142DOPC  H12Y16877   5.455   5.268  12.160 -1.4378 -0.0122  0.9511
  142DOPC  C31316878   5.311   5.161  12.047 -0.5559  0.4590  0.1247
  142DOPC  H13X16879   5.244   5.073  12.037  1.1534 -0.7382 -1.4640
  142DOPC  H13Y16880   5.249   5.249  12.072  1.2491  1.7551  0.2459
  142DOPC  C31416881   5.374   5.175  11.905  0.1690  0.0274 -0.2689
  142DOPC  H14X16882   5.403   5.281  11.890  0.8805 -0.0081  0.7821
  142DOPC  H14Y16883   5.456   5.102  11.887 -0.3511 -0.5346 -0.4213
  142DOPC  C31516884   5.276   5.142  11.793  0.5086 -0.2348  0.6925
  142DOPC  H15X16885   5.194   5.214  11.813 -0.2641 -1.1515  0.8390
  142DOPC  H15Y16886   5.234   5.040  11.790  3.7810 -1.7360  1.1136
  142DOPC  C31616887   5.322   5.171  11.650 -0.1729 -0.4319 -0.2948
  142DOPC  H16X16888   5.335   5.281  11.633 -0.2380 -0.4277 -0.3185
  142DOPC  H16Y16889   5.418   5.115  11.645  0.5631  0.7086  0.4686
  142DOPC  C31716890   5.227   5.135  11.537  0.0144  0.1066 -0.0077
  142DOPC  H17X16891   5.129   5.180  11.562  0.4246 -0.5776  3.2664
  142DOPC  H17Y16892   5.280   5.182  11.451  1.5974  0.3182  1.0435
  142DOPC  C31816893   5.221   4.989  11.509 -0.2188  0.3086 -0.4651
  142DOPC  H18X16894   5.124   4.958  11.466 -0.2216  0.3476 -0.4852
  142DOPC  H18Y16895   5.307   4.961  11.444 -1.6568 -1.6734 -1.6311
  142DOPC  H18Z16896   5.241   4.932  11.603 -1.8512  2.1618  1.0943
  143DOPC     N16897   3.978   3.838  14.016 -0.5652  0.1413 -0.4027
  143DOPC   C1216898   3.912   3.731  13.933 -0.5120  0.6011 -0.1050
  143DOPC  H12A16899   3.834   3.680  13.987  1.1456 -1.8598  0.1462
  143DOPC  H12B16900   3.985   3.652  13.923 -1.6031 -0.3938 -0.3367
  143DOPC   C1316901   4.018   3.770  14.143  0.1162 -0.3594 -0.2061
  143DOPC  H13A16902   3.942   3.701  14.177  0.8862  0.1755  2.9702
  143DOPC  H13B16903   4.107   3.711  14.125  0.5623  0.4095 -0.5541
  143DOPC  H13C16904   4.048   3.837  14.222 -1.6601 -0.3722  0.5176
  143DOPC   C1416905   3.879   3.950  14.044 -0.0570 -0.1254  0.0797
  143DOPC  H14A16906   3.847   4.000  13.954 -1.7629 -0.1582  0.6195
  143DOPC  H14B16907   3.788   3.922  14.096  0.5261  1.3856  2.0441
  143DOPC  H14C16908   3.924   4.024  14.108  0.4206 -0.1114 -0.2735
  143DOPC   C1516909   4.096   3.887  13.941 -0.2327  0.1426 -0.2700
  143DOPC  H15A16910   4.156   3.810  13.894  0.9390  0.6035  0.4169
  143DOPC  H15B16911   4.154   3.956  14.000 -0.2149  1.3639 -1.6435
  143DOPC  H15C16912   4.056   3.941  13.856  0.2588 -0.2687 -0.7767
  143DOPC   C1116913   3.848   3.767  13.795 -0.2830  0.1854 -0.1566
  143DOPC  H11A16914   3.912   3.844  13.747  1.3196  0.3990  2.1424
  143DOPC  H11B16915   3.853   3.673  13.736  0.3451  0.0697  0.0638
  143DOPC     P16916   3.605   3.710  13.864  0.5291  0.1859  0.1614
  143DOPC   O1316917   3.481   3.792  13.885  0.1454  0.8934  0.2715
  143DOPC   O1416918   3.655   3.632  13.980 -0.4283  0.0782  0.3859
  143DOPC   O1216919   3.712   3.810  13.810 -0.2990  0.5654 -0.0328
  143DOPC   O1116920   3.588   3.612  13.739  0.2901 -0.2437  0.0073
  143DOPC    C116921   3.618   3.648  13.606 -0.3752 -0.0104 -0.4059
  143DOPC    HA16922   3.700   3.579  13.578 -0.1981 -0.1653  0.4459
  143DOPC    HB16923   3.650   3.752  13.583 -0.6010  0.4740  1.3267
  143DOPC    C216924   3.496   3.614  13.515  0.5203  0.4341  0.6711
  143DOPC    HS16925   3.408   3.674  13.546 -0.3992  0.5749 -1.9207
  143DOPC   O2116926   3.469   3.470  13.520 -0.0562 -0.1273 -0.2495
  143DOPC   C2116927   3.343   3.436  13.511  1.4028 -0.1615  0.2784
  143DOPC   O2216928   3.248   3.511  13.487 -0.0984  0.2718 -0.2532
  143DOPC   C2216929   3.329   3.285  13.511  0.6717  0.2922 -0.8702
  143DOPC   H2R16930   3.249   3.270  13.587  2.7515 -1.6483  1.0745
  143DOPC   H2S16931   3.425   3.241  13.543  1.0964  3.0683  2.2523
  143DOPC    C316932   3.545   3.645  13.367  0.2313  0.0942 -0.6268
  143DOPC    HX16933   3.638   3.586  13.351 -0.1863 -0.7727  0.0925
  143DOPC    HY16934   3.574   3.752  13.358  1.1912 -0.1552 -0.6551
  143DOPC   O3116935   3.448   3.607  13.267  0.2952 -0.4163  0.4089
  143DOPC   C3116936   3.368   3.708  13.235  0.6863  0.5622  0.1707
  143DOPC   O3216937   3.367   3.819  13.283 -0.5666  0.3272  0.4343
  143DOPC   C3216938   3.286   3.672  13.112  0.2217  0.5639 -0.3262
  143DOPC   H2X16939   3.299   3.565  13.084  0.2079  0.9394 -1.8665
  143DOPC   H2Y16940   3.182   3.703  13.137  0.2197 -0.1727  0.6279
  143DOPC   C2316941   3.274   3.232  13.370  0.5886 -0.4386 -0.5556
  143DOPC   H3R16942   3.189   3.295  13.335  0.2264 -1.3543 -1.3732
  143DOPC   H3S16943   3.245   3.127  13.391  1.3030 -0.3007  1.3190
  143DOPC   C2416944   3.387   3.223  13.278  0.5382 -0.2558 -0.6535
  143DOPC   H4R16945   3.462   3.183  13.350 -1.5703  0.3233  2.0688
  143DOPC   H4S16946   3.429   3.313  13.227 -0.8919 -0.9172 -3.1479
  143DOPC   C2516947   3.360   3.129  13.168 -0.4059  0.6300  0.1258
  143DOPC   H5R16948   3.309   3.033  13.191  0.8838 -0.3194 -0.7707
  143DOPC   H5S16949   3.452   3.100  13.112  0.3926 -1.3377  2.3086
  143DOPC   C2616950   3.264   3.193  13.069  0.0180  0.0600  0.2106
  143DOPC   H6R16951   3.274   3.303  13.055 -1.6712  0.1781 -0.3501
  143DOPC   H6S16952   3.161   3.167  13.101  0.0358 -1.5920 -0.9350
  143DOPC   C2716953   3.270   3.133  12.924 -0.2258 -0.1210 -0.1989
  143DOPC   H7R16954   3.229   3.030  12.926 -1.8163  0.4807 -0.6413
  143DOPC   H7S16955   3.379   3.124  12.904 -0.5827 -0.0194 -2.4315
  143DOPC   C2816956   3.201   3.220  12.820  0.1443 -0.4025  0.2465
  143DOPC   H8R16957   3.245   3.321  12.831  0.2406 -0.0847 -2.3693
  143DOPC   H8S16958   3.093   3.221  12.846 -0.5426 -2.2664 -2.1294
  143DOPC   C2916959   3.220   3.188  12.673  0.8994 -0.4195  0.1251
  143DOPC   H9R16960   3.159   3.104  12.635  0.1345 -0.3360  1.1160
  143DOPC  C21016961   3.284   3.258  12.574 -0.0052  0.3288 -0.3877
  143DOPC  H10R16962   3.282   3.227  12.469  0.0705  2.9747 -1.2466
  143DOPC  C21116963   3.373   3.382  12.603  1.1283  0.5226  0.4072
  143DOPC  H11R16964   3.418   3.365  12.703  0.6824 -2.6716  0.1677
  143DOPC  H11S16965   3.315   3.475  12.619 -0.9622 -0.7610  0.5705
  143DOPC  C21216966   3.482   3.401  12.489  0.0171  0.3916 -0.6679
  143DOPC  H12R16967   3.532   3.304  12.472  0.7778  0.4331  1.1107
  143DOPC  H12S16968   3.556   3.473  12.530 -0.7304  1.2776 -0.8192
  143DOPC  C21316969   3.427   3.447  12.355 -0.4220 -0.0958 -0.0136
  143DOPC  H13R16970   3.393   3.553  12.360 -1.0355 -0.3037  0.2459
  143DOPC  H13S16971   3.337   3.386  12.331 -0.1849 -0.2646 -0.4835
  143DOPC  C21416972   3.544   3.443  12.252  0.0542  0.1115  0.4187
  143DOPC  H14R16973   3.609   3.354  12.268 -1.9879 -1.6039 -0.2217
  143DOPC  H14S16974   3.610   3.531  12.265  0.1710  0.0757  0.0822
  143DOPC  C21516975   3.488   3.444  12.109 -0.4710 -0.3017 -0.7612
  143DOPC  H15R16976   3.566   3.477  12.038  0.5219 -0.0746  0.3987
  143DOPC  H15S16977   3.410   3.523  12.107  0.0182  0.1707 -1.7676
  143DOPC  C21616978   3.423   3.316  12.067  0.3204  0.2033 -0.2365
  143DOPC  H16R16979   3.331   3.316  12.128  0.9769 -2.0716  0.8770
  143DOPC  H16S16980   3.478   3.225  12.100  0.5839  0.7672  0.8997
  143DOPC  C21716981   3.390   3.314  11.918  0.1039  0.6624  0.7402
  143DOPC  H17R16982   3.347   3.407  11.875  2.7683  1.1586 -1.1413
  143DOPC  H17S16983   3.316   3.232  11.909  1.9957 -1.0279 -0.6483
  143DOPC  C21816984   3.508   3.280  11.822  0.1269  0.5575 -0.0933
  143DOPC  H18R16985   3.565   3.196  11.869  0.8600  1.4563  0.6627
  143DOPC  H18S16986   3.579   3.363  11.803  2.3912 -0.3903  3.1735
  143DOPC  H18T16987   3.479   3.238  11.724  1.0599  0.7325 -0.4482
  143DOPC   C3316988   3.312   3.752  12.981 -0.2669 -0.2126  0.8417
  143DOPC   H3X16989   3.390   3.700  12.921  1.4857  1.8717  1.1888
  143DOPC   H3Y16990   3.338   3.856  13.009 -0.1180  0.0082 -0.0793
  143DOPC   C3416991   3.189   3.761  12.895  0.1094  0.3493  0.1058
  143DOPC   H4X16992   3.113   3.795  12.970  0.6891  0.8313  0.4849
  143DOPC   H4Y16993   3.146   3.663  12.866 -1.3728  0.6978  0.9487
  143DOPC   C3516994   3.203   3.857  12.771  0.5087  0.8104  0.0346
  143DOPC   H5X16995   3.292   3.819  12.716  0.2960  1.5092 -0.7979
  143DOPC   H5Y16996   3.222   3.960  12.808  0.2918  0.8889 -0.0737
  143DOPC   C3616997   3.091   3.857  12.672  0.1167 -0.6317 -0.3680
  143DOPC   H6X16998   3.074   3.753  12.639 -2.3962  0.3351 -2.4850
  143DOPC   H6Y16999   3.000   3.887  12.728 -0.8019 -3.4385 -0.1906
  143DOPC   C3717000   3.103   3.952  12.554  0.2091  0.3016  0.1263
  143DOPC   H7X17001   3.015   3.936  12.489  0.0365 -0.3762  0.5240
  143DOPC   H7Y17002   3.091   4.054  12.597  0.0910 -0.4419  1.9218
  143DOPC   C3817003   3.237   3.947  12.479 -0.0965  0.3727 -0.4290
  143DOPC   H8X17004   3.330   3.967  12.537  0.2240  0.8958 -1.1164
  143DOPC   H8Y17005   3.230   4.032  12.407 -0.4102  0.0952 -0.7291
  143DOPC   C3917006   3.252   3.813  12.408  0.8816 -0.2683  0.8386
  143DOPC   H9X17007   3.293   3.732  12.470  0.3399 -0.4152  1.0145
  143DOPC  C31017008   3.215   3.784  12.278 -0.2216  0.5129 -0.5231
  143DOPC  H10X17009   3.255   3.690  12.237 -0.0372  1.3776 -2.4158
  143DOPC  C31117010   3.151   3.884  12.186 -0.3423  0.6947  0.5765
  143DOPC  H11X17011   3.152   3.989  12.222 -0.2509  0.5769  0.9280
  143DOPC  H11Y17012   3.041   3.875  12.180 -0.6024  3.2466  0.6297
  143DOPC  C31217013   3.218   3.882  12.054  0.1324 -0.0872  0.3751
  143DOPC  H12X17014   3.223   3.783  12.004 -1.9400 -0.9820  1.8286
  143DOPC  H12Y17015   3.319   3.928  12.065  0.5647 -1.3490  2.0167
  143DOPC  C31317016   3.135   3.970  11.956  0.2841 -0.3073  0.0933
  143DOPC  H13X17017   3.032   3.929  11.951  0.1042  0.3291 -2.4798
  143DOPC  H13Y17018   3.123   4.072  12.000  0.0968 -0.7914  1.2110
  143DOPC  C31417019   3.192   3.985  11.817 -0.0990  0.3010  0.5619
  143DOPC  H14X17020   3.295   4.028  11.821  0.4748 -0.9856  0.1673
  143DOPC  H14Y17021   3.212   3.885  11.771  0.3048  0.9194 -0.6616
  143DOPC  C31517022   3.098   4.060  11.727 -0.5634 -0.0350 -0.0948
  143DOPC  H15X17023   3.068   4.158  11.770  1.0907  0.6495 -0.4256
  143DOPC  H15Y17024   3.004   4.003  11.712 -0.1791 -1.2461  1.7558
  143DOPC  C31617025   3.167   4.102  11.594 -0.4107 -0.0810 -0.4439
  143DOPC  H16X17026   3.105   4.167  11.528  0.2849 -0.5908 -1.6414
  143DOPC  H16Y17027   3.251   4.172  11.614  0.2407 -0.2081 -2.5292
  143DOPC  C31717028   3.208   3.988  11.499  0.1424  0.1975  0.0194
  143DOPC  H17X17029   3.290   4.017  11.431  0.5639  0.2302  0.5400
  143DOPC  H17Y17030   3.250   3.911  11.567  0.7555  0.4785 -0.0360
  143DOPC  C31817031   3.091   3.920  11.422 -0.0346 -0.4557  0.1153
  143DOPC  H18X17032   3.121   3.842  11.349  2.1845 -0.0242  0.4814
  143DOPC  H18Y17033   3.018   3.877  11.494 -0.3590 -1.6601 -0.9094
  143DOPC  H18Z17034   3.047   4.008  11.369  0.4440 -0.0451  0.3905
  144DOPC     N17035   3.941   4.652  14.061  0.6493  0.7104  0.0805
  144DOPC   C1217036   3.911   4.645  13.913 -0.9416 -0.0757 -0.4348
  144DOPC  H12A17037   3.948   4.738  13.873 -1.5152 -0.4512 -1.9002
  144DOPC  H12B17038   3.804   4.644  13.899 -0.8909 -1.3681 -0.8625
  144DOPC   C1317039   4.082   4.659  14.098 -0.7149  0.0149  0.0955
  144DOPC  H13A17040   4.128   4.750  14.063  1.9487 -1.2547  0.0570
  144DOPC  H13B17041   4.099   4.653  14.205 -0.3825 -1.7581 -0.0316
  144DOPC  H13C17042   4.144   4.593  14.038  1.4171  0.5699  1.5470
  144DOPC   C1417043   3.885   4.518  14.116  0.1101  0.1437 -0.6665
  144DOPC  H14A17044   3.778   4.525  14.102 -0.2650 -0.2829  1.5431
  144DOPC  H14B17045   3.933   4.434  14.067 -1.3702 -1.8257  1.0459
  144DOPC  H14C17046   3.911   4.516  14.221 -0.0181  0.2053 -0.6329
  144DOPC   C1517047   3.870   4.763  14.132 -0.0130 -0.6575 -0.1795
  144DOPC  H15A17048   3.875   4.749  14.239 -0.6532 -0.2178 -0.0875
  144DOPC  H15B17049   3.765   4.771  14.106 -0.4145 -0.1182  1.5136
  144DOPC  H15C17050   3.923   4.854  14.111 -0.3595 -0.0777  1.3192
  144DOPC   C1117051   3.974   4.519  13.838  0.0836 -0.5546 -0.0177
  144DOPC  H11A17052   3.980   4.535  13.728 -0.0200  2.3515  0.3336
  144DOPC  H11B17053   4.075   4.491  13.874  0.2883  2.0600  1.6912
  144DOPC     P17054   3.919   4.262  13.847 -0.1889 -0.0762  0.1956
  144DOPC   O1317055   3.801   4.172  13.847 -0.1206  0.6107  0.1420
  144DOPC   O1417056   4.024   4.233  13.940 -0.6438 -0.4798 -1.0166
  144DOPC   O1217057   3.878   4.409  13.863  0.3385 -0.2873  0.2641
  144DOPC   O1117058   3.985   4.258  13.699  0.3535  0.1806  0.1187
  144DOPC    C117059   3.908   4.283  13.585 -0.9119  0.4690  0.4726
  144DOPC    HA17060   3.854   4.379  13.604 -0.4733  0.6719  0.6903
  144DOPC    HB17061   3.831   4.204  13.571 -0.2115 -0.5760  2.2348
  144DOPC    C217062   3.989   4.307  13.455 -0.4735 -0.0701 -0.3795
  144DOPC    HS17063   4.048   4.217  13.430  2.5133  2.1320 -1.8878
  144DOPC   O2117064   4.078   4.424  13.470 -0.3943  0.4379 -0.6002
  144DOPC   C2117065   4.190   4.391  13.526 -0.1537 -0.1286 -0.1937
  144DOPC   O2217066   4.220   4.281  13.568 -0.1635  0.1463 -0.5797
  144DOPC   C2217067   4.277   4.511  13.552 -0.4737 -0.3388  0.6488
  144DOPC   H2R17068   4.316   4.504  13.655  1.0588 -1.7518  0.0190
  144DOPC   H2S17069   4.212   4.601  13.552 -1.6181 -1.1080 -0.8289
  144DOPC    C317070   3.890   4.334  13.338  0.0906  0.2846  0.0033
  144DOPC    HX17071   3.954   4.359  13.251  0.5924  0.1518  0.3290
  144DOPC    HY17072   3.830   4.425  13.360 -1.8861 -1.4009  1.9305
  144DOPC   O3117073   3.787   4.233  13.311  0.1627  0.1208 -0.2028
  144DOPC   C3117074   3.837   4.132  13.238  0.2281  0.2743  0.0191
  144DOPC   O3217075   3.952   4.133  13.200  0.3205 -0.0637  0.2243
  144DOPC   C3217076   3.721   4.044  13.199  0.4007  0.2831  0.1128
  144DOPC   H2X17077   3.698   3.974  13.281 -1.5484  0.3736 -0.2976
  144DOPC   H2Y17078   3.639   4.111  13.164 -0.4293 -1.1910 -0.8507
  144DOPC   C2317079   4.416   4.537  13.482 -0.6562 -0.6151  0.9135
  144DOPC   H3R17080   4.493   4.459  13.497 -0.0738 -0.0656  0.8239
  144DOPC   H3S17081   4.463   4.625  13.530 -1.1533 -0.1934  0.6445
  144DOPC   C2417082   4.397   4.553  13.329 -0.1028 -0.2203  0.6822
  144DOPC   H4R17083   4.498   4.589  13.302 -1.1308  1.5421 -1.0507
  144DOPC   H4S17084   4.323   4.632  13.303  0.7783  0.3800 -0.0366
  144DOPC   C2517085   4.362   4.432  13.250  0.3976 -0.0654 -0.1781
  144DOPC   H5R17086   4.275   4.462  13.188  3.1654  2.4327 -3.2787
  144DOPC   H5S17087   4.337   4.342  13.310  1.9646 -1.8441 -2.0023
  144DOPC   C2617088   4.466   4.403  13.140  0.5619 -0.2147 -0.3932
  144DOPC   H6R17089   4.560   4.404  13.200 -0.4038 -1.6175  1.2205
  144DOPC   H6S17090   4.477   4.492  13.074 -0.3173  0.9610  0.9614
  144DOPC   C2717091   4.448   4.274  13.074 -0.4149  0.6407  0.2551
  144DOPC   H7R17092   4.463   4.186  13.139 -0.9443  1.3996  1.4400
  144DOPC   H7S17093   4.536   4.277  13.005 -0.0494  0.9386  0.7292
  144DOPC   C2817094   4.326   4.270  12.980 -0.4191  0.1384  0.3475
  144DOPC   H8R17095   4.318   4.365  12.923 -1.5251  0.2951  0.7319
  144DOPC   H8S17096   4.239   4.273  13.049 -0.1658 -0.2408  0.6883
  144DOPC   C2917097   4.321   4.156  12.884 -0.0392  0.1690 -0.1860
  144DOPC   H9R17098   4.334   4.055  12.927 -1.3839  0.0127 -0.1032
  144DOPC  C21017099   4.316   4.162  12.749 -0.3248 -0.0114  0.1797
  144DOPC  H10R17100   4.316   4.066  12.695 -1.1706 -0.2355  0.5589
  144DOPC  C21117101   4.321   4.284  12.661 -0.5392  0.3502 -0.3440
  144DOPC  H11R17102   4.312   4.377  12.721  1.0816 -0.1106  0.6713
  144DOPC  H11S17103   4.228   4.278  12.600 -0.3542  0.5293 -0.6435
  144DOPC  C21217104   4.445   4.288  12.565  0.0346 -0.1752 -0.4457
  144DOPC  H12R17105   4.492   4.189  12.544  2.4476  0.8723 -0.2640
  144DOPC  H12S17106   4.530   4.342  12.612  0.6570  0.3868 -2.1576
  144DOPC  C21317107   4.389   4.358  12.437 -0.9116  0.3850 -0.5546
  144DOPC  H13R17108   4.448   4.450  12.416 -1.3871  0.5871 -1.0419
  144DOPC  H13S17109   4.289   4.405  12.447 -0.0872  1.7871  2.1008
  144DOPC  C21417110   4.396   4.268  12.313  0.2866 -0.6716  1.0824
  144DOPC  H14R17111   4.318   4.189  12.319 -0.8551  0.4509  1.5370
  144DOPC  H14S17112   4.497   4.224  12.321  0.2270 -0.8070  1.0960
  144DOPC  C21517113   4.404   4.349  12.183  0.2261  0.1138  0.3562
  144DOPC  H15R17114   4.486   4.424  12.193 -2.7939  3.8733 -0.7391
  144DOPC  H15S17115   4.308   4.404  12.174  1.0256  1.4198 -0.5294
  144DOPC  C21617116   4.433   4.254  12.070 -0.5611 -0.8559  0.2407
  144DOPC  H16R17117   4.357   4.174  12.056 -0.7546 -0.4717 -1.0076
  144DOPC  H16S17118   4.539   4.227  12.089 -0.5429 -0.2919  0.9976
  144DOPC  C21717119   4.421   4.333  11.935 -0.3170  0.1494 -0.3032
  144DOPC  H17R17120   4.478   4.426  11.952 -1.5857  1.1025 -1.1310
  144DOPC  H17S17121   4.315   4.365  11.927 -0.0893  0.6717 -1.2669
  144DOPC  C21817122   4.462   4.262  11.804 -0.4019 -0.3800  0.7322
  144DOPC  H18R17123   4.451   4.332  11.718 -0.8331  0.4160  1.4226
  144DOPC  H18S17124   4.383   4.188  11.781  0.3127 -0.5696 -1.3047
  144DOPC  H18T17125   4.569   4.232  11.794 -0.2590  0.1841  0.5008
  144DOPC   C3317126   3.776   3.962  13.083  0.4526 -0.0899 -0.4937
  144DOPC   H3X17127   3.883   3.930  13.085 -0.3845 -3.2605 -0.7623
  144DOPC   H3Y17128   3.756   4.024  12.993 -3.6954 -1.9932 -1.1108
  144DOPC   C3417129   3.701   3.831  13.065  0.6038 -0.2846 -0.2927
  144DOPC   H4X17130   3.596   3.854  13.036  0.4671  0.5107  0.7644
  144DOPC   H4Y17131   3.710   3.783  13.164 -0.3615 -2.3050 -1.1298
  144DOPC   C3517132   3.752   3.728  12.955  0.2739  0.1549 -0.7249
  144DOPC   H5X17133   3.679   3.645  12.949 -0.1484  0.5822 -1.6868
  144DOPC   H5Y17134   3.847   3.685  12.993 -0.1977 -0.5222 -0.2858
  144DOPC   C3617135   3.768   3.788  12.814  0.0611 -0.2458  0.7319
  144DOPC   H6X17136   3.852   3.860  12.807 -0.3253  0.2618  1.2457
  144DOPC   H6Y17137   3.808   3.705  12.751  2.8294  0.6425  1.2069
  144DOPC   C3717138   3.635   3.846  12.757  0.1752 -0.3379  0.0986
  144DOPC   H7X17139   3.568   3.765  12.722 -0.4963  0.5936 -0.8522
  144DOPC   H7Y17140   3.567   3.904  12.823 -1.2504  0.8972 -2.3013
  144DOPC   C3817141   3.662   3.939  12.631  0.3007 -0.0091 -0.8211
  144DOPC   H8X17142   3.672   4.041  12.674  0.6759 -0.4528  0.1731
  144DOPC   H8Y17143   3.573   3.945  12.565 -0.3800 -1.7311 -0.1271
  144DOPC   C3917144   3.779   3.907  12.536 -0.0378  0.6996  0.5388
  144DOPC   H9X17145   3.882   3.910  12.573  0.6420  0.6102 -1.2360
  144DOPC  C31017146   3.777   3.896  12.404 -0.1157 -0.4543 -0.1569
  144DOPC  H10X17147   3.870   3.884  12.346 -0.0613 -0.0128 -0.1676
  144DOPC  C31117148   3.648   3.894  12.321  0.3231  0.2107  0.8822
  144DOPC  H11X17149   3.619   4.002  12.322  3.4129  1.1426  1.4293
  144DOPC  H11Y17150   3.575   3.821  12.361  0.4408  0.3945  1.4372
  144DOPC  C31217151   3.701   3.854  12.177  0.1564 -0.3385 -0.5184
  144DOPC  H12X17152   3.741   3.750  12.182 -0.1104 -0.3803  2.0498
  144DOPC  H12Y17153   3.792   3.905  12.140  0.3881 -1.6112 -1.8054
  144DOPC  C31317154   3.594   3.851  12.063  0.4138  0.3585  0.1518
  144DOPC  H13X17155   3.500   3.815  12.109  0.8816  0.9016  1.5918
  144DOPC  H13Y17156   3.573   3.957  12.037  0.0058 -0.0903 -1.4361
  144DOPC  C31417157   3.643   3.788  11.938 -0.6081  0.1065  0.3938
  144DOPC  H14X17158   3.705   3.860  11.880 -0.4110  0.1631  0.6755
  144DOPC  H14Y17159   3.710   3.703  11.963  0.6649 -0.4731 -4.1012
  144DOPC  C31517160   3.533   3.731  11.840 -0.7263 -0.2270 -0.3019
  144DOPC  H15X17161   3.460   3.812  11.820  1.7002  1.4070 -3.4245
  144DOPC  H15Y17162   3.480   3.643  11.883 -2.8744  0.5552 -1.2039
  144DOPC  C31617163   3.593   3.699  11.704  0.3893 -0.2016  0.0377
  144DOPC  H16X17164   3.614   3.797  11.657 -0.5767  0.1877  0.4129
  144DOPC  H16Y17165   3.683   3.634  11.711 -0.8936 -2.1391 -0.5416
  144DOPC  C31717166   3.480   3.639  11.621 -0.2916  0.3611  0.3712
  144DOPC  H17X17167   3.439   3.560  11.687 -0.1758  0.6712  0.8197
  144DOPC  H17Y17168   3.408   3.716  11.587  1.0454  1.4964  0.0046
  144DOPC  C31817169   3.537   3.565  11.494  0.0797  0.5724  0.3379
  144DOPC  H18X17170   3.608   3.639  11.452 -0.3424  0.0123 -1.4553
  144DOPC  H18Y17171   3.593   3.475  11.528 -0.6236  0.2236  0.5836
  144DOPC  H18Z17172   3.457   3.536  11.422 -1.3036  0.4378  1.8646
  145DOPC     N17173   3.644   6.582  14.154  0.2806  0.3760  0.3970
  145DOPC   C1217174   3.707   6.588  14.022 -0.2473 -0.4167  0.2276
  145DOPC  H12A17175   3.784   6.663  14.019 -1.0186  0.3644 -1.9975
  145DOPC  H12B17176   3.635   6.629  13.953  1.4184  1.7515 -0.3150
  145DOPC   C1317177   3.741   6.548  14.258 -0.2358 -0.1309 -0.0768
  145DOPC  H13A17178   3.817   6.624  14.272 -0.7086  0.0588  1.7726
  145DOPC  H13B17179   3.692   6.543  14.354 -0.2254  3.7517  0.2882
  145DOPC  H13C17180   3.790   6.455  14.234  0.4276 -0.2383  1.5024
  145DOPC   C1417181   3.535   6.480  14.149 -0.3875 -0.0548 -0.1170
  145DOPC  H14A17182   3.569   6.377  14.147  1.3160  0.4638 -2.3086
  145DOPC  H14B17183   3.466   6.492  14.231  0.3008  2.0216  0.2129
  145DOPC  H14C17184   3.482   6.508  14.059  0.0326  1.5205  0.0902
  145DOPC   C1517185   3.587   6.715  14.178 -0.6136  0.4938 -0.7065
  145DOPC  H15A17186   3.663   6.792  14.178 -0.3756  0.2663 -1.4444
  145DOPC  H15B17187   3.545   6.718  14.278 -1.7063  0.4737 -1.1445
  145DOPC  H15C17188   3.503   6.736  14.113 -2.0106 -0.5291  0.6882
  145DOPC   C1117189   3.786   6.467  13.975 -0.3761 -0.0181 -0.3618
  145DOPC  H11A17190   3.737   6.369  13.992  0.0592 -0.7072 -2.7267
  145DOPC  H11B17191   3.797   6.471  13.865 -1.2992  0.2377 -0.4573
  145DOPC     P17192   4.056   6.474  13.981 -0.1422  0.2938  0.4911
  145DOPC   O1317193   4.156   6.413  14.071 -0.1352  0.3898  0.2772
  145DOPC   O1417194   4.086   6.615  13.946  0.1773  0.4510 -0.0827
  145DOPC   O1217195   3.912   6.462  14.049  0.1896 -0.0770  0.0758
  145DOPC   O1117196   4.046   6.391  13.849 -0.2900  0.4941 -0.2703
  145DOPC    C117197   4.040   6.248  13.847 -0.7725 -0.5395  0.8965
  145DOPC    HA17198   3.962   6.211  13.918  1.1956 -2.4619  2.1916
  145DOPC    HB17199   4.140   6.214  13.883  0.3149  0.0938 -1.3847
  145DOPC    C217200   4.031   6.191  13.703 -0.4939 -0.8006 -0.2928
  145DOPC    HS17201   4.124   6.210  13.645 -0.0540 -1.1038  0.3057
  145DOPC   O2117202   3.915   6.250  13.639 -0.3791  0.3090 -0.0566
  145DOPC   C2117203   3.924   6.278  13.512  1.1897 -0.2530 -0.1813
  145DOPC   O2217204   4.026   6.265  13.446 -0.1391 -0.0563 -0.6232
  145DOPC   C2217205   3.787   6.328  13.450  0.1156  0.2346  0.0998
  145DOPC   H2R17206   3.778   6.437  13.466 -1.3478  0.1343  0.1439
  145DOPC   H2S17207   3.707   6.295  13.521 -0.3022  3.0174  1.0556
  145DOPC    C317208   4.020   6.034  13.698 -0.1417  0.1266 -0.1497
  145DOPC    HX17209   3.928   6.014  13.757 -0.4800  0.9437 -0.3740
  145DOPC    HY17210   4.116   6.005  13.743  0.6807  2.1295 -0.4846
  145DOPC   O3117211   4.003   5.982  13.563  0.4756 -0.0402 -0.4346
  145DOPC   C3117212   4.111   5.973  13.495 -0.6237 -0.2345  0.1419
  145DOPC   O3217213   4.222   6.007  13.541 -0.0873  0.5513 -0.0480
  145DOPC   C3217214   4.087   5.903  13.364  0.5895  0.2279 -0.1181
  145DOPC   H2X17215   4.178   5.913  13.301 -0.3101 -1.0104 -1.6942
  145DOPC   H2Y17216   4.069   5.794  13.379  1.5498  0.2030  1.0096
  145DOPC   C2317217   3.772   6.291  13.308  0.2349 -0.4214 -0.7336
  145DOPC   H3R17218   3.794   6.182  13.305  1.4631 -0.2081 -0.0195
  145DOPC   H3S17219   3.840   6.351  13.243 -1.4400  1.5475 -0.7899
  145DOPC   C2417220   3.627   6.294  13.257 -0.1893  0.2865  0.4985
  145DOPC   H4R17221   3.585   6.397  13.258  0.9025  0.7401  0.9270
  145DOPC   H4S17222   3.566   6.232  13.326 -2.2206 -0.5725 -1.9045
  145DOPC   C2517223   3.613   6.246  13.110 -0.2886  0.1755 -0.2545
  145DOPC   H5R17224   3.650   6.142  13.103 -0.1966  0.2588 -1.1257
  145DOPC   H5S17225   3.672   6.299  13.032  0.4104 -0.0186  0.1365
  145DOPC   C2617226   3.468   6.254  13.075 -1.3717  0.2541  0.3489
  145DOPC   H6R17227   3.449   6.362  13.056 -0.2249  0.4575  0.3245
  145DOPC   H6S17228   3.402   6.231  13.162 -0.9087  1.3151  0.9981
  145DOPC   C2717229   3.422   6.180  12.945 -0.9064 -0.4958  0.6647
  145DOPC   H7R17230   3.311   6.186  12.941 -0.9179  0.7684  2.0503
  145DOPC   H7S17231   3.446   6.071  12.953 -0.5832 -0.5985 -1.2708
  145DOPC   C2817232   3.497   6.214  12.811 -0.0860 -0.0222  0.6059
  145DOPC   H8R17233   3.607   6.207  12.824  0.3103 -1.2107 -2.3769
  145DOPC   H8S17234   3.465   6.318  12.787  0.5924  0.5957  2.2186
  145DOPC   C2917235   3.464   6.120  12.702  0.4925  0.6020 -0.2237
  145DOPC   H9R17236   3.467   6.010  12.705 -0.9044  0.4613 -1.9716
  145DOPC  C21017237   3.405   6.165  12.589 -0.5534  0.3552 -0.4703
  145DOPC  H10R17238   3.393   6.093  12.507 -1.5622  1.1456 -1.0438
  145DOPC  C21117239   3.384   6.304  12.551 -0.3193 -0.1607  0.3031
  145DOPC  H11R17240   3.482   6.355  12.553  0.6319 -1.6968 -2.2951
  145DOPC  H11S17241   3.309   6.347  12.620  0.6226 -0.0656  1.2897
  145DOPC  C21217242   3.327   6.322  12.412 -0.1102  0.4952 -0.0594
  145DOPC  H12R17243   3.290   6.423  12.385 -1.6082  0.1541  0.6523
  145DOPC  H12S17244   3.240   6.256  12.393 -0.3576  1.4639 -2.7797
  145DOPC  C21317245   3.426   6.281  12.306  0.3701 -0.5291  0.1519
  145DOPC  H13R17246   3.461   6.178  12.327  0.4362 -0.2575  1.4656
  145DOPC  H13S17247   3.523   6.336  12.308  0.4295 -0.4466 -2.1468
  145DOPC  C21417248   3.376   6.292  12.160 -0.0086  0.0540 -0.7466
  145DOPC  H14R17249   3.330   6.391  12.139 -0.5978 -0.1904 -0.6107
  145DOPC  H14S17250   3.296   6.219  12.137 -0.1830  0.8273 -2.7160
  145DOPC  C21517251   3.488   6.264  12.059 -1.2690  0.6280  0.4661
  145DOPC  H15R17252   3.513   6.156  12.051  3.3510  1.5662 -0.5186
  145DOPC  H15S17253   3.587   6.301  12.092 -0.4248  0.6184 -1.8652
  145DOPC  C21617254   3.448   6.315  11.918 -0.2494 -0.3230 -0.1457
  145DOPC  H16R17255   3.438   6.426  11.926 -2.1898 -0.6081  3.5178
  145DOPC  H16S17256   3.349   6.269  11.900 -0.3734  0.5491 -1.8792
  145DOPC  C21717257   3.548   6.265  11.808 -0.2064 -0.3781 -0.7570
  145DOPC  H17R17258   3.654   6.282  11.836 -0.6084  0.6584  0.2250
  145DOPC  H17S17259   3.536   6.318  11.711 -0.0907 -0.6664 -0.9330
  145DOPC  C21817260   3.528   6.121  11.764  0.1112  0.5080 -0.0670
  145DOPC  H18R17261   3.537   6.046  11.846 -2.0782 -0.3400 -0.5466
  145DOPC  H18S17262   3.603   6.087  11.690 -0.9370 -3.0193  0.2911
  145DOPC  H18T17263   3.437   6.105  11.704  0.3755  0.6972 -0.5218
  145DOPC   C3317264   3.985   5.974  13.273 -0.0653 -0.2448  0.7792
  145DOPC   H3X17265   4.007   6.083  13.264 -1.0304 -0.0035  1.1565
  145DOPC   H3Y17266   3.884   5.966  13.318 -1.0473  0.0217 -1.2334
  145DOPC   C3417267   3.983   5.917  13.127  0.3185  0.1761  0.7888
  145DOPC   H4X17268   3.942   5.814  13.129  0.3568  0.0993 -0.9405
  145DOPC   H4Y17269   4.088   5.906  13.092 -0.3213 -1.1203 -0.8660
  145DOPC   C3517270   3.907   6.019  13.043 -0.4117 -0.0826  0.5470
  145DOPC   H5X17271   3.916   6.122  13.084  1.5659  1.3666 -3.0716
  145DOPC   H5Y17272   3.800   5.988  13.039 -0.8656  1.1288  2.2335
  145DOPC   C3617273   3.955   6.026  12.899 -0.8346  0.2237  0.1185
  145DOPC   H6X17274   4.056   6.065  12.874  0.0406 -2.9685 -1.9763
  145DOPC   H6Y17275   3.958   5.920  12.865 -0.5278 -0.1077  1.1334
  145DOPC   C3717276   3.848   6.096  12.815 -0.9948  0.6183 -0.4157
  145DOPC   H7X17277   3.747   6.065  12.850 -0.9080  0.1533 -0.5702
  145DOPC   H7Y17278   3.855   6.201  12.850  0.8804  0.1814  0.6691
  145DOPC   C3817279   3.860   6.072  12.668  0.1054  0.1221 -0.1932
  145DOPC   H8X17280   3.805   5.981  12.636 -2.2274  1.0981  0.8577
  145DOPC   H8Y17281   3.964   6.064  12.630  0.0924 -2.7555  0.1533
  145DOPC   C3917282   3.783   6.179  12.597  0.4767  0.3175  0.6956
  145DOPC   H9X17283   3.752   6.264  12.660 -0.8581  0.6777 -0.4142
  145DOPC  C31017284   3.787   6.203  12.467  0.0807  0.1655  0.3524
  145DOPC  H10X17285   3.731   6.289  12.428 -0.8162 -0.7425 -0.4118
  145DOPC  C31117286   3.849   6.122  12.356 -1.0771 -0.2775 -0.4704
  145DOPC  H11X17287   3.876   6.019  12.385  1.8843  0.5813  0.2642
  145DOPC  H11Y17288   3.946   6.173  12.335 -1.2238  0.2406  0.0583
  145DOPC  C31217289   3.771   6.107  12.224 -0.4572 -0.3210 -0.1009
  145DOPC  H12X17290   3.734   6.203  12.184 -0.0675  0.2452  0.8598
  145DOPC  H12Y17291   3.678   6.048  12.239 -1.0052  0.8435  1.2162
  145DOPC  C31317292   3.861   6.031  12.127 -0.0341 -0.1953  0.0308
  145DOPC  H13X17293   3.896   5.942  12.185 -1.7415 -0.3051  0.9509
  145DOPC  H13Y17294   3.792   5.983  12.055 -3.8916  1.1273  2.5175
  145DOPC  C31417295   3.983   6.094  12.064 -0.5128  0.1000  0.4994
  145DOPC  H14X17296   3.959   6.194  12.023  1.9300  0.1822 -0.9581
  145DOPC  H14Y17297   4.053   6.098  12.151 -0.3055 -4.0647  0.7451
  145DOPC  C31517298   4.041   6.007  11.940 -0.4727 -0.1399 -0.5544
  145DOPC  H15X17299   3.951   5.996  11.876 -0.7842  1.8461 -0.5390
  145DOPC  H15Y17300   4.065   5.907  11.982  0.6676  0.7146  0.9022
  145DOPC  C31617301   4.167   6.078  11.887  0.8790  0.8865  0.3923
  145DOPC  H16X17302   4.131   6.169  11.835  1.7861  0.2395 -1.4741
  145DOPC  H16Y17303   4.235   6.095  11.973  0.2073 -0.2127  1.1648
  145DOPC  C31717304   4.245   5.996  11.784 -0.1262 -0.0893 -0.0583
  145DOPC  H17X17305   4.342   6.045  11.759 -1.0479  0.3964 -3.0684
  145DOPC  H17Y17306   4.278   5.896  11.821  1.1884 -1.0124 -3.3464
  145DOPC  C31817307   4.170   5.962  11.654  0.4718 -0.2770  0.0695
  145DOPC  H18X17308   4.082   5.898  11.675  1.8209 -1.4595  2.4854
  145DOPC  H18Y17309   4.136   6.059  11.613  0.2187 -0.8648 -1.1649
  145DOPC  H18Z17310   4.227   5.919  11.569 -0.3299 -1.1700 -0.0314
  146DOPC     N17311   6.165   3.580  13.451 -0.2061 -0.1126 -0.3928
  146DOPC   C1217312   6.156   3.570  13.596 -0.0794  0.1802 -0.1891
  146DOPC  H12A17313   6.255   3.545  13.632 -0.4524  0.7940  1.3370
  146DOPC  H12B17314   6.099   3.482  13.621  0.6786 -0.2134  0.1999
  146DOPC   C1317315   6.029   3.623  13.391  0.4905 -0.4605  0.1747
  146DOPC  H13A17316   6.003   3.722  13.426 -0.0217 -0.0159 -1.3857
  146DOPC  H13B17317   6.027   3.613  13.283  1.1102 -0.3929  0.1530
  146DOPC  H13C17318   5.949   3.555  13.418 -0.3625 -0.2731 -1.7060
  146DOPC   C1417319   6.191   3.452  13.381 -0.3881  0.0972  0.3025
  146DOPC  H14A17320   6.113   3.387  13.416 -0.0656  0.4173  1.6925
  146DOPC  H14B17321   6.164   3.471  13.278 -0.0227 -3.2939 -0.5571
  146DOPC  H14C17322   6.292   3.416  13.396 -1.2393 -1.6626  2.2852
  146DOPC   C1517323   6.276   3.673  13.413 -0.1998 -0.2601 -0.3878
  146DOPC  H15A17324   6.269   3.703  13.310  0.8686 -0.4568 -0.5338
  146DOPC  H15B17325   6.373   3.628  13.429 -0.1991  0.2281  1.1242
  146DOPC  H15C17326   6.262   3.764  13.469 -2.1416 -0.8790  0.2275
  146DOPC   C1117327   6.102   3.691  13.679  0.0015 -0.0397 -0.6974
  146DOPC  H11A17328   6.157   3.673  13.774  0.4335  0.2275 -0.8934
  146DOPC  H11B17329   6.141   3.783  13.630 -2.2223  1.1759 -0.3224
  146DOPC     P17330   5.887   3.776  13.802 -0.3394 -0.0675  0.0336
  146DOPC   O1317331   5.953   3.907  13.812  0.0957  0.4905  0.0510
  146DOPC   O1417332   5.885   3.688  13.926 -0.6661 -0.6746  0.9181
  146DOPC   O1217333   5.962   3.697  13.691 -0.5119  0.1568  0.0887
  146DOPC   O1117334   5.738   3.798  13.750  0.1480 -0.0936  0.2509
  146DOPC    C117335   5.670   3.694  13.686 -0.3633  0.4051  0.1659
  146DOPC    HA17336   5.564   3.724  13.701 -0.3896 -0.1838  1.2063
  146DOPC    HB17337   5.686   3.596  13.735  1.7074  0.1389 -0.9179
  146DOPC    C217338   5.672   3.704  13.531 -0.1205 -0.5052  0.4654
  146DOPC    HS17339   5.773   3.674  13.496 -0.5986 -0.9400 -0.5768
  146DOPC   O2117340   5.639   3.834  13.487  0.2717 -0.4586  0.3223
  146DOPC   C2117341   5.701   3.886  13.388 -0.5560 -0.6142 -0.4850
  146DOPC   O2217342   5.789   3.833  13.324 -0.3246  0.1051 -0.6658
  146DOPC   C2217343   5.648   4.016  13.355 -0.6759 -0.6702 -0.2010
  146DOPC   H2R17344   5.713   4.096  13.397 -2.9869  0.7633  0.8217
  146DOPC   H2S17345   5.546   4.028  13.398 -0.7376 -1.1933 -0.1927
  146DOPC    C317346   5.570   3.600  13.479  0.2391 -0.0794 -0.2501
  146DOPC    HX17347   5.471   3.629  13.521 -1.5098 -2.2141 -2.6311
  146DOPC    HY17348   5.600   3.502  13.522  0.1642 -0.2318 -0.5415
  146DOPC   O3117349   5.564   3.594  13.335 -0.4270 -0.2387  0.6848
  146DOPC   C3117350   5.666   3.539  13.271 -0.0509 -0.6244  0.4030
  146DOPC   O3217351   5.761   3.479  13.323  1.2319 -0.3254  0.8111
  146DOPC   C3217352   5.648   3.546  13.118  0.3095  0.0869 -0.2235
  146DOPC   H2X17353   5.749   3.571  13.079  0.2530 -0.4780 -0.7489
  146DOPC   H2Y17354   5.612   3.449  13.078  0.3760  0.2872 -0.7791
  146DOPC   C2317355   5.631   4.041  13.203 -0.0105  0.4633 -0.2608
  146DOPC   H3R17356   5.583   4.140  13.193  0.1508  0.6236  0.5160
  146DOPC   H3S17357   5.563   3.967  13.155  0.6881 -2.3719  2.7464
  146DOPC   C2417358   5.754   4.051  13.119  0.1951 -0.0161 -0.0547
  146DOPC   H4R17359   5.813   3.956  13.118  0.8210  0.3142  1.7688
  146DOPC   H4S17360   5.822   4.131  13.156 -1.5030  0.3712  2.4605
  146DOPC   C2517361   5.733   4.090  12.971  0.5852 -0.0129  0.1739
  146DOPC   H5R17362   5.825   4.134  12.927  1.6018 -2.3354 -0.1674
  146DOPC   H5S17363   5.657   4.171  12.971  0.1846 -0.3520 -1.4764
  146DOPC   C2617364   5.685   3.983  12.878 -0.6073  0.2037 -0.2695
  146DOPC   H6R17365   5.582   3.957  12.912 -0.1930 -0.1507  0.7694
  146DOPC   H6S17366   5.739   3.887  12.891 -0.9554  0.2180  1.5020
  146DOPC   C2717367   5.691   4.025  12.737  0.5693 -0.4375 -0.3876
  146DOPC   H7R17368   5.796   4.059  12.726  0.0003  1.6817  0.3961
  146DOPC   H7S17369   5.616   4.106  12.728  0.0962 -1.0404 -2.3929
  146DOPC   C2817370   5.677   3.905  12.633 -0.4213  0.4402 -0.3094
  146DOPC   H8R17371   5.718   3.806  12.663 -1.5782 -0.6022 -2.0208
  146DOPC   H8S17372   5.736   3.929  12.542  1.0431  0.3652  0.5868
  146DOPC   C2917373   5.528   3.886  12.620  0.9392  0.2328  0.1900
  146DOPC   H9R17374   5.473   3.946  12.694  2.2493  1.3863  0.2798
  146DOPC  C21017375   5.468   3.827  12.517  1.0231 -0.7134  0.0425
  146DOPC  H10R17376   5.358   3.821  12.515  0.7917  2.1496  0.5656
  146DOPC  C21117377   5.543   3.764  12.406  0.5586  0.1951  0.4248
  146DOPC  H11R17378   5.496   3.668  12.376  0.8662 -0.7840  2.8442
  146DOPC  H11S17379   5.640   3.729  12.446  0.2252 -1.2036  0.0601
  146DOPC  C21217380   5.553   3.869  12.293 -0.4127 -0.3662 -0.4032
  146DOPC  H12R17381   5.611   3.958  12.326 -0.6453  0.3817 -1.9532
  146DOPC  H12S17382   5.451   3.903  12.265 -0.9918 -1.3505  0.4364
  146DOPC  C21317383   5.610   3.805  12.161  0.1112  0.6171 -0.1207
  146DOPC  H13R17384   5.550   3.714  12.143  0.4518  0.4810 -0.5699
  146DOPC  H13S17385   5.712   3.766  12.177  0.4034  1.0247 -0.9356
  146DOPC  C21417386   5.608   3.888  12.032 -0.2890 -0.0729  0.4465
  146DOPC  H14R17387   5.670   3.973  12.068 -0.8170  0.3711  0.3195
  146DOPC  H14S17388   5.505   3.927  12.018  0.5974  2.2833 -0.0082
  146DOPC  C21517389   5.670   3.817  11.903 -0.0366  0.4512  0.3119
  146DOPC  H15R17390   5.591   3.752  11.860 -0.2691  0.0474  1.3335
  146DOPC  H15S17391   5.756   3.757  11.939 -3.0853 -2.1461  4.0455
  146DOPC  C21617392   5.699   3.919  11.794 -1.3317  0.3889 -0.8832
  146DOPC  H16R17393   5.772   3.991  11.835 -0.1564 -1.2275 -0.0170
  146DOPC  H16S17394   5.602   3.963  11.764 -1.1747  0.5517 -1.1509
  146DOPC  C21717395   5.756   3.868  11.655  0.1991 -0.0838 -0.9278
  146DOPC  H17R17396   5.670   3.811  11.614 -2.0584  0.8706  2.1034
  146DOPC  H17S17397   5.825   3.782  11.671  0.2720  0.0567 -0.4961
  146DOPC  C21817398   5.810   3.964  11.555 -0.3268  0.1906  0.4189
  146DOPC  H18R17399   5.874   3.920  11.475 -2.2066 -1.2259 -0.3751
  146DOPC  H18S17400   5.870   4.038  11.613  1.2553  0.0724 -0.9820
  146DOPC  H18T17401   5.740   4.027  11.496  0.8982  0.5039 -0.7404
  146DOPC   C3317402   5.546   3.655  13.058 -0.3335  0.0809  0.2126
  146DOPC   H3X17403   5.558   3.760  13.093 -1.8060 -0.1927  1.6971
  146DOPC   H3Y17404   5.441   3.636  13.090 -0.7234  1.1430 -0.4038
  146DOPC   C3417405   5.544   3.654  12.905 -0.4171 -0.0080 -0.7216
  146DOPC   H4X17406   5.635   3.701  12.862  2.1574 -2.2475  1.8567
  146DOPC   H4Y17407   5.470   3.730  12.871 -0.0102  0.6297 -0.2233
  146DOPC   C3517408   5.529   3.511  12.845 -0.1631 -0.4011 -0.0718
  146DOPC   H5X17409   5.446   3.454  12.893 -1.6194  1.8027  0.1903
  146DOPC   H5Y17410   5.621   3.453  12.866 -0.9381 -1.9964 -0.9676
  146DOPC   C3617411   5.503   3.519  12.694  0.4699 -0.7501 -0.1448
  146DOPC   H6X17412   5.396   3.540  12.671  0.5324  0.4642  0.5884
  146DOPC   H6Y17413   5.576   3.588  12.645  1.4642 -2.1109 -0.6528
  146DOPC   C3717414   5.532   3.378  12.631 -0.3803 -0.2778 -0.0261
  146DOPC   H7X17415   5.635   3.350  12.663  0.2097  0.0845 -1.5323
  146DOPC   H7Y17416   5.467   3.299  12.674  1.7809 -1.8129  0.6204
  146DOPC   C3817417   5.546   3.365  12.475 -0.1658 -0.0576  0.1665
  146DOPC   H8X17418   5.578   3.264  12.444 -0.2513  0.3676 -1.3691
  146DOPC   H8Y17419   5.616   3.446  12.443 -0.0672 -0.0356  0.4311
  146DOPC   C3917420   5.410   3.397  12.422  0.5175 -0.1400  0.2997
  146DOPC   H9X17421   5.363   3.485  12.469 -1.3286 -1.1735  0.4611
  146DOPC  C31017422   5.335   3.335  12.325 -0.3251  0.2417 -0.0604
  146DOPC  H10X17423   5.240   3.383  12.297  0.7790 -0.0752 -5.3625
  146DOPC  C31117424   5.376   3.220  12.237 -0.6598 -0.0569 -0.5611
  146DOPC  H11X17425   5.329   3.120  12.251 -0.5617  0.2123  2.2364
  146DOPC  H11Y17426   5.484   3.201  12.255 -0.4054  1.3543 -0.4889
  146DOPC  C31217427   5.363   3.260  12.085 -0.3622 -0.8385 -0.4911
  146DOPC  H12X17428   5.280   3.331  12.068 -2.1733 -3.0032 -1.2502
  146DOPC  H12Y17429   5.326   3.172  12.027  0.2720 -0.7146 -1.0932
  146DOPC  C31317430   5.494   3.312  12.013  0.7532  0.0513  0.4111
  146DOPC  H13X17431   5.515   3.416  12.046 -0.6946  0.6273 -0.4342
  146DOPC  H13Y17432   5.586   3.252  12.032  1.5805  0.5803 -1.6169
  146DOPC  C31417433   5.482   3.307  11.860 -0.4434 -0.3078  0.2971
  146DOPC  H14X17434   5.475   3.202  11.823  0.1582  0.3849 -1.9439
  146DOPC  H14Y17435   5.404   3.373  11.818 -1.0052 -2.2389 -1.9251
  146DOPC  C31517436   5.611   3.370  11.801 -0.4416 -0.2770  0.4753
  146DOPC  H15X17437   5.696   3.298  11.804  0.5937  0.6973 -2.3709
  146DOPC  H15Y17438   5.632   3.462  11.858 -0.8802 -1.7428  3.1762
  146DOPC  C31617439   5.588   3.396  11.658 -0.4237 -0.1096  0.2704
  146DOPC  H16X17440   5.487   3.434  11.630  0.3398  1.4602 -0.4605
  146DOPC  H16Y17441   5.664   3.473  11.632 -0.3320  0.0104  0.8812
  146DOPC  C31717442   5.618   3.268  11.572 -1.7362  0.1028  0.1769
  146DOPC  H17X17443   5.717   3.223  11.597  0.7365  4.5009 -0.5449
  146DOPC  H17Y17444   5.542   3.197  11.610 -1.9102 -0.2604 -0.8418
  146DOPC  C31817445   5.614   3.269  11.422 -0.5282 -0.0255  0.1159
  146DOPC  H18X17446   5.517   3.316  11.395 -1.7194 -2.0711  0.6718
  146DOPC  H18Y17447   5.694   3.339  11.389 -0.3895  0.7503  1.9738
  146DOPC  H18Z17448   5.619   3.164  11.386 -1.1388 -0.2765  0.7570
  147DOPC     N17449   4.287   3.206  13.454 -0.6093 -0.3543  0.1958
  147DOPC   C1217450   4.340   3.320  13.543  0.2525  1.0537 -0.3097
  147DOPC  H12A17451   4.283   3.405  13.511 -2.8029 -1.6132 -2.6066
  147DOPC  H12B17452   4.446   3.336  13.529  0.5859 -0.7917 -0.1719
  147DOPC   C1317453   4.327   3.240  13.312 -0.1875 -0.1864 -0.3032
  147DOPC  H13A17454   4.431   3.268  13.305 -0.5956  2.1908  1.6322
  147DOPC  H13B17455   4.311   3.157  13.244 -1.6320 -0.8426  0.7855
  147DOPC  H13C17456   4.272   3.327  13.279 -0.9410 -1.3148 -2.2057
  147DOPC   C1417457   4.140   3.186  13.470  0.0335 -0.1659 -0.5423
  147DOPC  H14A17458   4.110   3.117  13.392 -0.1291  1.2794 -1.8122
  147DOPC  H14B17459   4.114   3.142  13.565 -0.4681  0.5124 -0.3625
  147DOPC  H14C17460   4.080   3.275  13.462  0.4630  0.2037  0.2120
  147DOPC   C1517461   4.364   3.083  13.481 -0.1609 -0.2062  0.1718
  147DOPC  H15A17462   4.470   3.097  13.466 -0.6121  2.1428 -1.3046
  147DOPC  H15B17463   4.320   3.010  13.416 -1.9734  0.1804  0.9075
  147DOPC  H15C17464   4.354   3.040  13.580 -0.9493  0.9650  0.6214
  147DOPC   C1117465   4.330   3.309  13.693  0.3046  0.0842  0.0697
  147DOPC  H11A17466   4.365   3.208  13.721  1.0297  0.3479  0.1350
  147DOPC  H11B17467   4.389   3.384  13.750 -2.4468  0.4158  2.7527
  147DOPC     P17468   4.122   3.464  13.744  0.0735 -0.2018 -0.2479
  147DOPC   O1317469   4.124   3.513  13.881 -0.3192 -0.0564  0.2282
  147DOPC   O1417470   3.984   3.458  13.685 -0.3024  0.2046  0.1340
  147DOPC   O1217471   4.189   3.320  13.735  0.1710 -0.0778 -0.1425
  147DOPC   O1117472   4.226   3.545  13.652 -0.0058 -0.2313  0.2784
  147DOPC    C117473   4.178   3.666  13.590 -0.2550  0.6949 -0.2809
  147DOPC    HA17474   4.244   3.752  13.613  2.1437 -0.6428 -1.7550
  147DOPC    HB17475   4.077   3.694  13.627 -0.8701 -1.1832 -0.4115
  147DOPC    C217476   4.179   3.658  13.440 -0.2296  0.2096  0.6104
  147DOPC    HS17477   4.146   3.758  13.403  2.6139 -0.0429 -3.2633
  147DOPC   O2117478   4.088   3.553  13.400  0.2207  0.9256  0.1027
  147DOPC   C2117479   3.957   3.574  13.401  0.6399 -0.3608 -0.0662
  147DOPC   O2217480   3.901   3.678  13.434  0.0236 -0.1691 -0.0026
  147DOPC   C2217481   3.892   3.455  13.339  0.2437  0.5009 -0.2452
  147DOPC   H2R17482   3.810   3.421  13.405  1.4153 -1.4728  0.2735
  147DOPC   H2S17483   3.969   3.375  13.333  1.3961  1.5496  0.0821
  147DOPC    C317484   4.321   3.642  13.370 -0.3294 -0.3133  0.2583
  147DOPC    HX17485   4.353   3.535  13.373 -2.1725 -0.8797  1.0677
  147DOPC    HY17486   4.399   3.700  13.423 -0.2067 -1.0915  0.9629
  147DOPC   O3117487   4.322   3.684  13.230  0.0955  0.0523 -0.0018
  147DOPC   C3117488   4.262   3.610  13.136 -0.1884  0.6355  0.0863
  147DOPC   O3217489   4.220   3.497  13.162  0.1187 -0.2652 -0.2056
  147DOPC   C3217490   4.253   3.679  13.004  0.7376 -0.1930 -0.4155
  147DOPC   H2X17491   4.220   3.785  13.010  0.1101 -0.2425 -2.2614
  147DOPC   H2Y17492   4.359   3.685  12.970  0.5227  0.7660 -0.9608
  147DOPC   C2317493   3.837   3.470  13.192  0.0822  0.1108  0.3784
  147DOPC   H3R17494   3.924   3.500  13.129 -0.1625  1.8074  0.7913
  147DOPC   H3S17495   3.760   3.550  13.191 -0.1326 -0.0966 -0.6786
  147DOPC   C2417496   3.760   3.343  13.153  0.0269 -0.6056 -0.3912
  147DOPC   H4R17497   3.688   3.319  13.234  0.9448 -1.2597  0.2525
  147DOPC   H4S17498   3.834   3.260  13.142  1.0647 -0.1508  2.3116
  147DOPC   C2517499   3.683   3.354  13.028  0.6217  0.5621  0.0909
  147DOPC   H5R17500   3.619   3.445  13.020  0.7642  0.6113 -0.4841
  147DOPC   H5S17501   3.613   3.269  13.014 -0.4698  1.4013  0.3074
  147DOPC   C2617502   3.780   3.360  12.913  0.4896 -0.6961  0.3035
  147DOPC   H6R17503   3.849   3.276  12.930  1.5102  0.3666  1.5969
  147DOPC   H6S17504   3.832   3.457  12.927 -1.9589  0.9734 -1.3000
  147DOPC   C2717505   3.715   3.357  12.771 -0.0934 -0.3513 -0.4570
  147DOPC   H7R17506   3.669   3.457  12.752  0.2410 -0.2493 -0.7463
  147DOPC   H7S17507   3.641   3.275  12.763  1.5065 -1.7206 -2.1613
  147DOPC   C2817508   3.814   3.322  12.656 -0.9471 -0.8098 -0.1195
  147DOPC   H8R17509   3.762   3.330  12.558  0.6480  0.5596 -0.9142
  147DOPC   H8S17510   3.848   3.216  12.666 -0.3499 -0.5203  1.2002
  147DOPC   C2917511   3.932   3.414  12.640 -0.1474  0.5958 -0.4469
  147DOPC   H9R17512   4.005   3.413  12.722 -2.2600  0.8014  1.5539
  147DOPC  C21017513   3.967   3.480  12.528  0.5219 -0.3998  0.3593
  147DOPC  H10R17514   4.058   3.541  12.531  1.6794 -1.9689 -1.0877
  147DOPC  C21117515   3.885   3.488  12.399  1.1990 -0.9788 -0.2148
  147DOPC  H11R17516   3.902   3.585  12.348  1.9371 -0.1182  1.5908
  147DOPC  H11S17517   3.777   3.473  12.417  0.6685 -1.0079 -2.9856
  147DOPC  C21217518   3.938   3.398  12.292 -0.8864  0.3933 -0.0256
  147DOPC  H12R17519   3.934   3.290  12.320  0.7579  0.4369  0.5098
  147DOPC  H12S17520   4.047   3.418  12.284 -0.5401 -0.3075  2.0349
  147DOPC  C21317521   3.871   3.423  12.155 -0.4332  1.0478 -0.3427
  147DOPC  H13R17522   3.872   3.530  12.127 -1.0173  1.7480  2.1095
  147DOPC  H13S17523   3.768   3.383  12.162  0.6258 -2.0998 -0.8121
  147DOPC  C21417524   3.942   3.349  12.041 -0.0169  0.3712 -0.7389
  147DOPC  H14R17525   3.970   3.250  12.081  2.5374  2.0121  1.9339
  147DOPC  H14S17526   4.041   3.397  12.032  0.1667  0.2983  0.6522
  147DOPC  C21517527   3.859   3.356  11.910 -0.3049  0.3311 -0.2732
  147DOPC  H15R17528   3.856   3.463  11.879  1.0332  0.4687  0.0170
  147DOPC  H15S17529   3.766   3.311  11.951  0.4299  0.7111  1.9625
  147DOPC  C21617530   3.929   3.270  11.795  0.4294  0.4577 -0.7502
  147DOPC  H16R17531   3.937   3.163  11.824  0.4368  1.0321  1.6259
  147DOPC  H16S17532   4.031   3.310  11.779  0.8906 -0.3327  0.0933
  147DOPC  C21717533   3.858   3.274  11.661  0.4998  0.0285 -0.1338
  147DOPC  H17R17534   3.752   3.244  11.676  0.7684  0.0207  1.9722
  147DOPC  H17S17535   3.894   3.192  11.595  0.4156  0.5087 -0.7834
  147DOPC  C21817536   3.861   3.408  11.589  0.0528  0.0780  0.0981
  147DOPC  H18R17537   3.802   3.403  11.495  0.6227  1.2313 -0.3412
  147DOPC  H18S17538   3.964   3.443  11.565  0.1352 -0.9023 -1.0366
  147DOPC  H18T17539   3.814   3.490  11.647 -0.1488  1.2703 -1.6732
  147DOPC   C3317540   4.152   3.610  12.910  0.4290 -0.8579 -0.5109
  147DOPC   H3X17541   4.061   3.580  12.966  0.4314 -1.5322 -0.8544
  147DOPC   H3Y17542   4.188   3.511  12.873  1.9585 -1.5350  2.4588
  147DOPC   C3417543   4.114   3.708  12.795 -0.6723 -0.0328 -0.1055
  147DOPC   H4X17544   4.069   3.801  12.837  0.0969  0.3826 -0.1772
  147DOPC   H4Y17545   4.027   3.665  12.742 -2.0447  0.8371  1.3303
  147DOPC   C3517546   4.219   3.732  12.689 -0.2387  0.1822 -0.2077
  147DOPC   H5X17547   4.240   3.637  12.635  2.7026  0.4959  0.1756
  147DOPC   H5Y17548   4.309   3.783  12.731 -1.3189  0.7051  1.5525
  147DOPC   C3617549   4.164   3.831  12.591  0.1656 -0.0890 -1.0145
  147DOPC   H6X17550   4.073   3.780  12.551 -0.0746 -0.4366 -0.0403
  147DOPC   H6Y17551   4.136   3.933  12.622  0.1025  0.3752 -2.4949
  147DOPC   C3717552   4.263   3.861  12.480  0.0608  0.0394 -0.9671
  147DOPC   H7X17553   4.337   3.935  12.516  1.0174 -0.7912 -1.2053
  147DOPC   H7Y17554   4.322   3.769  12.463 -0.1648 -0.3435  0.2395
  147DOPC   C3817555   4.189   3.901  12.348 -0.3947 -0.0301  0.1379
  147DOPC   H8X17556   4.261   3.953  12.281  0.6755 -0.5385  0.8863
  147DOPC   H8Y17557   4.108   3.970  12.382  0.8896  1.4032  0.4102
  147DOPC   C3917558   4.135   3.776  12.283 -0.5264  0.1096  1.0818
  147DOPC   H9X17559   4.112   3.692  12.350  0.2691 -0.1580  1.0338
  147DOPC  C31017560   4.102   3.767  12.154  0.1763 -1.0412  0.6522
  147DOPC  H10X17561   4.070   3.670  12.111  0.2376 -0.3669 -0.9701
  147DOPC  C31117562   4.125   3.874  12.049  0.1558  0.8625 -0.7566
  147DOPC  H11X17563   4.169   3.970  12.083  1.4647  0.9292 -2.4971
  147DOPC  H11Y17564   4.026   3.892  12.002 -0.1830  1.7042  0.2346
  147DOPC  C31217565   4.233   3.824  11.950  0.5595  1.0621  0.3914
  147DOPC  H12X17566   4.201   3.720  11.927 -0.0349  1.3660 -0.1854
  147DOPC  H12Y17567   4.321   3.813  12.017  0.2689  2.8971  1.1450
  147DOPC  C31317568   4.255   3.910  11.821 -0.7840  0.6686  0.1081
  147DOPC  H13X17569   4.150   3.913  11.785 -0.2001 -1.4730 -2.0315
  147DOPC  H13Y17570   4.293   4.011  11.845 -0.4759  0.8243 -1.0013
  147DOPC  C31417571   4.342   3.840  11.715  0.1698 -0.2594 -0.2909
  147DOPC  H14X17572   4.441   3.807  11.752  0.6155 -1.1238 -2.1309
  147DOPC  H14Y17573   4.288   3.752  11.673  0.2323  0.2762 -1.5629
  147DOPC  C31517574   4.370   3.938  11.608 -0.4722  0.3112  0.2906
  147DOPC  H15X17575   4.460   3.996  11.635 -1.1727  0.2287  3.0406
  147DOPC  H15Y17576   4.285   4.010  11.598  0.4452  1.7700  2.2262
  147DOPC  C31617577   4.397   3.873  11.469  0.5168 -0.0999  0.7766
  147DOPC  H16X17578   4.481   3.801  11.464  1.6027  1.1816 -3.3384
  147DOPC  H16Y17579   4.308   3.818  11.430  0.9849  1.0773 -2.1512
  147DOPC  C31717580   4.418   3.977  11.353  0.0457  0.4518 -0.3191
  147DOPC  H17X17581   4.397   3.927  11.256  0.6482 -0.3944 -0.0270
  147DOPC  H17Y17582   4.350   4.064  11.366 -1.2302 -0.6009  0.2396
  147DOPC  C31817583   4.563   4.024  11.343  0.3284 -0.2606 -0.3840
  147DOPC  H18X17584   4.599   4.066  11.439 -0.0818 -2.2826  0.7100
  147DOPC  H18Y17585   4.618   3.936  11.303  1.3770  0.6179 -0.9215
  147DOPC  H18Z17586   4.572   4.110  11.273  1.3277 -0.0202  0.0253
  148DOPC     N17587   2.943   5.940  14.314  0.2473  0.0178 -0.4198
  148DOPC   C1217588   2.952   5.914  14.170  0.2285  0.4216 -0.5970
  148DOPC  H12A17589   2.892   5.831  14.134  1.3688 -0.6103 -0.1952
  148DOPC  H12B17590   3.053   5.883  14.148  0.0971 -1.0834  0.7281
  148DOPC   C1317591   3.040   6.046  14.364  0.1049  0.0736 -0.1653
  148DOPC  H13A17592   3.016   6.143  14.321  0.0333  0.3160  0.4144
  148DOPC  H13B17593   3.027   6.067  14.469  1.6524  3.0425 -0.4670
  148DOPC  H13C17594   3.140   6.010  14.348 -0.0984 -1.5635  1.8605
  148DOPC   C1417595   2.974   5.809  14.388  0.7097  0.2731 -0.1928
  148DOPC  H14A17596   3.080   5.791  14.380  0.8024 -1.0935  2.8582
  148DOPC  H14B17597   2.945   5.811  14.492 -0.3693 -0.4190 -0.4651
  148DOPC  H14C17598   2.922   5.728  14.340 -1.1716  2.1265 -1.4671
  148DOPC   C1517599   2.812   5.992  14.353 -0.4294  0.5209 -0.0602
  148DOPC  H15A17600   2.781   6.076  14.293 -1.7792  1.1790  1.4676
  148DOPC  H15B17601   2.807   6.014  14.459 -0.6683 -4.6472  1.2319
  148DOPC  H15C17602   2.741   5.911  14.353 -0.0364  0.1514  1.5708
  148DOPC   C1117603   2.917   6.030  14.078  0.1877 -0.3892  0.2453
  148DOPC  H11A17604   2.893   5.998  13.975  1.4931  1.9157 -0.8639
  148DOPC  H11B17605   2.827   6.078  14.122  0.3443 -0.7672  0.9977
  148DOPC     P17606   3.135   6.139  14.001  0.0262  0.1057  0.1018
  148DOPC   O1317607   3.200   6.011  14.031 -0.6856  0.2164  0.1954
  148DOPC   O1417608   3.204   6.264  14.024  0.0922  0.0849 -0.2322
  148DOPC   O1217609   3.001   6.145  14.079 -0.4221  0.5044  0.1970
  148DOPC   O1117610   3.099   6.124  13.852  0.2402 -0.3435 -0.2342
  148DOPC    C117611   2.986   6.191  13.798  0.7882 -0.3069  0.5393
  148DOPC    HA17612   2.979   6.298  13.829  1.6137 -0.4238  1.1756
  148DOPC    HB17613   2.897   6.134  13.832  0.3635  0.2256  0.3194
  148DOPC    C217614   2.993   6.180  13.642 -0.3789 -0.7486  0.3685
  148DOPC    HS17615   2.925   6.254  13.595 -0.2398 -1.3013 -0.7291
  148DOPC   O2117616   2.965   6.053  13.595 -0.1084 -0.0219 -0.3063
  148DOPC   C2117617   2.899   6.038  13.482 -0.0774 -0.0324  0.6530
  148DOPC   O2217618   2.849   6.127  13.412  0.0102 -0.4550 -0.0797
  148DOPC   C2217619   2.887   5.884  13.449 -0.0447 -0.1543  0.1311
  148DOPC   H2R17620   2.836   5.842  13.539 -0.2706  2.1652  1.1678
  148DOPC   H2S17621   2.990   5.844  13.460  0.1802  0.7907  1.8559
  148DOPC    C317622   3.137   6.224  13.599  0.1587 -0.1992 -0.1718
  148DOPC    HX17623   3.200   6.143  13.643 -0.8167 -0.5284  0.6683
  148DOPC    HY17624   3.166   6.322  13.643  0.9078  0.4660 -2.0424
  148DOPC   O3117625   3.147   6.225  13.458  0.1184 -0.0548  0.3620
  148DOPC   C3117626   3.098   6.327  13.395  0.9386 -0.9070  0.0094
  148DOPC   O3217627   3.060   6.425  13.462  0.5652  0.1884 -0.1138
  148DOPC   C3217628   3.088   6.321  13.243 -0.5757  0.1472  0.0564
  148DOPC   H2X17629   3.194   6.304  13.215  0.0349  0.5088  1.9652
  148DOPC   H2Y17630   3.036   6.229  13.208  1.0232 -0.8627  0.2245
  148DOPC   C2317631   2.808   5.866  13.316  0.4679 -0.1717  0.5367
  148DOPC   H3R17632   2.813   5.763  13.276  3.1612 -0.2017  0.7939
  148DOPC   H3S17633   2.870   5.927  13.246  1.4118 -2.0971 -0.3789
  148DOPC   C2417634   2.658   5.908  13.321 -0.0888  0.5293  0.1952
  148DOPC   H4R17635   2.651   6.018  13.340  2.1967  1.0042 -1.2636
  148DOPC   H4S17636   2.606   5.853  13.401 -3.2860 -0.2494 -2.2172
  148DOPC   C2517637   2.585   5.870  13.190 -0.0607 -0.9730  0.8434
  148DOPC   H5R17638   2.476   5.882  13.209  0.3110  0.1777  2.5173
  148DOPC   H5S17639   2.610   5.764  13.166  0.6797 -0.3855 -1.2376
  148DOPC   C2617640   2.619   5.973  13.080  1.0658  0.4234  0.2094
  148DOPC   H6R17641   2.730   5.977  13.074  1.2606  0.0113  2.4783
  148DOPC   H6S17642   2.576   6.070  13.113 -0.6675 -0.9146  2.1388
  148DOPC   C2717643   2.571   5.925  12.939 -0.3421  0.2823 -0.4124
  148DOPC   H7R17644   2.460   5.922  12.934 -0.6940  0.9411  3.4736
  148DOPC   H7S17645   2.597   5.818  12.928 -3.2060 -0.3015 -2.6187
  148DOPC   C2817646   2.636   5.993  12.812 -0.2586  0.2120 -0.2202
  148DOPC   H8R17647   2.613   5.920  12.732  0.3431 -1.2753  0.9146
  148DOPC   H8S17648   2.744   6.013  12.829 -0.6041 -0.0254  2.6801
  148DOPC   C2917649   2.565   6.122  12.784  0.0513  0.0139 -0.7357
  148DOPC   H9R17650   2.566   6.199  12.862 -1.7720  1.8817 -2.4339
  148DOPC  C21017651   2.508   6.161  12.667 -0.4206 -0.4590  0.2499
  148DOPC  H10R17652   2.475   6.264  12.649  1.1664 -0.3144 -2.2734
  148DOPC  C21117653   2.509   6.072  12.543  0.3944 -0.4531 -1.4695
  148DOPC  H11R17654   2.405   6.035  12.528  0.8251 -1.5412 -1.8051
  148DOPC  H11S17655   2.555   5.973  12.558 -2.1819 -1.4537  0.5785
  148DOPC  C21217656   2.550   6.139  12.410  0.4677  0.1421 -0.3182
  148DOPC  H12R17657   2.660   6.126  12.406  0.3592 -0.7893 -0.3817
  148DOPC  H12S17658   2.531   6.249  12.419 -2.2172 -0.2510 -0.3071
  148DOPC  C21317659   2.467   6.094  12.287  0.1216  0.2090 -0.2605
  148DOPC  H13R17660   2.360   6.121  12.302 -0.4327 -1.1549 -1.4535
  148DOPC  H13S17661   2.461   5.983  12.280  0.5432  0.0524  1.5382
  148DOPC  C21417662   2.541   6.144  12.156  0.4423 -0.1097 -0.2820
  148DOPC  H14R17663   2.649   6.122  12.166 -0.0356 -1.7089  2.1291
  148DOPC  H14S17664   2.535   6.255  12.153 -1.0984 -0.1847 -1.1666
  148DOPC  C21517665   2.470   6.088  12.025 -0.2010  0.2994  0.0493
  148DOPC  H15R17666   2.360   6.108  12.026 -1.2524 -4.2412 -1.3389
  148DOPC  H15S17667   2.482   5.978  12.030  3.0583  0.5102 -1.0864
  148DOPC  C21617668   2.541   6.140  11.901 -0.0651 -0.9912 -0.2773
  148DOPC  H16R17669   2.642   6.107  11.870  0.7528 -0.7402  1.8916
  148DOPC  H16S17670   2.539   6.251  11.907 -0.6616 -0.9631 -0.9578
  148DOPC  C21717671   2.467   6.108  11.772  0.1666 -0.0490 -0.3032
  148DOPC  H17R17672   2.367   6.156  11.777  1.3583  2.5145  3.3464
  148DOPC  H17S17673   2.448   5.999  11.773  1.3577 -0.2685 -0.3275
  148DOPC  C21817674   2.528   6.159  11.641 -0.3396 -0.3293  0.3918
  148DOPC  H18R17675   2.632   6.123  11.626  0.4278  1.1930  1.6964
  148DOPC  H18S17676   2.537   6.270  11.641  1.8395 -0.4561  1.6777
  148DOPC  H18T17677   2.466   6.117  11.559 -0.6106  1.1861 -0.2319
  148DOPC   C3317678   3.038   6.445  13.176 -0.0759 -0.2374 -0.2401
  148DOPC   H3X17679   3.100   6.533  13.202 -2.6695  1.5620  0.2981
  148DOPC   H3Y17680   2.932   6.477  13.186 -0.2999 -1.2924  0.8847
  148DOPC   C3417681   3.048   6.423  13.025  0.8265 -0.0703  0.2244
  148DOPC   H4X17682   3.154   6.397  13.003  1.6940  2.4351  1.1149
  148DOPC   H4Y17683   3.025   6.521  12.978 -0.0610 -0.1336  0.5094
  148DOPC   C3517684   2.959   6.314  12.957  0.2344 -0.2418 -0.3442
  148DOPC   H5X17685   2.870   6.301  13.022 -1.1300 -1.6865 -2.3441
  148DOPC   H5Y17686   3.010   6.215  12.952 -1.1359 -0.9199 -2.7097
  148DOPC   C3617687   2.927   6.355  12.814  0.2263  0.3206 -0.0137
  148DOPC   H6X17688   2.873   6.264  12.780  0.3515  0.8159 -1.6554
  148DOPC   H6Y17689   2.856   6.441  12.807 -2.5255 -1.8857 -1.5743
  148DOPC   C3717690   3.033   6.390  12.712 -0.9004  0.6068  0.0035
  148DOPC   H7X17691   3.106   6.458  12.762 -1.0576  0.9875 -0.2766
  148DOPC   H7Y17692   3.086   6.303  12.668 -0.3576  0.6219  0.5948
  148DOPC   C3817693   2.986   6.466  12.585  0.3784  0.4899  0.0065
  148DOPC   H8X17694   3.073   6.498  12.524 -0.5720  2.3903 -0.3963
  148DOPC   H8Y17695   2.961   6.564  12.629  2.6067  1.9548 -1.7354
  148DOPC   C3917696   2.872   6.410  12.497  0.2972 -0.1773  0.3126
  148DOPC   H9X17697   2.791   6.369  12.558  0.4661  0.8010  1.2257
  148DOPC  C31017698   2.866   6.400  12.360 -0.2289  0.1506  0.2629
  148DOPC  H10X17699   2.770   6.369  12.316  0.0273 -0.2625 -0.0172
  148DOPC  C31117700   2.967   6.435  12.251 -0.3061 -0.7091 -0.0331
  148DOPC  H11X17701   3.015   6.342  12.214 -1.1992 -0.5099 -1.8029
  148DOPC  H11Y17702   3.027   6.514  12.301 -0.7980  0.4208 -1.1838
  148DOPC  C31217703   2.894   6.497  12.137  0.3189 -0.0152  1.2848
  148DOPC  H12X17704   2.907   6.607  12.145 -0.9070  0.2581 -0.0925
  148DOPC  H12Y17705   2.787   6.476  12.119  0.5595  1.0481 -2.0318
  148DOPC  C31317706   2.950   6.466  11.992  0.2010 -0.2218  0.0186
  148DOPC  H13X17707   3.061   6.458  11.995  0.0991 -2.3368 -0.3964
  148DOPC  H13Y17708   2.913   6.363  11.974 -1.1795  0.0995  0.8597
  148DOPC  C31417709   2.888   6.556  11.887 -0.0310 -0.3699  0.2948
  148DOPC  H14X17710   2.778   6.571  11.888  0.2100  1.9417 -1.1492
  148DOPC  H14Y17711   2.928   6.659  11.902  0.5560 -0.6257  0.5152
  148DOPC  C31517712   2.912   6.512  11.740 -0.0019  0.0411 -0.1939
  148DOPC  H15X17713   3.022   6.493  11.731  0.3341  1.8123 -0.2508
  148DOPC  H15Y17714   2.878   6.593  11.671 -0.9338  0.9151  1.2583
  148DOPC  C31617715   2.838   6.384  11.699 -0.7774 -0.2832 -0.3055
  148DOPC  H16X17716   2.861   6.304  11.772 -1.8490  1.4456  2.0560
  148DOPC  H16Y17717   2.730   6.409  11.706 -0.2969  1.5309  1.5333
  148DOPC  C31717718   2.845   6.333  11.552 -0.1296  0.7660 -0.9124
  148DOPC  H17X17719   2.809   6.228  11.554  1.0781  0.3221  1.6637
  148DOPC  H17Y17720   2.772   6.393  11.492 -1.1500  2.1391  1.5383
  148DOPC  C31817721   2.981   6.329  11.486  0.0583 -0.1350 -1.0533
  148DOPC  H18X17722   3.060   6.301  11.558 -0.4150  0.3540 -0.3332
  148DOPC  H18Y17723   2.987   6.270  11.392  0.3808  0.5545 -1.4779
  148DOPC  H18Z17724   3.009   6.435  11.464  1.1756 -0.2005 -0.0188
  149DOPC     N17725   3.305   4.148  13.768  0.2602  0.1032 -0.2332
  149DOPC   C1217726   3.209   4.137  13.884  0.1688 -0.6173  0.1146
  149DOPC  H12A17727   3.214   4.224  13.948  1.8038 -0.3442 -0.3366
  149DOPC  H12B17728   3.235   4.052  13.946 -1.6548 -1.0686  0.3324
  149DOPC   C1317729   3.441   4.183  13.823  0.0308 -1.6643  0.7981
  149DOPC  H13A17730   3.508   4.190  13.739 -0.3520  0.9916  0.6176
  149DOPC  H13B17731   3.436   4.278  13.874  0.8949 -1.2727  0.1802
  149DOPC  H13C17732   3.481   4.106  13.887  1.6766 -0.7982  0.8750
  149DOPC   C1417733   3.281   4.264  13.666 -0.7569 -0.1824  0.3642
  149DOPC  H14A17734   3.351   4.261  13.584 -1.0599  1.1956  0.0404
  149DOPC  H14B17735   3.185   4.266  13.615 -1.0792 -2.0541  0.8333
  149DOPC  H14C17736   3.284   4.358  13.720 -1.9064  0.3811 -0.5089
  149DOPC   C1517737   3.318   4.016  13.699 -0.1489  0.1436 -0.5951
  149DOPC  H15A17738   3.225   3.982  13.656 -0.3092  0.3735 -0.4386
  149DOPC  H15B17739   3.333   3.941  13.775  1.6160  0.3574 -0.7037
  149DOPC  H15C17740   3.398   4.016  13.627  1.9699  2.4022  1.5658
  149DOPC   C1117741   3.063   4.109  13.834 -0.0373 -0.0598  0.0188
  149DOPC  H11A17742   3.004   4.116  13.928 -0.5475  0.0819 -0.3121
  149DOPC  H11B17743   3.040   4.188  13.760  1.6408 -0.2217 -0.7314
  149DOPC     P17744   2.924   3.917  13.728 -0.2641 -0.1577 -0.1177
  149DOPC   O1317745   2.860   4.007  13.630  0.2106 -0.2089  0.4045
  149DOPC   O1417746   2.844   3.861  13.840 -0.1663 -0.4003  0.5471
  149DOPC   O1217747   3.053   3.979  13.789 -0.2110  0.3387 -0.1107
  149DOPC   O1117748   2.989   3.799  13.658 -0.6233 -0.2065  0.1519
  149DOPC    C117749   3.053   3.820  13.528  0.6667  0.2988 -0.2046
  149DOPC    HA17750   3.125   3.736  13.522  0.7487  0.1176  2.4353
  149DOPC    HB17751   3.107   3.917  13.525  0.3840  0.4609 -0.1211
  149DOPC    C217752   2.957   3.816  13.401  0.8925  0.1271 -0.3965
  149DOPC    HS17753   2.857   3.860  13.419  1.0968  0.8554 -0.9998
  149DOPC   O2117754   2.948   3.674  13.358 -0.5549 -0.1721 -0.0732
  149DOPC   C2117755   2.862   3.598  13.424  0.5930 -0.0028 -0.2207
  149DOPC   O2217756   2.782   3.640  13.509 -0.4104  0.1109  0.5420
  149DOPC   C2217757   2.885   3.446  13.398 -0.2740 -1.0455  0.5219
  149DOPC   H2R17758   2.882   3.383  13.489  1.4875  0.0407  1.3870
  149DOPC   H2S17759   2.984   3.435  13.349  0.4031 -1.1467  1.8783
  149DOPC    C317760   3.017   3.899  13.288 -0.4601 -0.7431 -0.0868
  149DOPC    HX17761   3.118   3.857  13.268 -0.0933 -0.0453  0.2663
  149DOPC    HY17762   3.023   4.004  13.324 -2.7664 -0.5065 -0.2486
  149DOPC   O3117763   2.942   3.895  13.165 -0.2342 -0.5428 -0.1244
  149DOPC   C3117764   2.961   3.995  13.080  0.6246 -0.7290 -0.2348
  149DOPC   O3217765   3.034   4.090  13.092 -0.0394 -0.2877 -0.0335
  149DOPC   C3217766   2.859   3.989  12.971  0.8725 -0.3980  0.1491
  149DOPC   H2X17767   2.882   3.894  12.919  1.3313 -0.9044  1.2425
  149DOPC   H2Y17768   2.756   4.000  13.011  0.3840  1.4114 -1.4290
  149DOPC   C2317769   2.778   3.400  13.296 -0.0989  0.4827  0.5664
  149DOPC   H3R17770   2.677   3.412  13.341 -0.3718  0.0730  0.0659
  149DOPC   H3S17771   2.793   3.292  13.277 -0.0512  0.5743  0.0546
  149DOPC   C2417772   2.789   3.466  13.152 -0.6529 -1.2680 -0.0902
  149DOPC   H4R17773   2.790   3.575  13.171  0.4049 -0.9956 -1.5020
  149DOPC   H4S17774   2.690   3.452  13.104 -1.3715  1.9023  0.2597
  149DOPC   C2517775   2.902   3.410  13.065 -0.1279 -0.5505 -0.6908
  149DOPC   H5R17776   2.908   3.300  13.077  0.1390 -0.5909 -1.1468
  149DOPC   H5S17777   2.995   3.450  13.110 -2.1798  0.6551  2.8426
  149DOPC   C2617778   2.893   3.453  12.921 -0.1334  0.1611  0.0906
  149DOPC   H6R17779   2.995   3.459  12.877 -0.1027 -0.8399  0.0028
  149DOPC   H6S17780   2.855   3.557  12.928  1.4737  0.6798  2.1212
  149DOPC   C2717781   2.806   3.361  12.834  0.4060 -0.4309  0.2438
  149DOPC   H7R17782   2.701   3.387  12.860  0.9335  1.3376  0.7623
  149DOPC   H7S17783   2.818   3.252  12.853  0.8950 -0.4258 -0.0193
  149DOPC   C2817784   2.824   3.394  12.682 -0.5488  0.6191  0.1959
  149DOPC   H8R17785   2.753   3.346  12.611 -0.7893  3.8877 -2.0074
  149DOPC   H8S17786   2.923   3.356  12.649  0.0763  1.7805  0.6770
  149DOPC   C2917787   2.822   3.535  12.641  0.2005  0.1725  0.4792
  149DOPC   H9R17788   2.753   3.596  12.701  1.2752  0.7492  1.1461
  149DOPC  C21017789   2.874   3.579  12.529 -0.3228 -0.3154 -0.3600
  149DOPC  H10R17790   2.870   3.687  12.508 -1.7900 -0.4560 -0.8915
  149DOPC  C21117791   2.960   3.514  12.425 -0.1564  0.1781 -0.0690
  149DOPC  H11R17792   2.931   3.408  12.411 -2.7145  1.0314 -2.0841
  149DOPC  H11S17793   3.070   3.507  12.440 -0.5239 -3.1767  2.2330
  149DOPC  C21217794   2.927   3.570  12.283  0.2752 -0.9009 -0.6517
  149DOPC  H12R17795   2.946   3.680  12.279 -1.8481 -0.5195 -1.6064
  149DOPC  H12S17796   2.820   3.551  12.262 -0.0886  2.3943 -2.4569
  149DOPC  C21317797   3.006   3.495  12.174  0.0753 -0.5572 -0.6421
  149DOPC  H13R17798   2.973   3.391  12.151  0.7985 -0.7825 -0.6931
  149DOPC  H13S17799   3.117   3.490  12.185  0.1020  0.0541 -0.5960
  149DOPC  C21417800   2.976   3.568  12.037  0.0833 -0.1040  0.3247
  149DOPC  H14R17801   3.021   3.669  12.024 -2.2375  0.8673 -0.5493
  149DOPC  H14S17802   2.867   3.579  12.024 -0.0184 -0.7549  0.6266
  149DOPC  C21517803   3.022   3.494  11.911 -0.3897 -0.0800 -0.0116
  149DOPC  H15R17804   2.962   3.402  11.895 -1.4452  0.9934 -2.9425
  149DOPC  H15S17805   3.124   3.455  11.932  1.0395  4.2413  2.2903
  149DOPC  C21617806   3.039   3.583  11.781  0.7772 -0.0252 -0.5274
  149DOPC  H16R17807   3.094   3.676  11.809  0.1612 -0.2656  1.6489
  149DOPC  H16S17808   2.941   3.618  11.742  1.4776 -0.8325 -3.2097
  149DOPC  C21717809   3.107   3.511  11.669 -0.2009 -0.1588  0.2081
  149DOPC  H17R17810   3.052   3.416  11.653 -0.2861  0.2565 -2.3963
  149DOPC  H17S17811   3.208   3.482  11.704  0.0612  1.1308  0.5737
  149DOPC  C21817812   3.116   3.584  11.536  0.4280  0.2662 -0.1609
  149DOPC  H18R17813   3.174   3.518  11.467 -1.6651 -0.7059 -1.0611
  149DOPC  H18S17814   3.169   3.682  11.538  0.6867  0.1259 -0.1436
  149DOPC  H18T17815   3.016   3.588  11.489 -0.4232  0.3447  1.5943
  149DOPC   C3317816   2.875   4.113  12.876 -0.0024 -0.0638 -0.1000
  149DOPC   H3X17817   2.975   4.108  12.828  0.4425 -1.0692  0.8938
  149DOPC   H3Y17818   2.870   4.210  12.930 -0.5092 -1.6537  2.8982
  149DOPC   C3417819   2.757   4.118  12.780  0.5497  0.6997 -0.3811
  149DOPC   H4X17820   2.663   4.131  12.838  0.6570  0.6210 -0.1909
  149DOPC   H4Y17821   2.746   4.026  12.719 -2.0847 -0.9294  2.2912
  149DOPC   C3517822   2.776   4.238  12.684  0.0091  0.4062 -0.6788
  149DOPC   H5X17823   2.869   4.282  12.725 -0.2076  2.2637 -2.0578
  149DOPC   H5Y17824   2.693   4.312  12.692  1.5130  1.9988  1.3813
  149DOPC   C3617825   2.802   4.204  12.540 -0.0930 -0.2702 -0.0866
  149DOPC   H6X17826   2.895   4.143  12.529  0.1475  0.0367  0.1994
  149DOPC   H6Y17827   2.710   4.156  12.500 -0.5845 -0.0958  0.8254
  149DOPC   C3717828   2.835   4.339  12.467  0.6011 -0.6517  0.2245
  149DOPC   H7X17829   2.741   4.396  12.455  0.4711 -1.0547 -0.7582
  149DOPC   H7Y17830   2.904   4.395  12.535  0.4158 -1.9450  1.5401
  149DOPC   C3817831   2.903   4.327  12.330  0.9164 -0.0625 -0.1964
  149DOPC   H8X17832   2.995   4.266  12.338  0.8070 -0.1605  0.3076
  149DOPC   H8Y17833   2.945   4.426  12.303 -4.1168  2.4369 -0.1653
  149DOPC   C3917834   2.813   4.264  12.227  0.8105 -0.7865  0.2420
  149DOPC   H9X17835   2.728   4.205  12.265 -0.3896  0.5542 -0.2689
  149DOPC  C31017836   2.839   4.268  12.097 -0.9197  0.2112 -0.0939
  149DOPC  H10X17837   2.764   4.214  12.037  0.1051  0.3856 -1.6039
  149DOPC  C31117838   2.951   4.336  12.018 -1.1068 -0.2780 -1.3847
  149DOPC  H11X17839   2.996   4.252  11.960 -0.3291  0.8054 -2.3928
  149DOPC  H11Y17840   3.031   4.370  12.087 -2.0163  1.5392 -1.1715
  149DOPC  C31217841   2.907   4.443  11.919 -0.3166  0.4849  0.0493
  149DOPC  H12X17842   2.996   4.497  11.880 -0.1866  0.0848 -0.2060
  149DOPC  H12Y17843   2.839   4.512  11.973  0.4893  0.9112  0.5405
  149DOPC  C31317844   2.845   4.372  11.801  0.7262  0.5210  0.4004
  149DOPC  H13X17845   2.920   4.298  11.765  1.3801  1.4975 -0.3275
  149DOPC  H13Y17846   2.758   4.311  11.832  1.8519 -1.5966 -0.3711
  149DOPC  C31417847   2.807   4.472  11.689  0.2947  0.1865 -0.5071
  149DOPC  H14X17848   2.730   4.543  11.725  1.4171  1.1234  0.1495
  149DOPC  H14Y17849   2.888   4.535  11.645  0.6424 -0.2102 -0.4477
  149DOPC  C31517850   2.749   4.394  11.565  0.3467 -0.7603 -0.3169
  149DOPC  H15X17851   2.640   4.408  11.580  0.8049  2.4031  0.8056
  149DOPC  H15Y17852   2.757   4.283  11.575  1.8765 -0.6168  0.3768
  149DOPC  C31617853   2.770   4.462  11.430 -0.2566 -1.0653  0.5014
  149DOPC  H16X17854   2.760   4.571  11.449 -1.2255 -1.2625  1.1947
  149DOPC  H16Y17855   2.873   4.450  11.391  0.0596  1.0970  0.5857
  149DOPC  C31717856   2.662   4.418  11.326  0.0105 -0.6047 -0.1125
  149DOPC  H17X17857   2.685   4.312  11.305  0.0011 -0.7852  0.7536
  149DOPC  H17Y17858   2.568   4.423  11.385 -0.7854  0.5319 -1.4221
  149DOPC  C31817859   2.654   4.510  11.204  0.2815 -0.3244 -0.3054
  149DOPC  H18X17860   2.598   4.452  11.127  1.7969 -0.7387 -1.1323
  149DOPC  H18Y17861   2.592   4.601  11.222 -0.1156 -0.2418 -1.9144
  149DOPC  H18Z17862   2.753   4.542  11.166  0.5758 -1.6480 -0.6825
  150DOPC     N17863   5.873   1.254  14.098  0.4313  0.6840 -0.5673
  150DOPC   C1217864   5.918   1.143  14.195 -0.0833  0.0569  0.3938
  150DOPC  H12A17865   5.893   1.183  14.293 -1.2779 -1.4114  0.7330
  150DOPC  H12B17866   6.024   1.131  14.179  0.0397  1.3106  0.1765
  150DOPC   C1317867   5.722   1.273  14.117 -0.1777 -0.0804  0.6566
  150DOPC  H13A17868   5.677   1.176  14.110 -1.7737  0.6309  0.5894
  150DOPC  H13B17869   5.706   1.311  14.217  3.2630  2.1367  0.5216
  150DOPC  H13C17870   5.689   1.346  14.045  2.6953  1.5408  0.8088
  150DOPC   C1417871   5.901   1.198  13.956  0.0354  0.2650 -0.0100
  150DOPC  H14A17872   5.854   1.254  13.877 -0.5499 -0.3944 -0.1441
  150DOPC  H14B17873   6.006   1.179  13.940 -0.7536 -4.2041 -1.2469
  150DOPC  H14C17874   5.863   1.096  13.952 -0.8007  0.6027 -1.1189
  150DOPC   C1517875   5.952   1.373  14.106 -0.1549 -0.5433 -0.2101
  150DOPC  H15A17876   5.951   1.414  14.206 -0.3886 -0.7788 -0.1134
  150DOPC  H15B17877   5.914   1.440  14.030 -3.5316 -0.7288  1.1371
  150DOPC  H15C17878   6.054   1.349  14.079  0.6435  2.0138  0.3380
  150DOPC   C1117879   5.847   1.000  14.186  0.7331 -0.2223 -0.2668
  150DOPC  H11A17880   5.881   0.939  14.272  2.5364  0.0018 -0.7812
  150DOPC  H11B17881   5.738   1.017  14.199  0.8782  1.1122 -0.6342
  150DOPC     P17882   5.763   0.854  13.981 -0.2316  0.4827 -0.3759
  150DOPC   O1317883   5.651   0.945  13.965  0.3222  0.0312 -0.0205
  150DOPC   O1417884   5.739   0.725  14.047 -0.3167  0.6268  0.2119
  150DOPC   O1217885   5.875   0.923  14.067  0.3201  0.1461  0.1503
  150DOPC   O1117886   5.834   0.829  13.839 -0.5502  0.0274  0.4445
  150DOPC    C117887   5.978   0.838  13.842 -0.0528 -0.9960  0.3998
  150DOPC    HA17888   6.014   0.770  13.923 -0.6067 -0.7721  0.8356
  150DOPC    HB17889   6.008   0.941  13.870  0.6917 -0.7755 -1.1177
  150DOPC    C217890   6.047   0.799  13.716 -0.7626 -0.5727  0.6667
  150DOPC    HS17891   6.153   0.831  13.723 -0.9365  0.3110 -0.5069
  150DOPC   O2117892   5.993   0.872  13.605 -1.0472 -0.4361 -0.1097
  150DOPC   C2117893   6.038   0.992  13.589 -0.2804  0.1276  0.2763
  150DOPC   O2217894   6.102   1.059  13.672  0.1576 -0.0155  0.2190
  150DOPC   C2217895   6.001   1.047  13.451  0.9298 -0.2074  0.6598
  150DOPC   H2R17896   6.090   1.098  13.409 -1.3634  1.0790 -3.1160
  150DOPC   H2S17897   5.930   1.131  13.461  0.7978 -0.3867  1.2928
  150DOPC    C317898   6.032   0.649  13.689  0.3452 -0.5218  0.2779
  150DOPC    HX17899   5.925   0.627  13.708  0.1126  0.1659 -0.2065
  150DOPC    HY17900   6.095   0.607  13.770  1.6994  2.9453  1.2071
  150DOPC   O3117901   6.074   0.602  13.559  0.1083  0.0985  0.1355
  150DOPC   C3117902   5.979   0.559  13.477 -0.5364  0.1563 -0.3011
  150DOPC   O3217903   5.862   0.535  13.510 -0.6352 -0.2459 -0.5044
  150DOPC   C3217904   6.047   0.536  13.336  0.6147 -0.1843  0.6453
  150DOPC   H2X17905   6.081   0.641  13.326  0.7768 -0.1924  1.0930
  150DOPC   H2Y17906   6.124   0.458  13.349 -1.3943 -2.2275  0.9142
  150DOPC   C2317907   5.940   0.941  13.356 -0.1819 -0.0368  1.0115
  150DOPC   H3R17908   5.848   0.890  13.390 -0.7672  0.4420  0.1944
  150DOPC   H3S17909   6.014   0.860  13.337 -0.2148  0.5052 -2.0760
  150DOPC   C2417910   5.902   0.988  13.216  0.6136 -0.0313  0.0132
  150DOPC   H4R17911   5.817   1.059  13.227 -1.5561 -2.3144 -0.6965
  150DOPC   H4S17912   5.864   0.902  13.156 -0.7272  0.7583 -0.3315
  150DOPC   C2517913   6.017   1.048  13.140 -0.1293 -0.2165 -0.3057
  150DOPC   H5R17914   6.111   0.995  13.165 -0.0398  0.8304  1.8048
  150DOPC   H5S17915   6.031   1.157  13.160 -1.7630 -0.1839  0.8863
  150DOPC   C2617916   5.986   1.045  12.991 -0.2386  0.1362  0.8443
  150DOPC   H6R17917   5.983   0.939  12.961 -1.1803  0.0901  1.0565
  150DOPC   H6S17918   6.078   1.076  12.938  1.6810 -4.0027  1.3559
  150DOPC   C2717919   5.861   1.103  12.938  0.0465 -0.5013  0.6702
  150DOPC   H7R17920   5.832   1.203  12.978 -0.9134 -0.6573  0.4067
  150DOPC   H7S17921   5.778   1.032  12.962 -0.0942  0.0730  1.9559
  150DOPC   C2817922   5.860   1.107  12.780 -0.0334  0.4258  0.1365
  150DOPC   H8R17923   5.759   1.134  12.744 -0.2203  1.9522  1.6893
  150DOPC   H8S17924   5.867   1.001  12.747 -1.7624  0.4741 -0.4811
  150DOPC   C2917925   5.964   1.205  12.725 -0.2612 -0.1884  0.0512
  150DOPC   H9R17926   5.957   1.309  12.760  2.9620 -0.1794  0.9706
  150DOPC  C21017927   6.077   1.170  12.661 -0.4344 -0.5360 -0.9722
  150DOPC  H10R17928   6.154   1.247  12.645 -0.2280 -0.0850  1.7356
  150DOPC  C21117929   6.113   1.029  12.618 -0.4065  0.1034  0.5270
  150DOPC  H11R17930   6.096   0.952  12.697 -0.3130 -0.1917  0.2622
  150DOPC  H11S17931   6.222   1.022  12.596 -0.4282 -0.5850  0.6114
  150DOPC  C21217932   6.031   0.976  12.494  0.3160 -0.4967  0.4031
  150DOPC  H12R17933   5.924   1.006  12.500  0.0596 -0.5305 -2.4649
  150DOPC  H12S17934   6.019   0.866  12.498 -1.7481 -0.3262 -0.1012
  150DOPC  C21317935   6.086   1.045  12.368 -0.0799 -0.0031 -0.1365
  150DOPC  H13R17936   6.191   1.010  12.368 -0.3574 -0.8977  1.1293
  150DOPC  H13S17937   6.078   1.156  12.378 -0.5615  0.1484 -1.7975
  150DOPC  C21417938   6.016   1.002  12.239  0.1820  0.0663 -0.8799
  150DOPC  H14R17939   5.909   1.031  12.236  0.1463  0.0418 -0.1702
  150DOPC  H14S17940   6.006   0.892  12.224 -3.1698 -0.0332  1.1379
  150DOPC  C21517941   6.098   1.050  12.114  0.6704 -0.2927 -0.2450
  150DOPC  H15R17942   6.201   1.012  12.128  0.3227 -0.7659  1.1480
  150DOPC  H15S17943   6.108   1.161  12.117 -0.2854 -0.2213  1.4259
  150DOPC  C21617944   6.051   1.009  11.973  0.2035  0.0800 -0.0183
  150DOPC  H16R17945   5.958   1.067  11.952  0.3300  0.0778 -0.5934
  150DOPC  H16S17946   6.020   0.903  11.977  0.4501  0.0424  1.3232
  150DOPC  C21717947   6.157   1.022  11.861 -0.7620 -0.7741 -0.6288
  150DOPC  H17R17948   6.224   1.111  11.857  0.9646 -1.9678  0.3614
  150DOPC  H17S17949   6.110   1.008  11.762  1.0333 -1.4828 -1.4278
  150DOPC  C21817950   6.244   0.894  11.853 -0.8153 -0.5807  0.4837
  150DOPC  H18R17951   6.179   0.804  11.854 -2.1318  0.2030 -2.4324
  150DOPC  H18S17952   6.320   0.900  11.934  0.2562  0.7109 -0.5585
  150DOPC  H18T17953   6.304   0.905  11.759  0.3800  0.5237  1.3368
  150DOPC   C3317954   5.949   0.490  13.229 -0.1975 -0.0959 -0.7620
  150DOPC   H3X17955   5.852   0.544  13.233 -0.7438 -0.9987 -1.3546
  150DOPC   H3Y17956   5.931   0.383  13.250 -1.3073  0.2451  0.1263
  150DOPC   C3417957   6.004   0.490  13.089 -0.0067  0.1832  0.3072
  150DOPC   H4X17958   6.102   0.438  13.087 -0.5037 -0.7436 -0.9921
  150DOPC   H4Y17959   6.025   0.596  13.061  2.4067  0.0276  1.2760
  150DOPC   C3517960   5.913   0.441  12.975  0.5171  0.2076  0.3591
  150DOPC   H5X17961   5.813   0.487  12.991  0.8017  0.8380  0.3645
  150DOPC   H5Y17962   5.897   0.333  12.994  0.5972 -0.0900 -1.1472
  150DOPC   C3617963   5.965   0.460  12.834 -0.2506  0.4588 -0.3396
  150DOPC   H6X17964   6.060   0.406  12.817 -1.2536 -1.5004 -0.0802
  150DOPC   H6Y17965   5.886   0.413  12.770 -3.2365  4.3223  0.1045
  150DOPC   C3717966   5.960   0.603  12.791 -0.0656  0.0559  0.0182
  150DOPC   H7X17967   5.888   0.664  12.850  0.3127  0.1244  0.4213
  150DOPC   H7Y17968   6.056   0.660  12.798  0.1417  0.2130 -3.0781
  150DOPC   C3817969   5.930   0.625  12.640 -0.1792 -0.4232  0.1161
  150DOPC   H8X17970   5.884   0.725  12.625  0.5371 -0.0056  0.6393
  150DOPC   H8Y17971   5.846   0.554  12.623 -2.2622  1.1524  2.9675
  150DOPC   C3917972   6.057   0.597  12.561 -0.0069 -0.0258  0.0408
  150DOPC   H9X17973   6.151   0.639  12.599  0.6938 -1.1606 -0.3658
  150DOPC  C31017974   6.073   0.527  12.446  0.3280 -0.4880  0.4063
  150DOPC  H10X17975   6.173   0.494  12.414  0.5918 -0.3642  1.0998
  150DOPC  C31117976   5.971   0.473  12.348  0.4384  0.5282  0.7271
  150DOPC  H11X17977   5.866   0.502  12.371  0.2538 -0.1760  0.7913
  150DOPC  H11Y17978   5.980   0.362  12.344 -0.4094  0.3798  2.0786
  150DOPC  C31217979   6.002   0.514  12.202 -0.0537 -0.0433 -0.3826
  150DOPC  H12X17980   6.111   0.510  12.179  0.3467  1.6310  1.0135
  150DOPC  H12Y17981   5.978   0.622  12.198 -0.9897 -0.1796  0.9509
  150DOPC  C31317982   5.914   0.444  12.097  0.0576  0.2582 -0.1367
  150DOPC  H13X17983   5.926   0.337  12.124 -1.9364  0.0109 -0.0186
  150DOPC  H13Y17984   5.809   0.476  12.119  0.2035  0.0827  0.8663
  150DOPC  C31417985   5.960   0.473  11.950  0.2729 -0.0925  0.1243
  150DOPC  H14X17986   6.066   0.441  11.934 -0.6915 -3.0722 -1.0753
  150DOPC  H14Y17987   5.911   0.413  11.869 -1.8132 -0.1085  1.3369
  150DOPC  C31517988   5.948   0.624  11.909 -0.0179  0.7051 -0.2547
  150DOPC  H15X17989   6.024   0.679  11.968 -1.1614  0.2607  1.7130
  150DOPC  H15Y17990   5.850   0.653  11.952 -0.0587  0.5111 -0.2162
  150DOPC  C31617991   5.967   0.672  11.763  0.7883  0.3644  0.0953
  150DOPC  H16X17992   5.970   0.783  11.761 -0.8009  0.4249 -0.7249
  150DOPC  H16Y17993   6.059   0.624  11.723  0.2378  0.0013 -0.7658
  150DOPC  C31717994   5.853   0.627  11.669  0.4785  0.0859 -0.1811
  150DOPC  H17X17995   5.878   0.519  11.662  2.0192  0.3434  0.8554
  150DOPC  H17Y17996   5.755   0.631  11.721  0.1784 -0.2221 -0.7238
  150DOPC  C31817997   5.853   0.691  11.537 -0.0074  0.0595  0.0760
  150DOPC  H18X17998   5.799   0.788  11.531 -1.4604 -0.7559 -0.8988
  150DOPC  H18Y17999   5.954   0.695  11.492  0.5122  1.5938  1.3110
  150DOPC  H18Z18000   5.798   0.628  11.463 -1.2957  0.8172  0.3686
  151DOPC     N18001   2.038   4.859  13.806  0.7017 -0.4783  1.1838
  151DOPC   C1218002   2.108   4.835  13.671 -0.0770  0.5751 -0.1060
  151DOPC  H12A18003   2.155   4.928  13.642 -0.8686  0.4393 -2.0036
  151DOPC  H12B18004   2.038   4.826  13.588 -0.7440 -0.3915  0.5392
  151DOPC   C1318005   2.120   4.921  13.909  1.0143 -0.2789 -0.2450
  151DOPC  H13A18006   2.084   4.928  14.011 -0.1697  0.8564 -0.7140
  151DOPC  H13B18007   2.213   4.866  13.913  0.5519 -1.1598 -1.1071
  151DOPC  H13C18008   2.145   5.023  13.883  0.6349  0.0092  0.4924
  151DOPC   C1418009   1.979   4.733  13.860  0.4153  0.1890  0.2277
  151DOPC  H14A18010   1.888   4.699  13.813 -0.0397  0.6047  0.7923
  151DOPC  H14B18011   2.054   4.656  13.852 -0.7021 -0.8483 -0.7169
  151DOPC  H14C18012   1.955   4.759  13.961  2.0819  4.4587 -0.2721
  151DOPC   C1518013   1.915   4.951  13.790 -0.6152  0.2408  0.3795
  151DOPC  H15A18014   1.882   4.988  13.887 -2.0878  0.6099 -0.2349
  151DOPC  H15B18015   1.839   4.915  13.723 -0.3253  1.5241 -0.6769
  151DOPC  H15C18016   1.939   5.046  13.745 -0.6064 -0.8330 -1.9838
  151DOPC   C1118017   2.202   4.714  13.659  0.0442  0.4860 -0.3489
  151DOPC  H11A18018   2.143   4.626  13.692 -1.1467  1.9904  1.6928
  151DOPC  H11B18019   2.242   4.695  13.556  0.6012  1.2027 -0.2728
  151DOPC     P18020   2.449   4.798  13.708 -0.1068  0.2246  0.0963
  151DOPC   O1318021   2.559   4.717  13.766  0.1256  0.5635 -0.0146
  151DOPC   O1418022   2.446   4.942  13.747  0.6242  0.3989  0.2320
  151DOPC   O1218023   2.311   4.728  13.745  0.3211  0.9244  0.1301
  151DOPC   O1118024   2.457   4.787  13.552 -0.2452 -0.2429 -0.3226
  151DOPC    C118025   2.523   4.670  13.508 -0.1245 -0.0897  0.2436
  151DOPC    HA18026   2.477   4.572  13.537  0.2917 -0.6453 -0.9184
  151DOPC    HB18027   2.632   4.666  13.526  0.0751  0.2604 -0.8305
  151DOPC    C218028   2.508   4.668  13.350 -0.2629 -0.4376  0.1664
  151DOPC    HS18029   2.505   4.772  13.311  0.5217 -1.6069 -3.3308
  151DOPC   O2118030   2.391   4.595  13.311  0.5226 -0.3668 -0.3009
  151DOPC   C2118031   2.273   4.664  13.299 -0.1625  0.1348 -0.6177
  151DOPC   O2218032   2.269   4.784  13.315 -0.4406 -0.0427  0.0037
  151DOPC   C2218033   2.154   4.577  13.261 -0.5385  0.4236 -0.0175
  151DOPC   H2R18034   2.057   4.631  13.264  0.5589  2.6405 -1.6283
  151DOPC   H2S18035   2.157   4.495  13.336 -2.9611  0.1050 -0.2013
  151DOPC    C318036   2.629   4.594  13.295 -0.3712  0.6944 -0.2306
  151DOPC    HX18037   2.624   4.490  13.331  2.6742  0.4513 -0.1904
  151DOPC    HY18038   2.728   4.632  13.328  0.4824 -0.5867 -1.2223
  151DOPC   O3118039   2.631   4.598  13.150 -0.3318 -0.1445 -0.4250
  151DOPC   C3118040   2.558   4.507  13.088 -0.1108 -0.0579 -0.1860
  151DOPC   O3218041   2.504   4.411  13.138 -0.0668  0.6633 -0.3046
  151DOPC   C3218042   2.553   4.546  12.940 -0.0031 -0.7358 -1.1836
  151DOPC   H2X18043   2.490   4.473  12.887  1.9691 -2.0491 -1.8247
  151DOPC   H2Y18044   2.500   4.644  12.943 -0.6618 -1.0124 -2.9963
  151DOPC   C2318045   2.174   4.508  13.122 -0.1158  0.0921 -0.4826
  151DOPC   H3R18046   2.120   4.411  13.122 -2.0733  1.0770  1.7190
  151DOPC   H3S18047   2.283   4.488  13.109 -0.0934 -3.1897  3.0510
  151DOPC   C2418048   2.119   4.597  13.010 -0.1837  0.3439 -0.7499
  151DOPC   H4R18049   2.158   4.699  13.027  0.0930  0.2070 -0.5518
  151DOPC   H4S18050   2.008   4.593  13.008 -0.3549  2.4574  0.9354
  151DOPC   C2518051   2.176   4.567  12.868  0.2967 -0.5224 -0.1740
  151DOPC   H5R18052   2.160   4.458  12.853 -0.1876 -0.7360  1.5959
  151DOPC   H5S18053   2.281   4.601  12.882 -0.0891  0.5730  0.1900
  151DOPC   C2618054   2.095   4.641  12.762  0.2506 -0.4515 -0.2925
  151DOPC   H6R18055   2.109   4.750  12.778 -0.2273 -0.4368  0.0308
  151DOPC   H6S18056   1.987   4.617  12.771  0.5048 -0.9850  2.0892
  151DOPC   C2718057   2.141   4.601  12.623 -0.3229  0.3872 -0.0031
  151DOPC   H7R18058   2.137   4.491  12.629 -0.9477  0.4422  0.7300
  151DOPC   H7S18059   2.248   4.629  12.614 -0.6793  1.6753 -0.6052
  151DOPC   C2818060   2.053   4.643  12.503  0.0740 -0.4166 -0.3577
  151DOPC   H8R18061   2.031   4.752  12.499  0.9361 -0.2193  0.1554
  151DOPC   H8S18062   1.956   4.596  12.532  0.0884  0.6427  1.5921
  151DOPC   C2918063   2.099   4.584  12.380 -0.0507 -0.3907  0.7187
  151DOPC   H9R18064   2.167   4.499  12.396  0.7984  0.6410  3.0129
  151DOPC  C21018065   2.097   4.635  12.255  0.1937 -0.6507 -0.2203
  151DOPC  H10R18066   2.151   4.571  12.183  0.0373 -3.0201  1.6436
  151DOPC  C21118067   2.018   4.752  12.211 -0.1906 -0.7217 -1.1641
  151DOPC  H11R18068   1.945   4.780  12.291 -0.1388 -1.1805 -0.9526
  151DOPC  H11S18069   1.965   4.713  12.122 -0.0353 -0.0785 -1.5443
  151DOPC  C21218070   2.099   4.884  12.170 -0.2216  0.4462 -0.4156
  151DOPC  H12R18071   2.174   4.912  12.247 -1.3637 -1.4311  1.4974
  151DOPC  H12S18072   2.030   4.971  12.179  0.5349  1.0313 -0.1458
  151DOPC  C21318073   2.151   4.880  12.017 -0.3019  0.0847 -0.6251
  151DOPC  H13R18074   2.138   4.773  11.993  2.1300 -0.4040 -0.0619
  151DOPC  H13S18075   2.261   4.892  12.007 -0.2082 -1.2906 -1.4614
  151DOPC  C21418076   2.082   4.976  11.928 -0.0107  0.0193  0.1092
  151DOPC  H14R18077   2.128   5.075  11.950  1.8568 -1.0467  1.3470
  151DOPC  H14S18078   1.976   4.960  11.958 -0.4642 -0.4125 -1.6049
  151DOPC  C21518079   2.093   4.952  11.779 -0.1975  0.9044 -0.1319
  151DOPC  H15R18080   2.061   4.850  11.750  0.9063  0.4143  0.3399
  151DOPC  H15S18081   2.201   4.938  11.761 -0.0218 -0.8392  1.8788
  151DOPC  C21618082   2.033   5.062  11.691 -0.1879  0.0164  0.2008
  151DOPC  H16R18083   2.087   5.157  11.708  0.0375 -0.2619  1.1115
  151DOPC  H16S18084   1.932   5.067  11.736 -1.2776  1.6683 -2.2235
  151DOPC  C21718085   2.027   5.019  11.545  0.2108  0.6894  0.5732
  151DOPC  H17R18086   1.973   4.922  11.550 -2.9223  2.3120 -0.0411
  151DOPC  H17S18087   2.132   4.996  11.516 -0.1952  0.1207 -0.4845
  151DOPC  C21818088   1.966   5.126  11.459  0.5226  0.8531  0.4432
  151DOPC  H18R18089   1.974   5.096  11.352  1.1964  0.7860  0.5031
  151DOPC  H18S18090   2.028   5.218  11.460 -0.0727  1.2683 -0.0867
  151DOPC  H18T18091   1.868   5.165  11.493  0.0370  0.1464 -0.1131
  151DOPC   C3318092   2.680   4.558  12.855 -0.1799  0.5862  0.8584
  151DOPC   H3X18093   2.743   4.470  12.878 -1.1959 -0.0645  1.2237
  151DOPC   H3Y18094   2.729   4.654  12.882  1.7154 -0.4796  1.3467
  151DOPC   C3418095   2.662   4.568  12.700 -0.4126  0.5437  0.1020
  151DOPC   H4X18096   2.586   4.499  12.658 -0.4003  0.5273  0.1068
  151DOPC   H4Y18097   2.761   4.550  12.652  0.4838  0.4596  1.8757
  151DOPC   C3518098   2.613   4.709  12.652  0.4679  0.4653 -0.2667
  151DOPC   H5X18099   2.687   4.772  12.707 -0.0355  2.8545 -2.1653
  151DOPC   H5Y18100   2.509   4.721  12.688  0.9236  3.5858  0.2504
  151DOPC   C3618101   2.638   4.738  12.504  0.6318 -0.2456 -0.2517
  151DOPC   H6X18102   2.686   4.838  12.507 -1.0629  0.5932  0.3459
  151DOPC   H6Y18103   2.715   4.664  12.475 -1.1799 -2.0604 -0.6646
  151DOPC   C3718104   2.513   4.711  12.413 -0.4388  0.5588 -0.3196
  151DOPC   H7X18105   2.491   4.603  12.427  0.6013  0.4031  0.2276
  151DOPC   H7Y18106   2.430   4.782  12.430 -1.3420 -0.4130 -0.5141
  151DOPC   C3818107   2.564   4.734  12.266  0.4089 -0.7625 -0.1702
  151DOPC   H8X18108   2.642   4.657  12.247 -0.7392 -2.6507  2.1633
  151DOPC   H8Y18109   2.608   4.836  12.264  2.3562 -1.5575 -0.0637
  151DOPC   C3918110   2.452   4.711  12.167 -0.7129 -0.0657  0.0510
  151DOPC   H9X18111   2.355   4.690  12.215  0.8042 -1.0897  2.9010
  151DOPC  C31018112   2.471   4.690  12.036  0.3133 -0.1389 -0.2740
  151DOPC  H10X18113   2.386   4.675  11.968  1.0078 -0.1009 -1.1732
  151DOPC  C31118114   2.601   4.680  11.965  0.2160 -0.4511  0.0734
  151DOPC  H11X18115   2.597   4.584  11.910  0.6455  0.9005 -2.4911
  151DOPC  H11Y18116   2.688   4.676  12.033  1.2727  1.2910 -1.1068
  151DOPC  C31218117   2.618   4.784  11.855 -0.2061  0.9677  0.1830
  151DOPC  H12X18118   2.724   4.787  11.824 -0.4053 -0.3302 -0.7072
  151DOPC  H12Y18119   2.595   4.885  11.894  1.4183  2.4866 -2.5382
  151DOPC  C31318120   2.529   4.755  11.739  0.1851 -0.0924  0.0954
  151DOPC  H13X18121   2.538   4.645  11.723  1.3642 -0.0903  0.6609
  151DOPC  H13Y18122   2.422   4.775  11.760 -0.0138 -0.1504 -0.7976
  151DOPC  C31418123   2.575   4.823  11.611 -0.3709 -0.0081  0.2902
  151DOPC  H14X18124   2.589   4.932  11.628  2.4259 -0.7884  4.0527
  151DOPC  H14Y18125   2.681   4.800  11.586  0.0860  0.5519  1.6527
  151DOPC  C31518126   2.481   4.817  11.494  0.7451  0.3978  0.4123
  151DOPC  H15X18127   2.379   4.834  11.536  1.8559  1.3847  2.9154
  151DOPC  H15Y18128   2.480   4.716  11.448  0.3898  0.7085 -0.2792
  151DOPC  C31618129   2.504   4.921  11.387  0.0661  0.1867  0.0668
  151DOPC  H16X18130   2.486   5.022  11.429  0.5185  1.0962 -1.8153
  151DOPC  H16Y18131   2.609   4.918  11.353 -0.0088  1.3766 -0.3310
  151DOPC  C31718132   2.427   4.900  11.255  0.5361 -0.0454 -0.0857
  151DOPC  H17X18133   2.469   4.818  11.193 -1.4631 -1.3419  0.1585
  151DOPC  H17Y18134   2.323   4.867  11.276  0.3466 -0.7307 -1.8843
  151DOPC  C31818135   2.408   5.026  11.171  0.1252 -0.4195 -0.2772
  151DOPC  H18X18136   2.351   4.985  11.084 -0.8556 -2.4036  1.2267
  151DOPC  H18Y18137   2.354   5.114  11.213  0.7101 -0.4553  0.5610
  151DOPC  H18Z18138   2.503   5.072  11.135 -1.1931  0.6357 -2.6916
  152DOPC     N18139   4.864   2.660  13.302  0.3620  0.8710 -0.7093
  152DOPC   C1218140   4.883   2.734  13.175 -0.9589 -0.6919  0.2731
  152DOPC  H12A18141   4.831   2.685  13.093 -0.8159 -2.5434  1.2256
  152DOPC  H12B18142   4.985   2.723  13.142  0.0635 -0.9135  3.2237
  152DOPC   C1318143   4.949   2.708  13.420  0.3167 -0.6590  0.0633
  152DOPC  H13A18144   5.053   2.688  13.398  0.6643 -0.1019  1.1155
  152DOPC  H13B18145   4.937   2.816  13.426  0.4342 -0.6456  0.0725
  152DOPC  H13C18146   4.924   2.652  13.509 -1.4732  0.7374  0.4934
  152DOPC   C1418147   4.908   2.517  13.292  0.1990 -0.2341 -0.6675
  152DOPC  H14A18148   4.880   2.450  13.372  0.0779 -1.1691 -1.4681
  152DOPC  H14B18149   4.862   2.471  13.206 -2.2227  1.4712 -0.3756
  152DOPC  H14C18150   5.014   2.502  13.281  0.1523 -0.1421 -1.2779
  152DOPC   C1518151   4.718   2.668  13.345 -0.3650 -0.4037  0.2800
  152DOPC  H15A18152   4.682   2.768  13.364 -1.8117 -0.9598  0.6342
  152DOPC  H15B18153   4.704   2.600  13.428 -1.2796 -0.7620 -0.1464
  152DOPC  H15C18154   4.670   2.619  13.261  1.8515 -0.3329 -1.1244
  152DOPC   C1118155   4.847   2.883  13.163  0.4184 -0.1621 -0.2636
  152DOPC  H11A18156   4.850   2.912  13.056 -4.6803 -1.9540 -1.1494
  152DOPC  H11B18157   4.740   2.885  13.194  0.6040  0.8573  0.3503
  152DOPC     P18158   5.049   3.047  13.206  0.0618 -0.3360  0.2731
  152DOPC   O1318159   5.164   2.959  13.229 -0.2223 -0.1602  0.1622
  152DOPC   O1418160   5.052   3.171  13.283 -0.2234 -0.2269  0.0586
  152DOPC   O1218161   4.923   2.969  13.249  0.4903 -0.1983  0.0815
  152DOPC   O1118162   5.042   3.092  13.050  0.6074 -0.2698  0.1635
  152DOPC    C118163   5.114   3.005  12.964 -0.6028  0.0198 -0.0467
  152DOPC    HA18164   5.087   2.898  12.969  0.2141 -0.2066 -0.3566
  152DOPC    HB18165   5.222   3.011  12.988 -0.8505  0.5278  1.0490
  152DOPC    C218166   5.099   3.052  12.812 -0.3713  0.2699 -0.6392
  152DOPC    HS18167   4.991   3.041  12.791 -0.4274  3.8631 -3.0851
  152DOPC   O2118168   5.187   2.981  12.728  0.3605 -0.5493  0.2984
  152DOPC   C2118169   5.148   2.860  12.680 -0.1971  0.7175  0.0740
  152DOPC   O2218170   5.032   2.822  12.689 -0.2324 -0.4282  0.2960
  152DOPC   C2218171   5.268   2.779  12.620  0.4675 -0.6651 -0.5969
  152DOPC   H2R18172   5.330   2.751  12.707  0.6141 -0.3395 -0.5963
  152DOPC   H2S18173   5.332   2.834  12.547  0.8414 -0.1870  0.0848
  152DOPC    C318174   5.115   3.206  12.798 -0.2925 -0.0886 -0.0194
  152DOPC    HX18175   5.222   3.217  12.827 -0.2864  1.4762 -0.5742
  152DOPC    HY18176   5.059   3.265  12.874 -0.3617  0.8128 -0.7544
  152DOPC   O3118177   5.098   3.264  12.667  0.0202 -0.1631  0.3384
  152DOPC   C3118178   4.976   3.245  12.632  0.9255 -0.3843  0.3373
  152DOPC   O3218179   4.878   3.228  12.706  0.0250 -0.0305  0.1373
  152DOPC   C3218180   4.966   3.260  12.481  0.1869 -0.2922 -0.0479
  152DOPC   H2X18181   4.861   3.297  12.474  0.4495  0.6507  0.9039
  152DOPC   H2Y18182   5.041   3.338  12.457  0.9495 -1.7193 -2.7878
  152DOPC   C2318183   5.212   2.646  12.568  0.5495  0.9323 -0.9691
  152DOPC   H3R18184   5.165   2.581  12.645  1.1657  1.5886 -0.0159
  152DOPC   H3S18185   5.294   2.578  12.539 -0.8342 -1.4542  0.3578
  152DOPC   C2418186   5.129   2.661  12.444 -0.2316  0.1680 -0.0220
  152DOPC   H4R18187   5.035   2.717  12.461  0.8446  1.8575  0.5022
  152DOPC   H4S18188   5.106   2.560  12.403 -0.2595  0.0093  0.3824
  152DOPC   C2518189   5.205   2.738  12.331  0.3438 -0.6053 -0.4030
  152DOPC   H5R18190   5.307   2.700  12.313  0.7514  1.0777 -1.9255
  152DOPC   H5S18191   5.221   2.844  12.362  2.2419 -0.9063 -0.2711
  152DOPC   C2618192   5.139   2.723  12.193  0.4547  0.0600 -0.0598
  152DOPC   H6R18193   5.043   2.780  12.190 -0.2933 -1.1463  0.5255
  152DOPC   H6S18194   5.115   2.618  12.167  0.9703  0.1220 -0.8227
  152DOPC   C2718195   5.239   2.772  12.086  0.5137 -0.1308  0.3673
  152DOPC   H7R18196   5.334   2.717  12.103 -0.1076 -1.2221  0.4017
  152DOPC   H7S18197   5.248   2.879  12.114  0.5112  0.8191 -2.9082
  152DOPC   C2818198   5.178   2.773  11.943  0.7373  0.4603  0.4296
  152DOPC   H8R18199   5.084   2.830  11.953 -0.1865 -0.7732 -0.8546
  152DOPC   H8S18200   5.146   2.666  11.941  1.9525  0.0851 -1.3838
  152DOPC   C2918201   5.263   2.792  11.826 -0.1893 -0.0557 -0.3250
  152DOPC   H9R18202   5.351   2.727  11.833 -0.3626 -0.2986 -0.3483
  152DOPC  C21018203   5.257   2.874  11.719  0.3248 -0.1611 -0.1804
  152DOPC  H10R18204   5.329   2.865  11.637  0.0556  1.9770 -0.7220
  152DOPC  C21118205   5.148   2.978  11.697 -0.1779  0.3584  0.0354
  152DOPC  H11R18206   5.089   2.999  11.788 -2.7396 -1.0719 -1.1942
  152DOPC  H11S18207   5.070   2.935  11.632 -0.0525 -1.1963  0.8808
  152DOPC  C21218208   5.191   3.114  11.636  0.0879 -0.6558  0.9728
  152DOPC  H12R18209   5.292   3.136  11.678 -0.4524  0.3977  1.7641
  152DOPC  H12S18210   5.120   3.189  11.675 -1.3051 -1.8932  0.9046
  152DOPC  C21318211   5.200   3.113  11.481  0.1068 -0.1536  0.2128
  152DOPC  H13R18212   5.112   3.067  11.431  0.2929  0.0541 -0.3122
  152DOPC  H13S18213   5.285   3.045  11.460 -1.6402 -2.7929  1.1071
  152DOPC  C21418214   5.206   3.239  11.402  0.3522 -0.3735  0.6452
  152DOPC  H14R18215   5.291   3.305  11.428  1.0216 -0.4247 -1.2484
  152DOPC  H14S18216   5.111   3.294  11.423 -0.3788 -1.6494  0.7387
  152DOPC  C21518217   5.219   3.211  11.253  0.0866  0.0048  0.5050
  152DOPC  H15R18218   5.137   3.139  11.232  0.8927 -1.1391  1.1896
  152DOPC  H15S18219   5.316   3.178  11.212 -0.0318  1.4078 -0.9983
  152DOPC  C21618220   5.175   3.331  11.171 -0.2924  0.0931  0.3448
  152DOPC  H16R18221   5.254   3.409  11.181 -0.8186  0.5999  0.6466
  152DOPC  H16S18222   5.080   3.377  11.206  0.2258 -0.0273  1.9937
  152DOPC  C21718223   5.157   3.287  11.026  0.1957  0.0401 -0.0781
  152DOPC  H17R18224   5.096   3.194  11.029  1.2854 -0.7343  4.2341
  152DOPC  H17S18225   5.253   3.261  10.977 -0.5938 -1.8060 -0.7397
  152DOPC  C21818226   5.080   3.383  10.937  0.3842 -0.0020 -0.1760
  152DOPC  H18R18227   5.125   3.484  10.932  0.5760 -0.0184  0.9481
  152DOPC  H18S18228   4.980   3.398  10.983  0.1503 -0.2173 -0.6028
  152DOPC  H18T18229   5.057   3.342  10.836  2.0775 -0.1946 -0.5175
  152DOPC   C3318230   4.986   3.130  12.403 -0.2055 -0.7098  0.2472
  152DOPC   H3X18231   4.934   3.044  12.451 -1.3375  0.2574  0.8216
  152DOPC   H3Y18232   5.095   3.115  12.386  0.0557  0.9129  0.3944
  152DOPC   C3418233   4.926   3.148  12.261  0.4000  0.3200 -0.2167
  152DOPC   H4X18234   4.822   3.182  12.280  0.1141 -1.0811  0.9391
  152DOPC   H4Y18235   4.926   3.049  12.210 -1.3397 -0.8328  1.8515
  152DOPC   C3518236   4.995   3.245  12.163  0.2813 -0.6330  0.5151
  152DOPC   H5X18237   5.103   3.225  12.172  0.3205 -0.3078  0.7700
  152DOPC   H5Y18238   4.962   3.343  12.203  1.4893 -0.1085  0.2579
  152DOPC   C3618239   4.945   3.223  12.022  0.2737 -0.4805  0.4362
  152DOPC   H6X18240   4.989   3.297  11.953  0.5381 -0.8261  0.2307
  152DOPC   H6Y18241   4.983   3.125  11.987 -0.4638 -0.8789  0.7261
  152DOPC   C3718242   4.787   3.217  12.001 -0.1290 -0.0851 -0.0659
  152DOPC   H7X18243   4.751   3.125  12.052  0.7610  0.2799  1.2754
  152DOPC   H7Y18244   4.741   3.305  12.050  0.0646  0.4277 -0.7852
  152DOPC   C3818245   4.746   3.219  11.855  0.3978 -0.3010  0.0492
  152DOPC   H8X18246   4.768   3.324  11.823  0.2683  1.1030  3.9810
  152DOPC   H8Y18247   4.637   3.207  11.837 -0.2771 -0.4707  3.5341
  152DOPC   C3918248   4.813   3.115  11.762 -0.7848 -0.6163 -0.4343
  152DOPC   H9X18249   4.862   3.035  11.819 -0.9928 -0.8076 -0.5206
  152DOPC  C31018250   4.814   3.111  11.631 -0.2222  0.1520  0.2538
  152DOPC  H10X18251   4.862   3.024  11.584  0.0905 -1.2322  2.8987
  152DOPC  C31118252   4.759   3.214  11.547 -0.5873 -1.1162  0.2442
  152DOPC  H11X18253   4.835   3.258  11.479  0.4706  0.6117  2.4146
  152DOPC  H11Y18254   4.724   3.307  11.598  0.1750  1.0519 -2.9167
  152DOPC  C31218255   4.637   3.159  11.464 -0.6385 -0.4236  0.5570
  152DOPC  H12X18256   4.585   3.246  11.419  0.7501 -0.2591 -0.7974
  152DOPC  H12Y18257   4.564   3.102  11.526 -0.8226  1.0169  1.7003
  152DOPC  C31318258   4.672   3.073  11.346  0.8021 -0.0170  0.3632
  152DOPC  H13X18259   4.744   2.991  11.368 -2.4927 -2.6509  2.2048
  152DOPC  H13Y18260   4.577   3.021  11.321  1.0989  0.2542 -1.4939
  152DOPC  C31418261   4.726   3.159  11.226  0.4105 -0.2774 -0.3608
  152DOPC  H14X18262   4.658   3.246  11.217 -2.7103 -2.7285 -2.2854
  152DOPC  H14Y18263   4.831   3.193  11.243 -0.4791  1.7101  1.6689
  152DOPC  C31518264   4.717   3.082  11.093 -0.3732 -0.3760  0.3728
  152DOPC  H15X18265   4.614   3.040  11.085 -0.6493  0.4148 -0.3279
  152DOPC  H15Y18266   4.785   2.994  11.096  0.1695  0.0546  1.7315
  152DOPC  C31618267   4.758   3.174  10.980 -0.3205 -0.2040  0.0387
  152DOPC  H16X18268   4.677   3.247  10.959 -1.6593 -1.4627  0.6353
  152DOPC  H16Y18269   4.853   3.230  10.991 -0.5953  0.4809 -0.9840
  152DOPC  C31718270   4.784   3.095  10.851 -0.2395 -0.0797  0.5172
  152DOPC  H17X18271   4.884   3.049  10.862  0.3320  0.4800 -1.8569
  152DOPC  H17Y18272   4.718   3.006  10.840  1.2791 -1.0101 -2.2054
  152DOPC  C31818273   4.783   3.183  10.717 -0.1388 -0.5476  0.8107
  152DOPC  H18X18274   4.839   3.277  10.733 -1.9268  0.3282  2.3009
  152DOPC  H18Y18275   4.831   3.123  10.637 -0.5895  0.0018  0.1181
  152DOPC  H18Z18276   4.677   3.211  10.700 -0.8900 -2.4760  1.8748
  153DOPC     N18277   6.340   0.090  14.478 -0.0706  0.3644 -0.1903
  153DOPC   C1218278   6.276   0.039  14.348 -0.1474  0.1636 -0.3086
  153DOPC  H12A18279   6.180   0.087  14.345 -0.1286  0.4873  2.4105
  153DOPC  H12B18280   6.253  -0.067  14.345  0.4522 -0.0030  0.7020
  153DOPC   C1318281   6.479   0.026  14.495 -0.7434 -0.7824  0.0861
  153DOPC  H13A18282   6.524   0.069  14.583  1.1141 -0.1660 -1.1208
  153DOPC  H13B18283   6.471  -0.080  14.517 -0.5917 -0.6497  0.8235
  153DOPC  H13C18284   6.536   0.038  14.404 -0.6644 -0.4523  0.1784
  153DOPC   C1418285   6.253   0.052  14.601 -0.2585 -0.1185  1.0132
  153DOPC  H14A18286   6.294   0.082  14.697  1.9013  0.1714  0.0735
  153DOPC  H14B18287   6.161   0.106  14.585  2.0318  2.9167 -4.9149
  153DOPC  H14C18288   6.226  -0.052  14.593 -0.8563  0.1395 -0.5818
  153DOPC   C1518289   6.363   0.238  14.471  0.5707 -0.6747 -0.1798
  153DOPC  H15A18290   6.379   0.285  14.568 -0.9776 -0.3762 -0.0312
  153DOPC  H15B18291   6.267   0.283  14.449 -0.2241 -0.7345  2.6570
  153DOPC  H15C18292   6.424   0.255  14.384 -0.5253 -0.1928 -0.8727
  153DOPC   C1118293   6.345   0.071  14.205 -0.0865 -0.5225  0.0339
  153DOPC  H11A18294   6.423  -0.007  14.192  0.2937 -0.4475  1.6978
  153DOPC  H11B18295   6.267   0.055  14.128 -0.7588  1.6840  0.1774
  153DOPC     P18296   6.502   0.250  14.088 -0.3854 -0.0257  0.1489
  153DOPC   O1318297   6.629   0.173  14.105 -0.0155  0.0873  0.5231
  153DOPC   O1418298   6.518   0.396  14.104  0.0669  0.0100  0.3223
  153DOPC   O1218299   6.398   0.203  14.199 -0.6845 -0.0672  0.4709
  153DOPC   O1118300   6.431   0.219  13.949  0.0919  0.4126  0.4787
  153DOPC    C118301   6.328   0.300  13.895  0.0886  0.1718  0.3053
  153DOPC    HA18302   6.294   0.379  13.965 -1.5051 -1.2364  1.2004
  153DOPC    HB18303   6.238   0.238  13.873 -0.7608  1.0027  1.2891
  153DOPC    C218304   6.371   0.371  13.766 -0.4343 -0.4722  0.2526
  153DOPC    HS18305   6.286   0.431  13.729 -0.5957  0.2799  1.7729
  153DOPC   O2118306   6.417   0.281  13.666 -0.3801  1.0592 -0.0537
  153DOPC   C2118307   6.327   0.210  13.606 -0.7237  0.1765  0.2051
  153DOPC   O2218308   6.206   0.217  13.621  0.0707 -0.0745  0.5444
  153DOPC   C2218309   6.392   0.120  13.498 -0.3209 -0.4685  0.3969
  153DOPC   H2R18310   6.492   0.080  13.526 -0.0769 -0.4823 -0.4561
  153DOPC   H2S18311   6.426   0.185  13.414  0.2291  3.0098  3.0752
  153DOPC    C318312   6.486   0.471  13.795  0.3037  0.5848 -0.0589
  153DOPC    HX18313   6.579   0.411  13.802  1.0391  1.8273  1.6655
  153DOPC    HY18314   6.469   0.518  13.895  0.4588  0.2113  0.1432
  153DOPC   O3118315   6.502   0.564  13.685  0.3013 -0.1689 -0.0601
  153DOPC   C3118316   6.419   0.666  13.692  0.0648  0.6150 -0.1888
  153DOPC   O3218317   6.335   0.685  13.779 -0.0467  0.1943 -0.1514
  153DOPC   C3218318   6.446   0.760  13.575  0.1358 -0.8563  0.1844
  153DOPC   H2X18319   6.388   0.852  13.595  0.1985 -0.6878 -0.3950
  153DOPC   H2Y18320   6.553   0.790  13.573  0.1878 -1.0040  0.5617
  153DOPC   C2318321   6.302   0.004  13.448  0.8872  0.4420 -0.0574
  153DOPC   H3R18322   6.249  -0.038  13.537  1.0042 -0.4731 -0.4128
  153DOPC   H3S18323   6.371  -0.079  13.422  0.5738 -0.4130  1.6625
  153DOPC   C2418324   6.209   0.042  13.333 -0.3078 -0.0204 -0.0791
  153DOPC   H4R18325   6.282   0.098  13.271  0.5977 -0.9016  0.1546
  153DOPC   H4S18326   6.144   0.116  13.383  0.8939  1.1578 -0.1961
  153DOPC   C2518327   6.131  -0.077  13.287  0.2607  0.6916  0.1083
  153DOPC   H5R18328   6.076  -0.118  13.375  0.6075  0.6362  0.3031
  153DOPC   H5S18329   6.196  -0.159  13.248  0.6426  1.8389 -1.7935
  153DOPC   C2618330   6.032  -0.030  13.178 -0.2722 -0.2308 -0.3354
  153DOPC   H6R18331   5.949   0.032  13.217  1.0005  0.9205  0.6187
  153DOPC   H6S18332   5.987  -0.121  13.133  0.1255 -0.4377 -0.3217
  153DOPC   C2718333   6.090   0.060  13.066  0.2811 -0.3574  0.0464
  153DOPC   H7R18334   6.113   0.161  13.105 -0.9972 -0.2362  0.5163
  153DOPC   H7S18335   6.015   0.067  12.985 -0.7741 -1.7689  0.8436
  153DOPC   C2818336   6.209   0.013  12.978 -0.0038  0.0789 -0.4803
  153DOPC   H8R18337   6.299  -0.006  13.041  0.7681  0.7028 -1.3705
  153DOPC   H8S18338   6.230   0.088  12.898  2.8910 -0.5476 -0.4359
  153DOPC   C2918339   6.182  -0.119  12.901 -0.2345 -0.9581  0.7435
  153DOPC   H9R18340   6.161  -0.208  12.962  2.6295 -4.7692 -3.2148
  153DOPC  C21018341   6.152  -0.129  12.769  0.4753  0.8678  0.7554
  153DOPC  H10R18342   6.125  -0.229  12.733  3.1828  1.4491 -3.6851
  153DOPC  C21118343   6.134  -0.017  12.665  0.0416  0.2559 -0.1830
  153DOPC  H11R18344   6.228   0.039  12.648  1.4437 -2.2001 -0.9885
  153DOPC  H11S18345   6.049   0.050  12.693 -0.1710  1.0819 -2.5352
  153DOPC  C21218346   6.091  -0.054  12.519 -0.0878 -0.0273 -0.1442
  153DOPC  H12R18347   6.083   0.044  12.467  0.0150 -0.5358 -1.1438
  153DOPC  H12S18348   5.990  -0.100  12.522  0.1202 -0.4583  0.8944
  153DOPC  C21318349   6.196  -0.139  12.445 -0.4933  0.1794 -0.9324
  153DOPC  H13R18350   6.243  -0.212  12.514  1.1129  1.3801 -0.7065
  153DOPC  H13S18351   6.271  -0.065  12.412 -1.1134  1.8659  1.1685
  153DOPC  C21418352   6.145  -0.212  12.317  0.5413  0.0280  0.0021
  153DOPC  H14R18353   6.119  -0.135  12.241 -1.3502 -0.7100 -0.1745
  153DOPC  H14S18354   6.044  -0.252  12.344  0.1451  0.1782 -1.1779
  153DOPC  C21518355   6.240  -0.313  12.258  0.5218  0.7399 -0.1331
  153DOPC  H15R18356   6.263  -0.392  12.333 -2.4923 -0.2533 -0.1120
  153DOPC  H15S18357   6.334  -0.257  12.238 -1.2722  3.4989 -1.4273
  153DOPC  C21618358   6.188  -0.388  12.131  0.2032  0.0996 -0.7605
  153DOPC  H16R18359   6.164  -0.293  12.079 -2.9346  2.5175  4.2080
  153DOPC  H16S18360   6.089  -0.436  12.146  0.4209  0.1541  1.1131
  153DOPC  C21718361   6.274  -0.477  12.049 -0.1008  0.4723 -0.4743
  153DOPC  H17R18362   6.214  -0.506  11.960 -1.7845  0.9510  0.4595
  153DOPC  H17S18363   6.285  -0.564  12.116 -0.0132  1.0541  0.2813
  153DOPC  C21818364   6.405  -0.419  12.007 -0.0567 -0.4546 -0.2019
  153DOPC  H18R18365   6.466  -0.411  12.099  0.0705 -3.5135  0.0962
  153DOPC  H18S18366   6.392  -0.325  11.949  0.3732 -0.4914 -0.3700
  153DOPC  H18T18367   6.456  -0.489  11.937  0.4649 -0.2812 -0.0007
  153DOPC   C3318368   6.415   0.687  13.443  0.7562 -0.1283  0.0373
  153DOPC   H3X18369   6.322   0.626  13.438  0.5895  0.1712 -0.4619
  153DOPC   H3Y18370   6.499   0.618  13.420  1.0222  0.2180 -0.0301
  153DOPC   C3418371   6.410   0.777  13.319  0.3470  0.2695 -0.1817
  153DOPC   H4X18372   6.501   0.835  13.297  0.0476  1.1535  0.8083
  153DOPC   H4Y18373   6.331   0.853  13.336 -0.3724  0.0844 -2.4169
  153DOPC   C3518374   6.374   0.696  13.197 -0.1628  0.5574  0.4208
  153DOPC   H5X18375   6.267   0.665  13.193 -0.2648  0.9745 -0.2159
  153DOPC   H5Y18376   6.438   0.606  13.197  1.6156  1.7674  1.0080
  153DOPC   C3618377   6.404   0.788  13.073  0.2341  0.9080  0.0439
  153DOPC   H6X18378   6.368   0.889  13.101  4.7067  3.0993 -1.1814
  153DOPC   H6Y18379   6.515   0.785  13.061  0.3790  0.1332  1.3533
  153DOPC   C3718380   6.331   0.732  12.947 -1.1138  0.1560  0.2338
  153DOPC   H7X18381   6.343   0.621  12.944  0.6926  0.3293 -1.4575
  153DOPC   H7Y18382   6.226   0.753  12.975 -0.8595 -0.2622  1.5943
  153DOPC   C3818383   6.361   0.800  12.814 -0.1382  0.1303  0.1130
  153DOPC   H8X18384   6.353   0.910  12.823 -0.0845  0.0218  1.7585
  153DOPC   H8Y18385   6.303   0.770  12.725 -2.9521  0.9411  1.5622
  153DOPC   C3918386   6.504   0.777  12.773  0.9337 -0.1782 -0.0388
  153DOPC   H9X18387   6.554   0.716  12.850 -1.1721  0.5676  2.0368
  153DOPC  C31018388   6.569   0.819  12.666 -0.0378  0.7182  1.0068
  153DOPC  H10X18389   6.675   0.792  12.673 -0.3906 -1.8168 -1.5527
  153DOPC  C31118390   6.523   0.919  12.568  0.0921 -0.0769  0.1521
  153DOPC  H11X18391   6.611   0.972  12.526  0.6469 -1.7245 -0.8869
  153DOPC  H11Y18392   6.447   0.983  12.617 -1.5355 -1.4383 -0.5098
  153DOPC  C31218393   6.446   0.854  12.452  0.0496 -0.1527 -0.4407
  153DOPC  H12X18394   6.402   0.939  12.395 -0.3821 -1.3812 -2.0362
  153DOPC  H12Y18395   6.360   0.788  12.477 -0.9546  1.7345  1.3797
  153DOPC  C31318396   6.533   0.772  12.354  0.1706 -0.0177  0.0132
  153DOPC  H13X18397   6.603   0.836  12.297  0.3440  0.0451  0.2919
  153DOPC  H13Y18398   6.591   0.700  12.417  1.4555  0.9203 -0.0583
  153DOPC  C31418399   6.448   0.688  12.256 -0.4029 -0.7527  0.0277
  153DOPC  H14X18400   6.394   0.609  12.313 -2.9200  0.7896 -0.0594
  153DOPC  H14Y18401   6.373   0.754  12.207 -0.9502 -0.5083  1.1598
  153DOPC  C31518402   6.533   0.628  12.145  0.1501 -0.5363  0.7089
  153DOPC  H15X18403   6.586   0.539  12.185 -0.3581 -0.9414  0.4887
  153DOPC  H15Y18404   6.603   0.702  12.100 -2.8617  1.6911 -0.6861
  153DOPC  C31618405   6.435   0.582  12.039 -0.3451  0.1609 -0.4740
  153DOPC  H16X18406   6.353   0.519  12.079  0.3479 -0.3025  0.2496
  153DOPC  H16Y18407   6.387   0.674  11.999  0.5439  2.0449  2.4589
  153DOPC  C31718408   6.511   0.512  11.925 -0.0811  0.1530 -0.7022
  153DOPC  H17X18409   6.606   0.566  11.902 -0.2022  0.8170  0.3084
  153DOPC  H17Y18410   6.554   0.416  11.962  0.2941 -0.0031 -1.5219
  153DOPC  C31818411   6.421   0.491  11.802 -0.0623  0.2032 -0.1134
  153DOPC  H18X18412   6.488   0.444  11.726 -0.1123 -2.3018  1.2828
  153DOPC  H18Y18413   6.336   0.427  11.831 -0.1905  0.9527  1.2583
  153DOPC  H18Z18414   6.376   0.585  11.763 -3.3923 -1.5796 -0.8931
  154DOPC     N18415   0.632   3.027  13.457 -0.2957 -0.5775  0.5054
  154DOPC   C1218416   0.585   3.057  13.598  0.5279  0.1009 -0.2135
  154DOPC  H12A18417   0.643   3.139  13.639  1.0572 -0.2456 -0.2491
  154DOPC  H12B18418   0.599   2.978  13.671 -1.4823 -1.1554 -1.1024
  154DOPC   C1318419   0.780   3.031  13.448 -0.7014  0.4092  0.4785
  154DOPC  H13A18420   0.821   3.128  13.472  0.9491  0.0156 -0.6022
  154DOPC  H13B18421   0.825   2.970  13.526  0.0846  2.0462  1.3672
  154DOPC  H13C18422   0.817   3.015  13.348 -2.0796 -1.1809  0.1696
  154DOPC   C1418423   0.576   3.121  13.356 -0.2785 -1.0247 -0.0284
  154DOPC  H14A18424   0.623   3.215  13.381  0.7352 -2.2009  2.8805
  154DOPC  H14B18425   0.600   3.093  13.254  0.2184  1.6803 -0.7383
  154DOPC  H14C18426   0.470   3.134  13.365 -0.1473  0.0903 -0.0361
  154DOPC   C1518427   0.590   2.888  13.419 -0.1603 -0.6326 -0.0693
  154DOPC  H15A18428   0.639   2.869  13.325 -0.3149  0.4736 -0.3896
  154DOPC  H15B18429   0.483   2.883  13.427 -0.2369  1.5389  0.9244
  154DOPC  H15C18430   0.625   2.814  13.489 -0.3758 -0.1869  0.5274
  154DOPC   C1118431   0.434   3.085  13.603 -0.3778 -0.0375  0.3613
  154DOPC  H11A18432   0.370   3.003  13.564 -0.3254 -1.2020  2.5404
  154DOPC  H11B18433   0.410   3.077  13.711 -1.4182  1.2663  0.2445
  154DOPC     P18434   0.433   3.343  13.646 -0.2165 -0.0449 -0.2381
  154DOPC   O1318435   0.579   3.357  13.651  0.1800  0.0335 -0.0593
  154DOPC   O1418436   0.357   3.348  13.772  0.0175  0.2539  0.1377
  154DOPC   O1218437   0.401   3.213  13.555  0.5480  0.5552  0.2695
  154DOPC   O1118438   0.372   3.463  13.559 -0.0946 -0.1787  0.2733
  154DOPC    C118439   0.267   3.426  13.470 -0.2420  0.1105  0.0381
  154DOPC    HA18440   0.182   3.497  13.485 -0.0490  0.5636 -0.9087
  154DOPC    HB18441   0.221   3.327  13.488 -0.1096  0.2032  0.9539
  154DOPC    C218442   0.317   3.426  13.320  0.7422  0.2805 -0.1728
  154DOPC    HS18443   0.379   3.334  13.320  2.0849  1.1525  0.3035
  154DOPC   O2118444   0.395   3.551  13.304  0.7332  0.1806  0.1764
  154DOPC   C2118445   0.480   3.545  13.201  0.2011  0.1139  0.1176
  154DOPC   O2218446   0.524   3.443  13.159  0.6235  0.4095  0.2542
  154DOPC   C2218447   0.521   3.684  13.161  0.3065 -0.0804  1.0718
  154DOPC   H2R18448   0.593   3.733  13.230  1.1588  1.5130 -0.8496
  154DOPC   H2S18449   0.425   3.740  13.156  1.2775  1.5477 -0.1276
  154DOPC    C318450   0.193   3.418  13.225  0.2000 -0.5139 -0.3407
  154DOPC    HX18451   0.158   3.523  13.234 -0.9478 -0.8288 -0.8776
  154DOPC    HY18452   0.108   3.356  13.259  0.5767 -1.0134 -0.2977
  154DOPC   O3118453   0.231   3.386  13.086 -0.0502 -0.0205 -0.8840
  154DOPC   C3118454   0.167   3.463  12.994  0.3460 -0.2499  0.7101
  154DOPC   O3218455   0.073   3.535  13.014  0.7606 -0.5931  0.4555
  154DOPC   C3218456   0.217   3.423  12.854  0.4090 -0.6541  0.3137
  154DOPC   H2X18457   0.230   3.522  12.805 -1.5555  0.1802  1.3371
  154DOPC   H2Y18458   0.314   3.370  12.865  1.0393  0.4446  0.1949
  154DOPC   C2318459   0.589   3.677  13.018 -0.2744 -0.4942  0.0694
  154DOPC   H3R18460   0.676   3.608  13.017  0.4905  0.4423  0.2351
  154DOPC   H3S18461   0.631   3.779  13.001  1.1564 -1.1030 -0.2139
  154DOPC   C2418462   0.498   3.645  12.895  0.2606 -0.7775 -1.2958
  154DOPC   H4R18463   0.418   3.722  12.888 -0.8239 -1.6250  0.8074
  154DOPC   H4S18464   0.448   3.546  12.909 -0.4755 -0.2147  0.2781
  154DOPC   C2518465   0.574   3.641  12.767  1.4007 -0.2087  0.0884
  154DOPC   H5R18466   0.665   3.577  12.777  0.2846 -2.1632 -1.4250
  154DOPC   H5S18467   0.616   3.740  12.740 -2.7565  1.9715  0.9970
  154DOPC   C2618468   0.480   3.579  12.662 -0.0757 -0.3783 -0.1889
  154DOPC   H6R18469   0.389   3.636  12.635  1.5187  1.9584 -0.9302
  154DOPC   H6S18470   0.442   3.480  12.698  0.2598 -0.7547 -0.8513
  154DOPC   C2718471   0.547   3.550  12.529 -0.5272  0.0463  0.1984
  154DOPC   H7R18472   0.627   3.475  12.549 -0.5870 -0.4792 -1.4206
  154DOPC   H7S18473   0.591   3.643  12.485  0.0442 -0.3139 -0.0103
  154DOPC   C2818474   0.454   3.493  12.433 -0.2624 -0.4213 -0.0337
  154DOPC   H8R18475   0.386   3.578  12.410  0.1006  0.0275  0.5255
  154DOPC   H8S18476   0.405   3.404  12.478 -0.3022 -0.7819 -0.7768
  154DOPC   C2918477   0.522   3.447  12.304 -0.3010 -0.0503 -0.1035
  154DOPC   H9R18478   0.545   3.339  12.305  0.3072  0.0501  2.1474
  154DOPC  C21018479   0.534   3.526  12.193 -0.2607 -0.0765  0.0098
  154DOPC  H10R18480   0.564   3.483  12.097 -2.7169  0.7926 -1.2259
  154DOPC  C21118481   0.487   3.666  12.170  0.1263 -0.3675 -0.1673
  154DOPC  H11R18482   0.574   3.717  12.123  0.8609 -0.0610  1.4304
  154DOPC  H11S18483   0.470   3.716  12.268 -2.1537 -2.1288  0.3957
  154DOPC  C21218484   0.367   3.660  12.076  0.6384 -0.7757 -0.0235
  154DOPC  H12R18485   0.311   3.756  12.086  0.0971 -0.9162 -1.4386
  154DOPC  H12S18486   0.293   3.583  12.104 -1.7032  1.5180  0.4605
  154DOPC  C21318487   0.415   3.665  11.932 -0.9002  0.6711 -0.4272
  154DOPC  H13R18488   0.479   3.579  11.904 -0.8031  0.0483  1.5616
  154DOPC  H13S18489   0.490   3.746  11.922 -0.0968 -0.0071  0.0999
  154DOPC  C21418490   0.304   3.684  11.827 -0.3766  0.5091  0.6511
  154DOPC  H14R18491   0.352   3.707  11.729 -2.7562  1.4534 -0.3908
  154DOPC  H14S18492   0.241   3.772  11.852 -2.1579 -1.1796  2.4468
  154DOPC  C21518493   0.224   3.558  11.810 -0.1389 -0.2355  0.4087
  154DOPC  H15R18494   0.147   3.582  11.733  0.7896  2.1019  0.1123
  154DOPC  H15S18495   0.176   3.517  11.902  0.2169 -1.5115  0.0474
  154DOPC  C21618496   0.313   3.448  11.760  0.0820  0.1609  0.1200
  154DOPC  H16R18497   0.385   3.411  11.837  2.7498 -0.2092 -2.3865
  154DOPC  H16S18498   0.365   3.467  11.664 -1.2611 -0.7690 -0.8297
  154DOPC  C21718499   0.229   3.324  11.723 -0.3945 -0.1037  1.0037
  154DOPC  H17R18500   0.158   3.360  11.645 -0.4994  1.0712  1.6142
  154DOPC  H17S18501   0.155   3.292  11.800 -1.7572 -2.1278 -1.0210
  154DOPC  C21818502   0.315   3.202  11.679 -0.1927 -0.4165  0.6544
  154DOPC  H18R18503   0.365   3.226  11.583 -0.6683  0.3600  0.5895
  154DOPC  H18S18504   0.259   3.106  11.673  0.7631 -0.9008 -1.6247
  154DOPC  H18T18505   0.389   3.186  11.760 -0.2477  2.0069  1.2740
  154DOPC   C3318506   0.123   3.327  12.779 -0.5124  0.0221 -0.2846
  154DOPC   H3X18507   0.101   3.240  12.845  0.7563  0.1081  0.2840
  154DOPC   H3Y18508   0.179   3.281  12.695  1.8499  1.8530  0.1878
  154DOPC   C3418509  -0.016   3.392  12.741  0.4818 -1.1117  0.0575
  154DOPC   H4X18510  -0.058   3.453  12.824 -1.8294 -1.5552 -0.7031
  154DOPC   H4Y18511  -0.089   3.311  12.720 -0.2467 -0.0974 -1.5352
  154DOPC   C3518512  -0.013   3.487  12.626 -0.1214 -0.2032  0.1756
  154DOPC   H5X18513   0.051   3.576  12.642  0.7637 -0.7088 -0.5008
  154DOPC   H5Y18514  -0.108   3.539  12.600  0.4676  1.6089  1.4570
  154DOPC   C3618515   0.025   3.416  12.492  0.3840  0.0873  0.4117
  154DOPC   H6X18516   0.134   3.397  12.481  0.1199 -1.2564 -0.0947
  154DOPC   H6Y18517  -0.041   3.327  12.492  0.4675  0.0255  0.3547
  154DOPC   C3718518  -0.016   3.501  12.369  0.0064 -0.4579 -0.1475
  154DOPC   H7X18519  -0.127   3.504  12.379 -0.2957 -1.6360 -2.3959
  154DOPC   H7Y18520   0.023   3.605  12.372  2.6587 -1.4096  1.7447
  154DOPC   C3818521   0.029   3.434  12.242  0.0558 -0.3644  0.3205
  154DOPC   H8X18522  -0.005   3.329  12.229 -0.4382 -0.0622 -0.9798
  154DOPC   H8Y18523   0.140   3.435  12.240  0.1225  0.9160  2.2691
  154DOPC   C3918524  -0.020   3.503  12.115 -0.1390  0.0635 -0.2075
  154DOPC   H9X18525   0.022   3.604  12.110  2.4258 -0.9999 -2.0078
  154DOPC  C31018526  -0.104   3.460  12.013 -0.1822 -0.3912 -0.5835
  154DOPC  H10X18527  -0.134   3.524  11.929 -1.3900  0.1227  0.2029
  154DOPC  C31118528  -0.150   3.318  12.015 -0.4877 -0.0339 -0.7435
  154DOPC  H11X18529  -0.220   3.316  12.102 -0.3293 -0.1001 -0.6157
  154DOPC  H11Y18530  -0.066   3.250  12.042 -0.6540  0.0249 -0.0638
  154DOPC  C31218531  -0.222   3.276  11.886 -0.4489 -0.3666 -0.2491
  154DOPC  H12X18532  -0.303   3.352  11.880 -2.0837 -2.0174 -0.0156
  154DOPC  H12Y18533  -0.272   3.177  11.890  1.5565 -1.4541 -0.7000
  154DOPC  C31318534  -0.132   3.279  11.763 -0.4074  0.1724  0.2093
  154DOPC  H13X18535  -0.079   3.376  11.761  2.2375 -1.1856  0.6027
  154DOPC  H13Y18536  -0.069   3.191  11.785  0.8738  1.4005  1.6422
  154DOPC  C31418537  -0.216   3.262  11.639 -0.3300  0.7875  0.6513
  154DOPC  H14X18538  -0.284   3.175  11.649  0.0833  0.3386 -0.3311
  154DOPC  H14Y18539  -0.264   3.359  11.617 -1.1872  0.1809 -0.2244
  154DOPC  C31518540  -0.130   3.245  11.510 -0.3233 -0.0362 -0.6082
  154DOPC  H15X18541  -0.086   3.143  11.512  1.5128  0.7139 -0.5520
  154DOPC  H15Y18542  -0.042   3.313  11.500  0.3355 -0.9361 -1.1129
  154DOPC  C31618543  -0.207   3.271  11.391  0.2080 -0.4076 -0.6226
  154DOPC  H16X18544  -0.252   3.372  11.384 -1.8313 -1.2334 -0.2794
  154DOPC  H16Y18545  -0.143   3.268  11.301 -0.8538  0.0340 -1.4201
  154DOPC  C31718546  -0.322   3.173  11.364 -0.1028 -0.6899 -0.8039
  154DOPC  H17X18547  -0.285   3.070  11.383 -0.7478 -0.8226 -0.2110
  154DOPC  H17Y18548  -0.406   3.170  11.437 -0.9374  2.0913 -1.5070
  154DOPC  C31818549  -0.366   3.197  11.219 -0.0105  0.3585  0.0736
  154DOPC  H18X18550  -0.446   3.123  11.198  1.0964 -0.9466  0.2702
  154DOPC  H18Y18551  -0.420   3.294  11.213 -0.7370 -0.1197 -1.3892
  154DOPC  H18Z18552  -0.285   3.203  11.144 -0.1284  0.3667 -0.0538
  155DOPC     N18553   3.124   3.596  13.910  0.1005 -0.1561 -0.2593
  155DOPC   C1218554   2.999   3.544  13.839 -0.6540  0.1547  0.5737
  155DOPC  H12A18555   2.972   3.622  13.769  0.1776  0.0363  0.0981
  155DOPC  H12B18556   2.914   3.541  13.905 -0.4562  0.6177  0.8545
  155DOPC   C1318557   3.224   3.638  13.810  0.3398 -0.3244 -0.0303
  155DOPC  H13A18558   3.243   3.546  13.758 -1.6789 -0.2506 -1.0169
  155DOPC  H13B18559   3.179   3.716  13.750 -0.3559 -1.3270 -0.8415
  155DOPC  H13C18560   3.319   3.668  13.851  0.7957 -1.5067 -0.1924
  155DOPC   C1418561   3.175   3.488  14.007 -0.1543 -0.1240  0.0123
  155DOPC  H14A18562   3.114   3.472  14.094  0.8106 -1.3828  0.4793
  155DOPC  H14B18563   3.200   3.393  13.962  0.1791 -0.1399  0.2289
  155DOPC  H14C18564   3.273   3.518  14.039  0.4474 -1.4949 -0.4634
  155DOPC   C1518565   3.085   3.712  13.995  0.0533 -1.0364 -0.2285
  155DOPC  H15A18566   2.998   3.696  14.055 -0.3031 -0.2609 -0.5360
  155DOPC  H15B18567   3.074   3.801  13.935  1.2509  0.5537  1.7861
  155DOPC  H15C18568   3.169   3.732  14.060 -0.7936  0.5292  0.4200
  155DOPC   C1118569   2.995   3.426  13.743 -0.0341  0.1186 -0.2827
  155DOPC  H11A18570   2.892   3.409  13.704  0.1626 -1.2642 -0.2364
  155DOPC  H11B18571   3.053   3.450  13.651 -1.2060  0.9973 -0.8196
  155DOPC     P18572   2.976   3.175  13.856  0.5836 -0.3283 -0.5213
  155DOPC   O1318573   2.874   3.212  13.954 -0.1563  0.0379  0.3331
  155DOPC   O1418574   3.072   3.074  13.905 -0.3586  0.2652  0.5604
  155DOPC   O1218575   3.052   3.308  13.803  0.2405 -0.4798 -0.2660
  155DOPC   O1118576   2.902   3.122  13.722 -0.3708  0.4191  0.0018
  155DOPC    C118577   2.970   3.087  13.607 -0.3455  0.4169  0.1102
  155DOPC    HA18578   3.081   3.101  13.611  0.0282 -2.1731  0.8878
  155DOPC    HB18579   2.942   3.149  13.519  0.9916 -0.0935 -0.7077
  155DOPC    C218580   2.954   2.932  13.567 -0.1918  0.1803 -0.0943
  155DOPC    HS18581   2.969   2.875  13.661 -0.4801 -1.4737 -1.0152
  155DOPC   O2118582   3.056   2.897  13.474 -0.1907 -0.3549 -0.3166
  155DOPC   C2118583   3.077   2.776  13.448  0.5799  0.2188 -0.1331
  155DOPC   O2218584   3.021   2.675  13.489 -0.5463  0.0982 -0.0240
  155DOPC   C2218585   3.177   2.763  13.338  0.0546  0.4827 -0.1123
  155DOPC   H2R18586   3.239   2.680  13.379 -2.2271 -1.6576 -0.7226
  155DOPC   H2S18587   3.228   2.860  13.324 -1.3746  1.1032 -1.2886
  155DOPC    C318588   2.800   2.913  13.515  0.1312 -0.9774 -0.1319
  155DOPC    HX18589   2.746   2.945  13.607  2.0872 -1.6293  1.3081
  155DOPC    HY18590   2.798   2.803  13.498  2.1694 -0.9024 -1.1722
  155DOPC   O3118591   2.774   2.998  13.400  0.0846 -0.0824 -0.5166
  155DOPC   C3118592   2.667   2.954  13.343  0.2696  0.6892 -0.4172
  155DOPC   O3218593   2.600   2.859  13.380 -0.1590  0.3267  0.0880
  155DOPC   C3218594   2.627   3.039  13.221 -0.4948 -0.0127  0.0637
  155DOPC   H2X18595   2.553   3.118  13.247 -0.1813  0.4466 -0.4140
  155DOPC   H2Y18596   2.709   3.108  13.192 -0.3996 -0.0592  0.2246
  155DOPC   C2318597   3.105   2.726  13.206 -0.3335 -0.3064 -0.8123
  155DOPC   H3R18598   3.032   2.643  13.214  0.4293 -1.1158 -1.7917
  155DOPC   H3S18599   3.186   2.683  13.142 -0.4324  0.3062 -1.3650
  155DOPC   C2418600   3.040   2.843  13.138 -0.5807 -0.3090  0.1364
  155DOPC   H4R18601   3.105   2.932  13.124 -1.4905  0.3598  0.0728
  155DOPC   H4S18602   2.959   2.874  13.208 -2.3564 -4.0255 -0.0209
  155DOPC   C2518603   2.987   2.807  12.998  0.9894  0.4238 -0.2380
  155DOPC   H5R18604   2.902   2.736  13.017 -0.2947  1.8538 -0.4654
  155DOPC   H5S18605   3.061   2.758  12.932 -1.1838 -2.0263 -1.0531
  155DOPC   C2618606   2.931   2.926  12.921 -0.0151  0.3777 -0.5173
  155DOPC   H6R18607   3.011   3.003  12.911 -0.0022  0.5437  0.7129
  155DOPC   H6S18608   2.850   2.971  12.982  0.4562  0.8108 -0.1993
  155DOPC   C2718609   2.862   2.878  12.790  0.1407 -0.3312 -0.5219
  155DOPC   H7R18610   2.771   2.826  12.826 -0.1534  0.6694  0.2300
  155DOPC   H7S18611   2.938   2.806  12.754 -1.1455 -0.2773 -3.6875
  155DOPC   C2818612   2.832   2.999  12.699 -0.3041 -0.6044 -0.3283
  155DOPC   H8R18613   2.930   3.041  12.669 -0.1248  0.3866  1.4982
  155DOPC   H8S18614   2.781   3.080  12.756 -0.5324  0.4634 -1.9811
  155DOPC   C2918615   2.749   2.970  12.572 -0.2804  0.7119  0.1871
  155DOPC   H9R18616   2.671   2.893  12.582  1.2331 -0.9237 -0.0371
  155DOPC  C21018617   2.757   3.016  12.448 -0.0420 -0.7116 -0.0023
  155DOPC  H10R18618   2.693   2.974  12.369 -0.0397  1.9447 -1.5377
  155DOPC  C21118619   2.861   3.111  12.398 -0.5466  0.0443  0.1383
  155DOPC  H11R18620   2.906   3.173  12.478 -0.4050  2.7703 -1.9199
  155DOPC  H11S18621   2.822   3.191  12.331 -0.8876 -1.4160 -1.4941
  155DOPC  C21218622   2.972   3.040  12.314 -0.5372 -0.5886 -0.3832
  155DOPC  H12R18623   3.033   3.118  12.263  3.9686 -3.1074  0.6622
  155DOPC  H12S18624   2.925   2.972  12.240 -2.3193 -0.1766  0.3123
  155DOPC  C21318625   3.071   2.963  12.399 -0.1879 -0.3304 -0.1646
  155DOPC  H13R18626   3.060   3.004  12.502  1.8749  0.6699 -0.2915
  155DOPC  H13S18627   3.176   2.985  12.369  0.1233  0.3709  1.3480
  155DOPC  C21418628   3.070   2.813  12.407 -0.2758 -0.3587  0.5562
  155DOPC  H14R18629   3.058   2.761  12.310 -2.3801 -1.2078  1.2047
  155DOPC  H14S18630   2.982   2.780  12.467 -0.6146 -0.2110  0.1436
  155DOPC  C21518631   3.185   2.733  12.475  0.1359 -0.4078  0.3103
  155DOPC  H15R18632   3.279   2.737  12.416  0.7683  2.2704  1.3351
  155DOPC  H15S18633   3.143   2.630  12.482 -1.0511  0.1029  1.0780
  155DOPC  C21618634   3.232   2.796  12.611  0.6487  0.2020 -0.1232
  155DOPC  H16R18635   3.143   2.833  12.666  0.9928  0.7457  0.0685
  155DOPC  H16S18636   3.309   2.872  12.585  1.1615 -0.1271  0.4324
  155DOPC  C21718637   3.306   2.693  12.697  0.2695  0.2909 -0.5367
  155DOPC  H17R18638   3.376   2.629  12.639  2.5589 -0.1363  2.4690
  155DOPC  H17S18639   3.229   2.624  12.738  1.2781  0.5380  1.9228
  155DOPC  C21818640   3.384   2.754  12.820 -0.2796 -0.1614 -0.7641
  155DOPC  H18R18641   3.408   2.683  12.902 -0.2889  0.6685 -0.0223
  155DOPC  H18S18642   3.318   2.829  12.871 -1.6040 -1.9952  0.3627
  155DOPC  H18T18643   3.482   2.795  12.789 -0.2068 -1.1305 -1.8894
  155DOPC   C3318644   2.593   2.948  13.102 -0.4363  0.4768 -0.2685
  155DOPC   H3X18645   2.500   2.890  13.119 -0.0321  0.0025  0.3412
  155DOPC   H3Y18646   2.668   2.876  13.065  1.7697  2.1567  0.6994
  155DOPC   C3418647   2.572   3.023  12.969 -0.1377 -0.0319  0.2452
  155DOPC   H4X18648   2.563   2.955  12.881  3.5944  0.4195 -0.6402
  155DOPC   H4Y18649   2.665   3.083  12.970 -0.2857  0.2381 -0.9462
  155DOPC   C3518650   2.435   3.102  12.968 -0.3149 -0.1943 -0.5504
  155DOPC   H5X18651   2.406   3.146  13.066 -1.7596  1.7005 -1.7570
  155DOPC   H5Y18652   2.366   3.016  12.960 -0.0917 -0.5723  1.1799
  155DOPC   C3618653   2.413   3.194  12.852  0.4138 -0.9616 -0.6118
  155DOPC   H6X18654   2.311   3.239  12.853  0.4039 -0.9809 -0.7845
  155DOPC   H6Y18655   2.482   3.278  12.873 -1.4577  0.5129 -0.0877
  155DOPC   C3718656   2.438   3.138  12.708  0.0463 -0.3510  0.1635
  155DOPC   H7X18657   2.547   3.147  12.689 -0.2738  3.1021 -0.6523
  155DOPC   H7Y18658   2.414   3.029  12.716 -1.8720  0.0236  0.0496
  155DOPC   C3818659   2.368   3.224  12.604  0.5365  0.1091 -0.0837
  155DOPC   H8X18660   2.391   3.329  12.633  0.4202  0.3807 -0.9420
  155DOPC   H8Y18661   2.258   3.216  12.614  0.4093  1.3144 -0.3661
  155DOPC   C3918662   2.406   3.184  12.463  0.3915 -0.8864  0.4587
  155DOPC   H9X18663   2.388   3.080  12.432  0.2780 -0.6413 -0.3198
  155DOPC  C31018664   2.479   3.261  12.372  0.1043  1.2782 -0.2492
  155DOPC  H10X18665   2.510   3.212  12.278  1.1413  0.0292  0.7040
  155DOPC  C31118666   2.519   3.401  12.379 -0.8689 -0.6006  0.0973
  155DOPC  H11X18667   2.627   3.410  12.404 -1.1120 -1.4507  1.5533
  155DOPC  H11Y18668   2.469   3.459  12.460  3.0275  3.2878  0.1197
  155DOPC  C31218669   2.475   3.486  12.257 -0.2793 -0.0297 -0.0948
  155DOPC  H12X18670   2.514   3.590  12.264 -3.0391  0.9669  2.1541
  155DOPC  H12Y18671   2.366   3.492  12.276 -0.4012  1.4579 -1.1125
  155DOPC  C31318672   2.514   3.430  12.128  0.0263 -0.8071  0.3545
  155DOPC  H13X18673   2.622   3.442  12.108  0.1262 -0.2281  1.1962
  155DOPC  H13Y18674   2.480   3.326  12.108 -1.3630 -0.2786 -0.1776
  155DOPC  C31418675   2.450   3.504  12.006  0.2827  0.6269 -0.0371
  155DOPC  H14X18676   2.340   3.489  12.015  0.2690  0.1209 -0.9924
  155DOPC  H14Y18677   2.474   3.612  12.014  0.3476  1.1309 -4.5276
  155DOPC  C31518678   2.509   3.438  11.883 -0.3697 -0.9652  0.1875
  155DOPC  H15X18679   2.460   3.338  11.875 -1.4682 -0.6422  2.0528
  155DOPC  H15Y18680   2.619   3.424  11.891 -0.0624  1.4497  1.0676
  155DOPC  C31618681   2.471   3.521  11.758 -0.8355  0.2749 -0.2774
  155DOPC  H16X18682   2.364   3.509  11.731 -0.5992 -0.7069 -0.7960
  155DOPC  H16Y18683   2.488   3.629  11.782 -0.7592 -0.2555  2.4559
  155DOPC  C31718684   2.559   3.487  11.643  0.1121  0.1511 -0.4404
  155DOPC  H17X18685   2.665   3.516  11.658 -0.0892  0.4663  0.4831
  155DOPC  H17Y18686   2.558   3.376  11.637 -0.8100  0.0772  0.6386
  155DOPC  C31818687   2.520   3.552  11.513 -0.5865  1.4263  0.7252
  155DOPC  H18X18688   2.579   3.499  11.435 -2.6936 -1.3305  0.8271
  155DOPC  H18Y18689   2.415   3.538  11.478 -0.7807  0.8181  1.5015
  155DOPC  H18Z18690   2.543   3.661  11.512 -1.8775  1.7306  1.6690
  156DOPC     N18691   6.213   6.119  14.091  0.3155 -0.1112  0.1705
  156DOPC   C1218692   6.119   6.077  13.978  0.0343  0.6451 -0.8925
  156DOPC  H12A18693   6.031   6.033  14.021  0.6532  0.4294  0.2027
  156DOPC  H12B18694   6.167   5.989  13.937  1.3266  0.8607  0.0828
  156DOPC   C1318695   6.221   6.008  14.195  0.6589  1.0711 -0.0378
  156DOPC  H13A18696   6.255   5.919  14.144  0.8560  0.3914  1.2478
  156DOPC  H13B18697   6.299   6.032  14.267  1.0731  1.1989 -0.5197
  156DOPC  H13C18698   6.129   5.991  14.249  0.5173 -2.0012 -1.0478
  156DOPC   C1418699   6.148   6.234  14.157 -0.2080 -0.5380 -0.4762
  156DOPC  H14A18700   6.069   6.207  14.226  0.4690  1.9663  1.4552
  156DOPC  H14B18701   6.213   6.297  14.216 -0.0998  0.0762 -1.2407
  156DOPC  H14C18702   6.104   6.301  14.085 -0.1797  1.2694  1.0985
  156DOPC   C1518703   6.348   6.155  14.039  0.3227  0.1080  0.3145
  156DOPC  H15A18704   6.340   6.231  13.962  1.1634  1.2321  1.2900
  156DOPC  H15B18705   6.385   6.063  13.997  0.6466  0.0431  0.7308
  156DOPC  H15C18706   6.409   6.198  14.118  1.1536  0.7803 -0.6674
  156DOPC   C1118707   6.095   6.184  13.867  0.2077 -0.0774  0.0448
  156DOPC  H11A18708   6.194   6.224  13.836 -0.0423 -0.6185 -1.5508
  156DOPC  H11B18709   6.047   6.135  13.779 -2.4063  1.6608  0.3691
  156DOPC     P18710   5.855   6.281  13.903 -0.4421 -0.0731 -0.0787
  156DOPC   O1318711   5.805   6.391  13.983  0.7546  0.0370 -0.0273
  156DOPC   O1418712   5.814   6.148  13.941 -0.1630 -0.0172 -0.4882
  156DOPC   O1218713   6.014   6.294  13.919 -0.0823  0.5777 -0.0214
  156DOPC   O1118714   5.835   6.309  13.745  0.1998  0.1419  0.7235
  156DOPC    C118715   5.857   6.438  13.695  0.5656 -0.2579  0.5898
  156DOPC    HA18716   5.887   6.511  13.772  0.2935  0.4111  0.0710
  156DOPC    HB18717   5.757   6.477  13.666  1.2824  0.0735 -1.6353
  156DOPC    C218718   5.949   6.432  13.572 -0.5338  0.3280 -0.5862
  156DOPC    HS18719   5.965   6.531  13.525 -1.6610 -0.4789 -2.8045
  156DOPC   O2118720   5.902   6.342  13.470  0.3092 -0.1340  0.0692
  156DOPC   C2118721   5.799   6.392  13.401 -0.4766  0.6202  0.3560
  156DOPC   O2218722   5.738   6.498  13.410 -0.1874  0.0524  0.2023
  156DOPC   C2218723   5.759   6.293  13.285  0.4783 -0.1009 -0.2259
  156DOPC   H2R18724   5.685   6.338  13.215 -0.4482 -0.5252  0.4688
  156DOPC   H2S18725   5.730   6.199  13.336  1.2942  0.5663  1.5759
  156DOPC    C318726   6.094   6.382  13.608  0.1938  0.3125 -0.7099
  156DOPC    HX18727   6.082   6.274  13.629 -1.5207  0.0951 -2.5079
  156DOPC    HY18728   6.125   6.434  13.701 -0.6111  0.4879 -0.5322
  156DOPC   O3118729   6.193   6.407  13.507 -0.4644 -0.4169 -1.1516
  156DOPC   C3118730   6.313   6.341  13.522 -0.1089 -0.4582 -0.2641
  156DOPC   O3218731   6.344   6.269  13.619  0.4263 -0.2354 -0.6763
  156DOPC   C3218732   6.396   6.387  13.398 -0.0781  0.8386  0.3841
  156DOPC   H2X18733   6.328   6.442  13.330  2.1298  0.1901 -2.5280
  156DOPC   H2Y18734   6.477   6.460  13.424  0.5996  0.5812 -0.9375
  156DOPC   C2318735   5.870   6.241  13.193  0.1763  0.0920  0.0359
  156DOPC   H3R18736   5.826   6.149  13.149  0.7261 -0.0902 -0.1452
  156DOPC   H3S18737   5.970   6.224  13.240  1.7104  1.6398 -2.4005
  156DOPC   C2418738   5.884   6.349  13.075 -0.5395 -0.7770  0.2565
  156DOPC   H4R18739   5.966   6.311  13.010  1.0257  2.9914 -0.2872
  156DOPC   H4S18740   5.909   6.452  13.108  0.6562 -0.1567 -2.2663
  156DOPC   C2518741   5.763   6.349  12.977  0.1895 -0.7383 -0.0621
  156DOPC   H5R18742   5.694   6.428  13.013  1.7103 -0.6056  2.7646
  156DOPC   H5S18743   5.704   6.255  12.988 -0.5880 -0.1916  0.5502
  156DOPC   C2618744   5.797   6.381  12.831 -0.3257 -0.1990  0.4074
  156DOPC   H6R18745   5.880   6.314  12.800 -0.5636 -0.1684 -0.3152
  156DOPC   H6S18746   5.841   6.482  12.822  0.8712 -0.8480 -1.8229
  156DOPC   C2718747   5.678   6.374  12.727  0.7026  0.6760  0.8293
  156DOPC   H7R18748   5.605   6.456  12.745 -0.1575 -0.4254  2.6934
  156DOPC   H7S18749   5.619   6.282  12.748 -0.0309  1.3849  2.0268
  156DOPC   C2818750   5.725   6.382  12.579 -0.8250 -0.1237  0.5233
  156DOPC   H8R18751   5.809   6.310  12.568 -2.9422 -2.4693 -1.5658
  156DOPC   H8S18752   5.777   6.480  12.576  1.0194 -1.0075  1.7828
  156DOPC   C2918753   5.625   6.385  12.461 -1.3076  0.2724 -0.2142
  156DOPC   H9R18754   5.556   6.470  12.464  2.6825  3.8020  0.5796
  156DOPC  C21018755   5.627   6.292  12.359  0.3610  0.3966 -0.2726
  156DOPC  H10R18756   5.546   6.297  12.285 -1.1695  2.0996  1.4241
  156DOPC  C21118757   5.729   6.188  12.342 -0.1551  0.3147  0.3681
  156DOPC  H11R18758   5.714   6.098  12.404 -0.3999  0.8240  1.0564
  156DOPC  H11S18759   5.834   6.217  12.363  1.4512 -3.5384 -1.3651
  156DOPC  C21218760   5.728   6.134  12.192  0.6330 -0.7686  0.0044
  156DOPC  H12R18761   5.625   6.109  12.158  0.6774 -0.3136 -0.4685
  156DOPC  H12S18762   5.785   6.039  12.196  0.4541 -0.8470  1.1479
  156DOPC  C21318763   5.782   6.240  12.093 -0.1908 -0.0764  0.5073
  156DOPC  H13R18764   5.870   6.285  12.143 -0.5222 -0.0661  1.0888
  156DOPC  H13S18765   5.715   6.327  12.082 -0.0766 -0.1763 -1.2064
  156DOPC  C21418766   5.815   6.173  11.957 -0.8662 -0.1516 -0.0820
  156DOPC  H14R18767   5.903   6.108  11.976  1.0215  2.9686  3.3232
  156DOPC  H14S18768   5.861   6.255  11.897  0.5827 -0.2856  0.7930
  156DOPC  C21518769   5.696   6.102  11.883  0.2253 -0.5764 -0.3355
  156DOPC  H15R18770   5.614   6.177  11.882  0.4631 -0.1444  2.4891
  156DOPC  H15S18771   5.660   6.013  11.938  1.5021 -0.2986  1.0097
  156DOPC  C21618772   5.725   6.059  11.737  0.1748 -0.2171 -0.0693
  156DOPC  H16R18773   5.802   5.979  11.732 -0.1251 -0.4630 -0.9637
  156DOPC  H16S18774   5.770   6.143  11.679  1.5863 -0.7286  0.2451
  156DOPC  C21718775   5.604   6.011  11.660  0.1348 -0.0401 -0.8206
  156DOPC  H17R18776   5.618   5.994  11.551  0.2921  1.4666 -1.0647
  156DOPC  H17S18777   5.518   6.079  11.676  2.1401  2.0526  2.2237
  156DOPC  C21818778   5.562   5.871  11.717 -0.3507 -0.1388  0.1061
  156DOPC  H18R18779   5.640   5.794  11.697 -1.5655 -0.9368 -1.8350
  156DOPC  H18S18780   5.465   5.832  11.680 -0.7737 -0.7573  1.8225
  156DOPC  H18T18781   5.537   5.876  11.825  0.0328 -1.4440  0.2713
  156DOPC   C3318782   6.458   6.269  13.318 -0.3600  0.3947  0.0129
  156DOPC   H3X18783   6.504   6.209  13.400 -2.9101  0.3563  1.5349
  156DOPC   H3Y18784   6.538   6.311  13.254  2.5763 -2.2556  1.6683
  156DOPC   C3418785   6.361   6.186  13.231 -0.1924  0.0743 -0.3023
  156DOPC   H4X18786   6.269   6.165  13.290 -0.1310 -0.2828 -0.3311
  156DOPC   H4Y18787   6.392   6.082  13.207  1.1070  0.1813  0.7980
  156DOPC   C3518788   6.317   6.258  13.103  0.1999  0.7660 -0.3846
  156DOPC   H5X18789   6.413   6.295  13.059  1.6668 -1.8258  0.4346
  156DOPC   H5Y18790   6.244   6.336  13.134  0.9405  0.5722  2.0492
  156DOPC   C3618791   6.244   6.167  12.999 -0.3410  0.2951  0.0241
  156DOPC   H6X18792   6.306   6.077  12.979 -1.3794 -0.6956  1.0954
  156DOPC   H6Y18793   6.154   6.133  13.055 -0.1930  0.2762  0.2522
  156DOPC   C3718794   6.195   6.230  12.868 -0.1851  0.2530 -0.6516
  156DOPC   H7X18795   6.128   6.318  12.880 -0.7447 -0.2325 -0.1513
  156DOPC   H7Y18796   6.285   6.276  12.823 -0.3075  1.8950  0.6916
  156DOPC   C3818797   6.146   6.123  12.770  0.1028  0.5245 -0.0859
  156DOPC   H8X18798   6.064   6.063  12.816  0.7695 -2.0537 -1.9964
  156DOPC   H8Y18799   6.234   6.056  12.770 -1.6156 -1.8869 -0.3736
  156DOPC   C3918800   6.122   6.180  12.636  0.0956 -0.5428 -0.0787
  156DOPC   H9X18801   6.097   6.287  12.628  0.3804 -0.3454  1.3732
  156DOPC  C31018802   6.142   6.110  12.527  0.4048 -0.2411  0.4920
  156DOPC  H10X18803   6.139   6.146  12.423  0.2135  0.3930  0.7154
  156DOPC  C31118804   6.169   5.964  12.527  0.1866  0.0879 -0.6219
  156DOPC  H11X18805   6.085   5.909  12.575 -1.1199  2.3877 -0.1086
  156DOPC  H11Y18806   6.267   5.940  12.573 -0.0626  1.6167  0.8087
  156DOPC  C31218807   6.160   5.906  12.380 -0.3153  0.3028 -0.4465
  156DOPC  H12X18808   6.158   5.796  12.391  2.0770 -0.1180 -3.1184
  156DOPC  H12Y18809   6.250   5.935  12.321 -0.6011  0.7715 -0.6600
  156DOPC  C31318810   6.027   5.941  12.304  0.4310 -0.0346  0.6737
  156DOPC  H13X18811   5.932   5.901  12.347 -0.1535 -2.2378 -2.3350
  156DOPC  H13Y18812   6.011   6.050  12.288  0.2646 -0.0946  0.4263
  156DOPC  C31418813   6.026   5.891  12.162  0.9549  0.0704 -0.8316
  156DOPC  H14X18814   5.945   5.938  12.103  0.9148  1.2859  0.1439
  156DOPC  H14Y18815   6.116   5.913  12.101 -0.3579  0.9357 -2.5131
  156DOPC  C31518816   6.012   5.737  12.157 -1.0525 -0.1287 -0.6351
  156DOPC  H15X18817   5.905   5.707  12.155 -1.3501  0.8276 -2.9766
  156DOPC  H15Y18818   6.066   5.707  12.249 -0.2657  0.7741 -0.7820
  156DOPC  C31618819   6.066   5.688  12.022  0.3329 -0.3089  0.4771
  156DOPC  H16X18820   6.166   5.732  12.003  0.6795 -1.8327 -1.6022
  156DOPC  H16Y18821   6.083   5.579  12.032  0.7361 -0.2576  0.3529
  156DOPC  C31718822   6.005   5.739  11.895  0.3774  0.1742 -0.1360
  156DOPC  H17X18823   5.975   5.846  11.892  2.4511  0.7945 -2.0052
  156DOPC  H17Y18824   6.066   5.718  11.804  0.2207 -2.0866  0.2166
  156DOPC  C31818825   5.870   5.672  11.864  0.2304  0.3043 -0.3906
  156DOPC  H18X18826   5.892   5.569  11.830 -0.4486  0.1878 -0.4901
  156DOPC  H18Y18827   5.798   5.656  11.947 -1.8815 -2.3194 -2.5254
  156DOPC  H18Z18828   5.823   5.728  11.780  0.4145  1.1770  0.0795
  157DOPC     N18829   6.347   2.198  13.688  0.7347 -0.2818  0.0845
  157DOPC   C1218830   6.266   2.313  13.752  0.1648  0.4039  0.0802
  157DOPC  H12A18831   6.214   2.357  13.669  0.8763  1.4370  0.1682
  157DOPC  H12B18832   6.333   2.392  13.782  0.4626 -0.2037  1.0591
  157DOPC   C1318833   6.252   2.110  13.614  0.4959  0.2946 -1.0379
  157DOPC  H13A18834   6.198   2.158  13.533 -1.0161  1.5597  0.6166
  157DOPC  H13B18835   6.307   2.029  13.571  1.0233 -0.0891  0.2889
  157DOPC  H13C18836   6.180   2.070  13.684  0.1103 -0.1303 -1.6704
  157DOPC   C1418837   6.420   2.117  13.783 -0.6023  0.2178 -0.1401
  157DOPC  H14A18838   6.359   2.059  13.850  0.3596  0.6895  1.1899
  157DOPC  H14B18839   6.486   2.046  13.735 -2.5510 -2.1698  0.5292
  157DOPC  H14C18840   6.484   2.183  13.840 -0.7565  0.1013  0.1663
  157DOPC   C1518841   6.460   2.244  13.593 -0.0796  0.4175 -0.2257
  157DOPC  H15A18842   6.416   2.274  13.499  0.2652  0.8606 -0.2465
  157DOPC  H15B18843   6.530   2.166  13.567  1.3288  1.2071  1.0764
  157DOPC  H15C18844   6.511   2.328  13.637  1.8147 -1.3971  1.2345
  157DOPC   C1118845   6.157   2.284  13.861 -0.0590  1.0338 -0.2351
  157DOPC  H11A18846   6.195   2.239  13.955 -1.4271  0.5477  0.1115
  157DOPC  H11B18847   6.127   2.385  13.893  0.0475  1.7303 -2.1826
  157DOPC     P18848   5.927   2.277  13.737 -0.3376  0.0777 -0.3240
  157DOPC   O1318849   5.901   2.404  13.810  0.2909  0.0968  0.4454
  157DOPC   O1418850   5.811   2.185  13.727 -0.3353  0.3097 -0.3382
  157DOPC   O1218851   6.045   2.200  13.815 -0.2650 -0.4527 -0.2136
  157DOPC   O1118852   6.006   2.301  13.601 -0.3380 -0.4059 -0.1039
  157DOPC    C118853   5.929   2.299  13.485 -0.0593  0.5633 -0.2525
  157DOPC    HA18854   5.851   2.378  13.478 -1.1963 -0.3527  1.4759
  157DOPC    HB18855   5.876   2.202  13.473 -0.3481  0.8739 -1.6159
  157DOPC    C218856   6.018   2.330  13.360  0.3616 -0.0975 -0.3972
  157DOPC    HS18857   5.949   2.356  13.277  0.3969  1.0928 -0.0683
  157DOPC   O2118858   6.092   2.216  13.327  0.5826  0.3316  0.4975
  157DOPC   C2118859   6.025   2.117  13.275 -0.1356  0.0249  0.6866
  157DOPC   O2218860   5.912   2.124  13.230  0.3904  0.1048  0.2385
  157DOPC   C2218861   6.115   1.995  13.275 -0.0096  0.2200 -0.0973
  157DOPC   H2R18862   6.050   1.912  13.311 -1.0829  0.9557 -0.2740
  157DOPC   H2S18863   6.206   2.012  13.335  1.0665 -3.5904 -0.3810
  157DOPC    C318864   6.097   2.459  13.395  0.1517  0.1660  0.1392
  157DOPC    HX18865   6.159   2.446  13.486  0.9307  0.9315 -0.2666
  157DOPC    HY18866   6.022   2.538  13.416  1.2987  1.0223  1.0931
  157DOPC   O3118867   6.167   2.499  13.279 -0.0008 -0.5396  0.0955
  157DOPC   C3118868   6.294   2.452  13.274  1.1278 -0.6421 -1.0032
  157DOPC   O3218869   6.348   2.384  13.359  0.1585  0.1900  0.8977
  157DOPC   C3218870   6.364   2.521  13.153 -0.2975 -0.3650  0.0857
  157DOPC   H2X18871   6.323   2.623  13.140  2.3089  1.0288  1.8626
  157DOPC   H2Y18872   6.470   2.521  13.185 -0.3684  0.5512  0.3315
  157DOPC   C2318873   6.145   1.977  13.123 -0.3887 -0.0365 -0.9368
  157DOPC   H3R18874   6.049   1.962  13.069 -2.4462  2.5889  1.6629
  157DOPC   H3S18875   6.212   1.888  13.120  0.4203  0.3429  2.2876
  157DOPC   C2418876   6.220   2.099  13.057 -0.3576  0.0984  0.3425
  157DOPC   H4R18877   6.311   2.114  13.119 -0.6708  1.6152  0.4903
  157DOPC   H4S18878   6.151   2.187  13.057 -2.7574 -1.6786  1.3840
  157DOPC   C2518879   6.281   2.076  12.919  0.2374  0.2776  0.5558
  157DOPC   H5R18880   6.359   1.997  12.924  0.0696  0.0404 -0.3174
  157DOPC   H5S18881   6.342   2.167  12.898  0.5687  0.6234  2.7930
  157DOPC   C2618882   6.186   2.044  12.812 -0.2651  0.5889 -1.1795
  157DOPC   H6R18883   6.131   1.953  12.842 -0.0252  1.2975  1.6732
  157DOPC   H6S18884   6.253   2.024  12.725  0.7811 -0.0111 -0.2667
  157DOPC   C2718885   6.091   2.165  12.794 -0.5108  0.9571  0.0776
  157DOPC   H7R18886   6.117   2.250  12.861 -1.9766 -0.7992  3.1026
  157DOPC   H7S18887   5.989   2.138  12.830 -0.7784  1.4167 -0.3182
  157DOPC   C2818888   6.087   2.227  12.655  0.6629 -0.1487  0.4236
  157DOPC   H8R18889   6.189   2.258  12.626  0.3267  0.3928 -0.1979
  157DOPC   H8S18890   6.025   2.319  12.662  0.1882 -0.5436  1.8394
  157DOPC   C2918891   6.021   2.130  12.559 -0.2710 -0.2406 -0.1697
  157DOPC   H9R18892   5.951   2.066  12.614  0.1912 -1.8573 -1.4039
  157DOPC  C21018893   6.073   2.077  12.445  0.0863 -0.1931  0.3728
  157DOPC  H10R18894   6.007   2.019  12.378 -1.2241  0.8432  0.7218
  157DOPC  C21118895   6.197   2.125  12.372  0.7071  0.1962  0.2549
  157DOPC  H11R18896   6.268   2.039  12.367 -0.2125 -0.4921 -1.9319
  157DOPC  H11S18897   6.234   2.224  12.407 -0.7283  0.4377  1.1773
  157DOPC  C21218898   6.159   2.138  12.222  0.0487 -0.0828  0.1290
  157DOPC  H12R18899   6.084   2.219  12.209  0.9863  0.6359 -1.1089
  157DOPC  H12S18900   6.117   2.045  12.178  0.1645 -1.1773  2.2280
  157DOPC  C21318901   6.273   2.156  12.121  0.0882  0.2056 -0.1779
  157DOPC  H13R18902   6.335   2.064  12.126  0.3045  0.3402 -0.4083
  157DOPC  H13S18903   6.344   2.238  12.145  0.4517  0.2995 -1.4894
  157DOPC  C21418904   6.224   2.172  11.969  0.3320  0.1334 -0.3806
  157DOPC  H14R18905   6.300   2.218  11.903 -0.6012  0.3609 -1.3312
  157DOPC  H14S18906   6.130   2.230  11.974 -0.6981 -1.5150  0.3012
  157DOPC  C21518907   6.166   2.047  11.904  0.4323 -0.0009 -0.3882
  157DOPC  H15R18908   6.093   1.997  11.971  1.8099  0.2801  1.4078
  157DOPC  H15S18909   6.252   1.977  11.910  1.4814  1.2638 -0.2956
  157DOPC  C21618910   6.125   2.059  11.752 -0.3113 -0.3637  0.0863
  157DOPC  H16R18911   6.200   2.114  11.691 -2.1613  1.0084 -1.0424
  157DOPC  H16S18912   6.032   2.119  11.757 -0.0046  0.0498  1.4743
  157DOPC  C21718913   6.084   1.925  11.696 -0.4332  0.4265 -0.3124
  157DOPC  H17R18914   6.030   1.863  11.771  0.7975 -0.7705 -0.3779
  157DOPC  H17S18915   6.178   1.872  11.670  0.4989 -0.2053  3.6832
  157DOPC  C21818916   5.996   1.947  11.577 -0.0366 -0.4326  0.4278
  157DOPC  H18R18917   6.052   2.021  11.515  0.3139 -0.7813  0.3239
  157DOPC  H18S18918   5.900   1.991  11.611 -0.7242 -1.1594 -0.5307
  157DOPC  H18T18919   5.981   1.856  11.516  0.5971  0.2491 -0.7991
  157DOPC   C3318920   6.351   2.439  13.022 -1.0438 -0.2854  0.7554
  157DOPC   H3X18921   6.243   2.438  12.995 -0.7116  2.0473 -0.9867
  157DOPC   H3Y18922   6.386   2.335  13.039  0.4684  0.1006  0.2091
  157DOPC   C3418923   6.430   2.508  12.908 -0.7367 -0.5123  0.3555
  157DOPC   H4X18924   6.533   2.506  12.949 -0.5883 -0.9441 -0.0187
  157DOPC   H4Y18925   6.388   2.610  12.895  0.4774 -0.0494 -0.0812
  157DOPC   C3518926   6.418   2.424  12.780  0.0760  0.8040 -0.1151
  157DOPC   H5X18927   6.311   2.426  12.748  0.3867 -0.8716 -1.3635
  157DOPC   H5Y18928   6.451   2.320  12.795 -2.5167  0.0312  0.8034
  157DOPC   C3618929   6.494   2.490  12.673 -0.6520  0.1402  0.0249
  157DOPC   H6X18930   6.459   2.595  12.670  0.2462  0.4351 -0.7197
  157DOPC   H6Y18931   6.604   2.491  12.687 -0.5685  0.1518 -0.5986
  157DOPC   C3718932   6.467   2.439  12.529  0.1517 -0.5741 -0.3241
  157DOPC   H7X18933   6.525   2.350  12.499 -0.7184 -2.1664  2.3145
  157DOPC   H7Y18934   6.363   2.401  12.535 -0.9430  2.0711 -0.8263
  157DOPC   C3818935   6.466   2.546  12.418  0.3364  0.0699 -0.1138
  157DOPC   H8X18936   6.403   2.631  12.448  0.1775  0.4957 -1.5732
  157DOPC   H8Y18937   6.412   2.501  12.332 -0.4201 -1.4758  1.1071
  157DOPC   C3918938   6.611   2.582  12.374  0.0823 -0.0825  0.8566
  157DOPC   H9X18939   6.668   2.658  12.429  0.4302  1.6898 -1.8055
  157DOPC  C31018940   6.671   2.532  12.260  0.3342 -0.2578 -0.3646
  157DOPC  H10X18941   6.776   2.559  12.238  0.6724 -1.1440  0.1092
  157DOPC  C31118942   6.615   2.436  12.158  0.0608  0.6958  0.2924
  157DOPC  H11X18943   6.511   2.412  12.187  0.4739 -1.8714 -0.1213
  157DOPC  H11Y18944   6.674   2.342  12.146  0.1104  0.9740 -2.0152
  157DOPC  C31218945   6.594   2.498  12.018 -0.0018  0.2402 -0.8425
  157DOPC  H12X18946   6.679   2.568  12.001 -0.2400  0.2144 -2.2958
  157DOPC  H12Y18947   6.499   2.556  12.023 -0.2575 -0.1970 -0.5941
  157DOPC  C31318948   6.604   2.411  11.895  0.1688  0.1511 -0.2319
  157DOPC  H13X18949   6.703   2.363  11.914  1.1761  1.4815 -1.8429
  157DOPC  H13Y18950   6.520   2.340  11.882  0.0632  0.5676 -2.2034
  157DOPC  C31418951   6.607   2.494  11.766  0.1481 -0.0672  0.6309
  157DOPC  H14X18952   6.502   2.504  11.732 -0.6422 -3.2476  1.8166
  157DOPC  H14Y18953   6.656   2.592  11.783  3.7117 -1.3991 -0.9988
  157DOPC  C31518954   6.695   2.426  11.661  0.1753  0.0853  0.4264
  157DOPC  H15X18955   6.641   2.334  11.630  0.6900 -0.4986  1.2133
  157DOPC  H15Y18956   6.794   2.413  11.709  0.4392  0.0310 -0.1258
  157DOPC  C31618957   6.721   2.505  11.538 -0.0477  0.2162 -0.2060
  157DOPC  H16X18958   6.623   2.515  11.487 -0.0064  1.6769 -0.0412
  157DOPC  H16Y18959   6.744   2.612  11.558 -0.9386  0.5521 -0.9021
  157DOPC  C31718960   6.825   2.446  11.438  0.0094 -0.2033 -0.1138
  157DOPC  H17X18961   6.829   2.488  11.335  0.5368  0.0797  0.0179
  157DOPC  H17Y18962   6.926   2.458  11.482  0.0931 -0.8975 -0.0955
  157DOPC  C31818963   6.802   2.297  11.416 -1.0738 -0.6705  0.4109
  157DOPC  H18X18964   6.830   2.245  11.510 -2.6679 -1.9825  0.2171
  157DOPC  H18Y18965   6.696   2.284  11.386 -0.9315 -0.8585 -0.0329
  157DOPC  H18Z18966   6.863   2.254  11.333  1.9954  2.1671  0.9966
  158DOPC     N18967   5.137   1.400  13.983  0.0735 -0.1930  1.0261
  158DOPC   C1218968   5.163   1.384  13.838  0.3383 -0.1803 -0.2614
  158DOPC  H12A18969   5.236   1.454  13.800  1.4123 -1.1485 -0.0338
  158DOPC  H12B18970   5.076   1.418  13.784  0.9561  2.1929  0.1223
  158DOPC   C1318971   5.089   1.541  14.009 -0.0520  0.1032  0.2918
  158DOPC  H13A18972   5.005   1.566  13.946  0.5480  0.6798 -0.2991
  158DOPC  H13B18973   5.046   1.543  14.108 -1.4787 -1.0484 -0.2879
  158DOPC  H13C18974   5.170   1.613  14.007  0.1397 -0.1308 -0.5493
  158DOPC   C1418975   5.265   1.367  14.055 -0.0829 -0.7943 -0.5361
  158DOPC  H14A18976   5.334   1.448  14.069  1.7199 -2.0963 -1.5482
  158DOPC  H14B18977   5.252   1.328  14.155 -3.4179  0.2916 -0.4110
  158DOPC  H14C18978   5.322   1.292  14.003  0.9867 -0.6447  0.3877
  158DOPC   C1518979   5.036   1.308  14.035  0.2366  0.2554 -0.4220
  158DOPC  H15A18980   4.944   1.327  13.983  0.0011  0.7035  0.1521
  158DOPC  H15B18981   5.014   1.326  14.139  0.7454  2.5985 -0.6594
  158DOPC  H15C18982   5.058   1.204  14.020 -1.9758 -0.6229  1.8379
  158DOPC   C1118983   5.202   1.238  13.798 -0.2890 -0.5131  0.0519
  158DOPC  H11A18984   5.215   1.253  13.689 -1.4126  0.4464  0.0302
  158DOPC  H11B18985   5.292   1.212  13.857 -0.7863  0.2284  1.1670
  158DOPC     P18986   4.986   1.107  13.699  0.1182 -1.0154 -0.4556
  158DOPC   O1318987   4.923   1.234  13.648  0.0607 -0.0939  0.2000
  158DOPC   O1418988   4.890   1.006  13.748 -0.3422 -0.3274 -0.0895
  158DOPC   O1218989   5.100   1.140  13.809 -0.1620  0.1822  0.0989
  158DOPC   O1118990   5.070   1.060  13.576  0.1157  0.2468  0.5060
  158DOPC    C118991   5.158   0.945  13.588  0.1185  0.8983  0.0506
  158DOPC    HA18992   5.105   0.848  13.584  2.0926 -0.1873 -1.5266
  158DOPC    HB18993   5.203   0.947  13.690 -0.0117  0.8265  0.1099
  158DOPC    C218994   5.266   0.962  13.479  0.4572 -0.0114  0.0179
  158DOPC    HS18995   5.321   1.057  13.499 -0.4502  0.6730 -0.6532
  158DOPC   O2118996   5.210   0.966  13.343 -0.0360 -0.3145  0.2885
  158DOPC   C2118997   5.279   1.040  13.254 -0.2142  0.2253 -0.2552
  158DOPC   O2218998   5.377   1.110  13.281  0.0566 -0.1538 -0.5118
  158DOPC   C2218999   5.203   1.033  13.123  0.3959  0.1689  0.2060
  158DOPC   H2R19000   5.101   0.990  13.133  0.8883 -1.4172 -1.0441
  158DOPC   H2S19001   5.253   0.955  13.061  2.3664  1.4280  0.1466
  158DOPC    C319002   5.358   0.839  13.475  0.1149  0.5684 -0.0845
  158DOPC    HX19003   5.286   0.755  13.486 -2.2297  2.3143 -1.1279
  158DOPC    HY19004   5.422   0.844  13.566 -1.0800  0.6580  0.7799
  158DOPC   O3119005   5.446   0.823  13.359 -0.6800  0.4699  0.3025
  158DOPC   C3119006   5.484   0.699  13.328 -0.1452  0.1859  0.1038
  158DOPC   O3219007   5.445   0.600  13.392 -0.1888  0.2846  0.7932
  158DOPC   C3219008   5.564   0.701  13.194 -0.5414 -0.1355 -0.0904
  158DOPC   H2X19009   5.651   0.771  13.195  0.0276 -0.8440  0.6980
  158DOPC   H2Y19010   5.615   0.602  13.187  0.0620 -0.0102  2.0455
  158DOPC   C2319011   5.198   1.167  13.046  0.2045  0.5812  0.6936
  158DOPC   H3R19012   5.303   1.197  13.025  2.2746 -3.5745  3.5360
  158DOPC   H3S19013   5.144   1.246  13.102 -1.1265 -0.0841  0.3960
  158DOPC   C2419014   5.122   1.164  12.912 -0.5957  0.2503  0.1295
  158DOPC   H4R19015   5.100   1.270  12.887  1.0220  0.7252  0.5829
  158DOPC   H4S19016   5.035   1.096  12.922 -1.0565  0.4642 -2.0266
  158DOPC   C2519017   5.205   1.103  12.798 -0.0600 -0.1485 -0.0785
  158DOPC   H5R19018   5.217   0.995  12.818  2.2934  0.1447  0.4171
  158DOPC   H5S19019   5.306   1.150  12.792 -0.8763  2.0292  1.6091
  158DOPC   C2619020   5.131   1.117  12.665 -0.4200  0.3246 -0.5921
  158DOPC   H6R19021   5.127   1.226  12.642  1.2223  0.4005 -0.5946
  158DOPC   H6S19022   5.027   1.082  12.680 -0.1695  0.1096  0.7786
  158DOPC   C2719023   5.200   1.042  12.553  0.5499 -0.1559  0.6864
  158DOPC   H7R19024   5.155   0.941  12.561  1.5775 -0.9541 -2.2294
  158DOPC   H7S19025   5.310   1.033  12.569  0.7211 -2.2594 -1.1813
  158DOPC   C2819026   5.164   1.101  12.412  0.1158  0.0530 -0.0284
  158DOPC   H8R19027   5.053   1.107  12.408  0.1107  1.7851  1.5378
  158DOPC   H8S19028   5.196   1.021  12.340 -0.8992 -0.3893 -0.0061
  158DOPC   C2919029   5.231   1.239  12.391 -0.3631 -0.5536 -0.4645
  158DOPC   H9R19030   5.214   1.322  12.461  2.8269  1.1572 -1.5237
  158DOPC  C21019031   5.318   1.276  12.294 -0.0708 -0.1175 -0.2825
  158DOPC  H10R19032   5.341   1.383  12.289 -0.6015  0.0501  0.7560
  158DOPC  C21119033   5.366   1.195  12.180  0.5511 -0.2727 -0.6858
  158DOPC  H11R19034   5.327   1.092  12.196 -0.9089  0.6088  1.8853
  158DOPC  H11S19035   5.477   1.192  12.190  0.3118 -2.5418  3.6878
  158DOPC  C21219036   5.332   1.254  12.045  0.7675  0.6113 -0.1741
  158DOPC  H12R19037   5.228   1.292  12.042  0.0011 -1.1276  1.8351
  158DOPC  H12S19038   5.336   1.174  11.968  1.9664  0.0948  0.3962
  158DOPC  C21319039   5.432   1.361  11.987 -0.1973 -0.0898 -0.1273
  158DOPC  H13R19040   5.521   1.310  11.943 -0.3609  0.3555 -0.9939
  158DOPC  H13S19041   5.478   1.403  12.079  1.5742 -3.5514  0.7495
  158DOPC  C21419042   5.377   1.470  11.892  0.5311  1.1309 -0.5174
  158DOPC  H14R19043   5.447   1.549  11.859 -0.3851  1.5878 -1.4392
  158DOPC  H14S19044   5.303   1.534  11.944  1.7033  1.2967  1.0147
  158DOPC  C21519045   5.309   1.419  11.758 -1.0381 -0.8440  0.2882
  158DOPC  H15R19046   5.227   1.352  11.790  0.5143 -2.9132  0.1453
  158DOPC  H15S19047   5.382   1.360  11.699  0.3479  0.4064  0.6762
  158DOPC  C21619048   5.252   1.536  11.669 -0.2416 -0.0190  0.0736
  158DOPC  H16R19049   5.335   1.608  11.654 -1.0148  0.8052 -0.3909
  158DOPC  H16S19050   5.171   1.593  11.720 -0.2289  0.1552 -0.0993
  158DOPC  C21719051   5.188   1.482  11.542  0.5691 -0.6879  0.1481
  158DOPC  H17R19052   5.134   1.566  11.494 -0.2099 -0.9066  0.6285
  158DOPC  H17S19053   5.111   1.405  11.567  1.5095 -1.7184 -0.0390
  158DOPC  C21819054   5.298   1.422  11.446  0.3431  0.3148 -0.1807
  158DOPC  H18R19055   5.381   1.490  11.418 -1.0587  2.0635 -0.2204
  158DOPC  H18S19056   5.251   1.391  11.350 -2.8368  0.0154  1.3515
  158DOPC  H18T19057   5.341   1.330  11.492  0.6154  0.1696 -0.7146
  158DOPC   C3319058   5.482   0.755  13.076  0.7497  0.6246  0.3605
  158DOPC   H3X19059   5.450   0.861  13.090 -0.2456  0.3423  0.3075
  158DOPC   H3Y19060   5.390   0.696  13.059  1.6383 -0.7121  0.0889
  158DOPC   C3419061   5.558   0.756  12.944 -0.1300 -0.2085 -0.5562
  158DOPC   H4X19062   5.601   0.660  12.908 -0.2828 -0.6913  0.5083
  158DOPC   H4Y19063   5.646   0.824  12.955 -0.5417  0.6591 -2.4021
  158DOPC   C3519064   5.483   0.819  12.828  0.1549 -0.1544 -0.5072
  158DOPC   H5X19065   5.435   0.908  12.874  0.0558  0.2854 -1.4386
  158DOPC   H5Y19066   5.393   0.756  12.812 -1.2506  1.5489  0.2844
  158DOPC   C3619067   5.563   0.868  12.705 -0.2513 -0.0755  0.5693
  158DOPC   H6X19068   5.501   0.952  12.667  0.9512  0.6132  0.0555
  158DOPC   H6Y19069   5.660   0.914  12.735 -0.2817  0.2956  0.1035
  158DOPC   C3719070   5.591   0.766  12.600 -0.1740 -0.1057  0.0105
  158DOPC   H7X19071   5.674   0.698  12.627  1.8191  0.9913 -2.8918
  158DOPC   H7Y19072   5.494   0.712  12.589 -0.3859  0.7984 -3.5652
  158DOPC   C3819073   5.642   0.838  12.474  0.6993 -0.5247  0.4855
  158DOPC   H8X19074   5.736   0.890  12.503 -0.1918  1.3401  0.1770
  158DOPC   H8Y19075   5.573   0.921  12.449  1.7089  0.0734 -0.4346
  158DOPC   C3919076   5.659   0.737  12.365 -0.1048 -0.0706 -0.1705
  158DOPC   H9X19077   5.674   0.632  12.396 -2.2091 -0.5603 -0.6515
  158DOPC  C31019078   5.658   0.755  12.236 -0.4099 -0.5403  0.6066
  158DOPC  H10X19079   5.709   0.677  12.177 -0.2162  0.3379 -0.4149
  158DOPC  C31119080   5.632   0.884  12.158  0.0303 -0.0629  0.3838
  158DOPC  H11X19081   5.723   0.948  12.165 -0.0959  0.4420 -1.8670
  158DOPC  H11Y19082   5.557   0.940  12.217  0.5361 -0.9082  1.8800
  158DOPC  C31219083   5.613   0.857  12.004 -0.0090  0.6261  0.3501
  158DOPC  H12X19084   5.522   0.799  11.976  1.3218 -0.0767 -3.0238
  158DOPC  H12Y19085   5.697   0.805  11.953 -1.7994 -3.5245  1.2017
  158DOPC  C31319086   5.601   0.992  11.931  0.5508  0.6018 -0.3027
  158DOPC  H13X19087   5.515   1.039  11.983 -2.0242 -1.2674 -2.5838
  158DOPC  H13Y19088   5.690   1.058  11.946  1.7598 -0.9472 -0.4026
  158DOPC  C31419089   5.562   0.984  11.788  0.3908 -0.2137  0.0810
  158DOPC  H14X19090   5.487   0.902  11.776  0.6680 -0.5055  0.3488
  158DOPC  H14Y19091   5.509   1.078  11.761  0.5059 -0.2267 -0.1938
  158DOPC  C31519092   5.677   0.978  11.687  0.1253  0.5513 -0.0073
  158DOPC  H15X19093   5.718   0.875  11.691  2.3599  1.4411  1.3992
  158DOPC  H15Y19094   5.760   1.052  11.698 -0.5646  1.1012  2.0987
  158DOPC  C31619095   5.624   1.003  11.547 -0.0751  0.0294  0.1132
  158DOPC  H16X19096   5.583   1.106  11.534 -1.2089 -0.6294 -1.8854
  158DOPC  H16Y19097   5.697   0.979  11.466 -1.1147 -1.2222 -0.4812
  158DOPC  C31719098   5.505   0.913  11.500 -0.3279 -0.5099  0.1770
  158DOPC  H17X19099   5.539   0.808  11.514 -0.1612 -0.4094  0.5318
  158DOPC  H17Y19100   5.425   0.933  11.575 -0.1142 -0.1891  0.3192
  158DOPC  C31819101   5.451   0.953  11.358 -0.1367 -0.0214 -1.1732
  158DOPC  H18X19102   5.398   1.050  11.364 -0.7641 -0.4260  0.4634
  158DOPC  H18Y19103   5.542   0.963  11.295 -0.2565 -1.3502 -1.6049
  158DOPC  H18Z19104   5.369   0.885  11.327 -0.8402  0.2569  0.0147
  159DOPC     N19105   6.284   3.110  13.791 -1.3410  0.2925  0.5344
  159DOPC   C1219106   6.404   3.053  13.707  0.0375 -0.5448  0.8087
  159DOPC  H12A19107   6.488   3.049  13.774  1.0289 -0.6232 -0.4194
  159DOPC  H12B19108   6.428   3.126  13.631 -0.9164 -0.3841  0.6425
  159DOPC   C1319109   6.325   3.242  13.845  0.2236 -0.5520 -0.1967
  159DOPC  H13A19110   6.371   3.301  13.767  0.4234 -2.2753 -1.4539
  159DOPC  H13B19111   6.236   3.280  13.892 -0.0063  0.3267 -1.3137
  159DOPC  H13C19112   6.398   3.228  13.924  1.8508 -0.5377 -1.6312
  159DOPC   C1419113   6.260   3.010  13.899  0.2569  0.0625  0.1177
  159DOPC  H14A19114   6.159   3.012  13.937  0.4427 -1.0610  0.6843
  159DOPC  H14B19115   6.254   2.914  13.850  1.5628  0.1769 -0.3080
  159DOPC  H14C19116   6.333   3.001  13.978  0.5195 -2.4828 -0.3511
  159DOPC   C1519117   6.165   3.123  13.699  0.5815 -0.2308  0.2681
  159DOPC  H15A19118   6.083   3.089  13.761  0.2780  1.2685  0.7344
  159DOPC  H15B19119   6.157   3.062  13.611  0.4775  2.2622 -1.5402
  159DOPC  H15C19120   6.146   3.221  13.660  1.9861 -0.0113  0.0798
  159DOPC   C1119121   6.389   2.915  13.644 -0.7967 -0.9037  0.4001
  159DOPC  H11A19122   6.297   2.911  13.582 -1.1264 -0.2977  0.8466
  159DOPC  H11B19123   6.477   2.906  13.577  0.0670  0.5814  1.2838
  159DOPC     P19124   6.377   2.664  13.697  0.0875  0.3534 -0.3787
  159DOPC   O1319125   6.237   2.648  13.652 -0.4726 -0.4682  0.1261
  159DOPC   O1419126   6.418   2.578  13.807  0.2874 -0.1061 -0.0937
  159DOPC   O1219127   6.404   2.814  13.747 -0.0132 -0.5423  0.5060
  159DOPC   O1119128   6.480   2.639  13.579  0.2565  0.0015  0.8087
  159DOPC    C119129   6.616   2.610  13.611 -0.1556 -0.8367 -0.5653
  159DOPC    HA19130   6.623   2.505  13.647  0.0270 -1.6939 -2.9475
  159DOPC    HB19131   6.650   2.677  13.693 -2.3637  0.5351 -0.6980
  159DOPC    C219132   6.712   2.629  13.497 -0.7271  0.7858 -0.1458
  159DOPC    HS19133   6.814   2.606  13.534 -1.2559  0.8591  1.4385
  159DOPC   O2119134   6.703   2.767  13.459  0.0895 -0.2020 -0.6246
  159DOPC   C2119135   6.766   2.846  13.540  0.6351 -0.7884 -0.2119
  159DOPC   O2219136   6.847   2.815  13.625 -0.0139  0.5354 -0.2505
  159DOPC   C2219137   6.735   2.994  13.497  0.0203 -0.1505 -0.3531
  159DOPC   H2R19138   6.724   3.051  13.592 -0.8522  0.5410 -0.8607
  159DOPC   H2S19139   6.638   2.986  13.444  0.2355 -0.2960 -0.7253
  159DOPC    C319140   6.684   2.525  13.383  0.1095 -0.3115  0.0298
  159DOPC    HX19141   6.581   2.547  13.346  1.1539  2.6439 -1.4372
  159DOPC    HY19142   6.678   2.426  13.432  0.1313  0.0392  0.7485
  159DOPC   O3119143   6.780   2.524  13.277  0.3040 -0.4443  0.0340
  159DOPC   C3119144   6.762   2.605  13.175 -0.3628  0.0332 -0.0577
  159DOPC   O3219145   6.672   2.690  13.162 -0.1609  0.3906 -0.3317
  159DOPC   C3219146   6.877   2.588  13.071 -0.4637  0.2984  0.9145
  159DOPC   H2X19147   6.960   2.646  13.115 -2.5014  1.1898  3.8574
  159DOPC   H2Y19148   6.901   2.481  13.053  1.0149 -0.0998  4.4477
  159DOPC   C2319149   6.837   3.059  13.410 -0.3251  0.5813 -0.2334
  159DOPC   H3R19150   6.921   3.081  13.480 -1.5934  0.5580  1.3430
  159DOPC   H3S19151   6.802   3.156  13.369 -2.7133 -0.6572 -1.3034
  159DOPC   C2419152   6.896   2.974  13.296 -0.0280 -1.3470  0.1950
  159DOPC   H4R19153   6.816   2.936  13.228  1.3785 -2.2887 -1.0046
  159DOPC   H4S19154   6.950   2.885  13.334  0.7906 -1.6697 -1.6083
  159DOPC   C2519155   6.991   3.067  13.219 -0.0809  0.0716  0.8187
  159DOPC   H5R19156   7.062   3.107  13.294 -1.4003 -2.9300  3.9576
  159DOPC   H5S19157   6.941   3.156  13.177  0.4401  0.4408  0.9685
  159DOPC   C2619158   7.061   2.989  13.107  0.0935 -0.2982  0.0030
  159DOPC   H6R19159   6.988   2.923  13.056  0.5229  0.8200 -2.1993
  159DOPC   H6S19160   7.142   2.921  13.141 -0.0644 -0.6530 -0.3223
  159DOPC   C2719161   7.128   3.084  13.004 -0.1695 -0.3138 -0.0359
  159DOPC   H7R19162   7.216   3.134  13.049 -0.0858 -0.0394 -0.5043
  159DOPC   H7S19163   7.057   3.167  12.984  0.9844  0.6632 -0.1565
  159DOPC   C2819164   7.173   3.029  12.865  0.3370 -0.2188 -0.5395
  159DOPC   H8R19165   7.243   2.947  12.896  0.1881 -0.6344 -1.2781
  159DOPC   H8S19166   7.232   3.107  12.813 -0.1031  0.2255 -0.3702
  159DOPC   C2919167   7.058   2.985  12.778 -0.9866  0.4032  0.6755
  159DOPC   H9R19168   6.987   2.921  12.833 -2.9278  1.1431 -0.8739
  159DOPC  C21019169   7.032   3.015  12.650 -0.2685 -0.3052  0.2439
  159DOPC  H10R19170   6.948   2.961  12.603 -0.7495  0.0597  0.6693
  159DOPC  C21119171   7.120   3.094  12.553 -0.2281  0.1997 -0.4482
  159DOPC  H11R19172   7.228   3.082  12.577  0.2028  2.1464 -1.2591
  159DOPC  H11S19173   7.094   3.202  12.555 -0.4638  0.1343  0.9712
  159DOPC  C21219174   7.104   3.050  12.411  0.1348  0.1970  0.3646
  159DOPC  H12R19175   7.059   2.949  12.396 -0.8111  0.9036 -1.8735
  159DOPC  H12S19176   7.206   3.051  12.367 -0.2715  0.4838 -0.6020
  159DOPC  C21319177   7.013   3.138  12.336  0.0451  0.3151 -0.5875
  159DOPC  H13R19178   7.068   3.234  12.327  0.8285  0.1748  1.8739
  159DOPC  H13S19179   6.917   3.144  12.392 -1.4524 -2.5549 -2.5761
  159DOPC  C21419180   7.010   3.094  12.186  0.2840  0.0022 -0.9096
  159DOPC  H14R19181   7.115   3.080  12.153  1.2948  0.0937  1.9209
  159DOPC  H14S19182   6.958   3.176  12.132 -0.9933  0.7193  1.2435
  159DOPC  C21519183   6.930   2.969  12.163 -0.0068  0.8294 -0.2055
  159DOPC  H15R19184   6.836   2.954  12.220  1.3146  0.3169  1.9268
  159DOPC  H15S19185   6.998   2.888  12.195  0.5928  1.2960 -0.2972
  159DOPC  C21619186   6.912   2.950  12.015 -0.3469  0.4246  0.2059
  159DOPC  H16R19187   6.993   3.002  11.961  1.5875 -1.6431  0.9782
  159DOPC  H16S19188   6.823   3.012  11.988  0.3568  1.2705 -0.2106
  159DOPC  C21719189   6.896   2.806  11.967 -0.0662  0.1757  0.0346
  159DOPC  H17R19190   6.812   2.750  12.014  0.1258 -1.7743 -1.7800
  159DOPC  H17S19191   6.982   2.745  12.003 -1.9552 -1.2756  2.4475
  159DOPC  C21819192   6.869   2.796  11.817 -0.4559  0.7201  0.9521
  159DOPC  H18R19193   6.945   2.862  11.770  1.8985 -1.5404  1.3576
  159DOPC  H18S19194   6.766   2.836  11.805 -0.6073  0.1143  0.1640
  159DOPC  H18T19195   6.878   2.693  11.776 -1.3451  0.7168  0.7434
  159DOPC   C3319196   6.854   2.649  12.930  0.2544 -0.2425  0.0792
  159DOPC   H3X19197   6.844   2.759  12.925  1.5374 -0.1391 -1.3367
  159DOPC   H3Y19198   6.761   2.596  12.900 -0.5418  1.0402  0.2332
  159DOPC   C3419199   6.969   2.613  12.828 -0.7790  0.4150  0.2380
  159DOPC   H4X19200   6.998   2.510  12.859  1.1912  1.8466  3.7275
  159DOPC   H4Y19201   7.053   2.686  12.835  0.4903 -1.0627  1.0870
  159DOPC   C3519202   6.916   2.616  12.679 -0.4710  0.4951 -0.7039
  159DOPC   H5X19203   6.892   2.720  12.649  0.1817  0.8284 -0.1034
  159DOPC   H5Y19204   6.816   2.567  12.672 -1.3641  1.8739  1.2940
  159DOPC   C3619205   7.020   2.556  12.584 -0.3509  0.1723 -0.0854
  159DOPC   H6X19206   7.112   2.618  12.582 -0.7880  0.8413  0.1602
  159DOPC   H6Y19207   7.049   2.450  12.602 -0.0810  0.4899  1.5634
  159DOPC   C3719208   6.970   2.560  12.440  0.2790 -0.2774 -0.3455
  159DOPC   H7X19209   6.893   2.484  12.418 -0.2802  0.4171 -0.8404
  159DOPC   H7Y19210   6.918   2.658  12.440 -1.3833 -1.0689  2.0416
  159DOPC   C3819211   7.079   2.569  12.324 -0.1400 -0.2007 -0.0103
  159DOPC   H8X19212   7.150   2.653  12.341 -0.1371  0.3890 -2.4680
  159DOPC   H8Y19213   7.029   2.607  12.232  1.4055 -0.9065 -1.1924
  159DOPC   C3919214   7.153   2.445  12.304 -1.2894 -0.1602  0.1780
  159DOPC   H9X19215   7.218   2.403  12.381 -1.6139 -1.6870 -0.3375
  159DOPC  C31019216   7.161   2.367  12.197 -0.1077 -0.9191 -0.6292
  159DOPC  H10X19217   7.222   2.278  12.218  2.5120  1.0800  0.6714
  159DOPC  C31119218   7.089   2.391  12.067  0.0879  0.1473 -0.3236
  159DOPC  H11X19219   7.028   2.484  12.063  0.1326  0.1516 -1.1405
  159DOPC  H11Y19220   7.021   2.306  12.045 -0.1266 -0.6554  2.9439
  159DOPC  C31219221   7.180   2.412  11.950 -0.0091 -0.1917 -0.5539
  159DOPC  H12X19222   7.240   2.318  11.958 -0.2406 -0.1878  2.3498
  159DOPC  H12Y19223   7.250   2.495  11.971 -0.1978  0.0689 -0.9575
  159DOPC  C31319224   7.106   2.447  11.816 -0.2151  0.1067 -0.5057
  159DOPC  H13X19225   6.998   2.444  11.842 -0.0791  2.1847  0.4876
  159DOPC  H13Y19226   7.120   2.556  11.809 -0.7434  0.5177  2.9654
  159DOPC  C31419227   7.152   2.371  11.685 -0.1887 -0.8281 -0.1331
  159DOPC  H14X19228   7.141   2.261  11.695 -1.5649 -0.9597 -2.3614
  159DOPC  H14Y19229   7.072   2.386  11.610 -0.6524 -1.4983  0.2212
  159DOPC  C31519230   7.283   2.419  11.611  0.0946 -0.3043 -0.4053
  159DOPC  H15X19231   7.266   2.529  11.603 -0.7222 -0.3130  0.9654
  159DOPC  H15Y19232   7.280   2.371  11.511 -0.6015 -0.1118 -0.4806
  159DOPC  C31619233   7.412   2.367  11.672 -0.3496  0.2598  1.0786
  159DOPC  H16X19234   7.418   2.397  11.779 -1.3353  3.1884  0.3919
  159DOPC  H16Y19235   7.426   2.258  11.653  1.1771  0.8593 -1.7440
  159DOPC  C31719236   7.548   2.421  11.624  0.0711 -0.3121  1.1699
  159DOPC  H17X19237   7.628   2.369  11.682 -1.0839 -0.7970  2.3647
  159DOPC  H17Y19238   7.555   2.394  11.516  0.1176 -1.2909  1.4035
  159DOPC  C31819239   7.550   2.568  11.630 -0.1025  0.1728  0.4889
  159DOPC  H18X19240   7.527   2.582  11.738 -1.5803 -0.4245  0.2748
  159DOPC  H18Y19241   7.652   2.600  11.600  1.2151 -3.5586  0.4619
  159DOPC  H18Z19242   7.474   2.624  11.571 -0.3480 -1.6005 -0.9789
  160DOPC     N19243   3.802   0.707  13.217  0.5412  0.1094 -0.4762
  160DOPC   C1219244   3.722   0.824  13.284 -0.5651 -0.1171  0.1593
  160DOPC  H12A19245   3.722   0.907  13.215 -0.5544  0.6089  1.0192
  160DOPC  H12B19246   3.788   0.859  13.363  1.0674 -2.2795 -0.1527
  160DOPC   C1319247   3.719   0.638  13.113  0.8235  0.7231 -0.0259
  160DOPC  H13A19248   3.772   0.553  13.073 -0.8145 -0.5768  0.4629
  160DOPC  H13B19249   3.625   0.599  13.148 -0.2699  0.8770 -2.5766
  160DOPC  H13C19250   3.683   0.702  13.034  0.3781  2.3427  1.4268
  160DOPC   C1419251   3.826   0.612  13.323 -0.1509  0.1035 -0.7725
  160DOPC  H14A19252   3.893   0.651  13.398 -0.3904 -0.2216 -0.3790
  160DOPC  H14B19253   3.741   0.574  13.378  0.3417  2.5593  1.8946
  160DOPC  H14C19254   3.876   0.526  13.282  0.1006  0.4457 -1.1893
  160DOPC   C1519255   3.936   0.754  13.163 -0.7899  0.4047 -0.1322
  160DOPC  H15A19256   3.926   0.828  13.085  1.2185  0.6636 -0.1997
  160DOPC  H15B19257   3.978   0.671  13.107 -0.9412  0.0365  0.2932
  160DOPC  H15C19258   4.004   0.796  13.235 -1.3294  0.4613  0.3556
  160DOPC   C1119259   3.576   0.804  13.325  0.0047 -0.2896 -0.7612
  160DOPC  H11A19260   3.549   0.904  13.364 -0.1401  0.3269 -2.3697
  160DOPC  H11B19261   3.511   0.779  13.239 -1.7127 -0.5915  0.5590
  160DOPC     P19262   3.420   0.673  13.490  0.0168 -0.0841 -0.2889
  160DOPC   O1319263   3.382   0.791  13.575  0.4706 -0.1355 -0.5576
  160DOPC   O1419264   3.408   0.541  13.554 -0.2642 -0.1315  0.3346
  160DOPC   O1219265   3.562   0.700  13.425 -0.2425 -0.0501 -0.2069
  160DOPC   O1119266   3.319   0.677  13.373  0.0112  0.1254  0.0523
  160DOPC    C119267   3.291   0.573  13.276 -0.0995 -0.0546 -0.6519
  160DOPC    HA19268   3.186   0.546  13.301 -0.2415  1.4981  0.6247
  160DOPC    HB19269   3.358   0.485  13.290 -1.0972 -0.9801 -1.6083
  160DOPC    C219270   3.325   0.617  13.129  0.3785  0.4503 -0.2534
  160DOPC    HS19271   3.435   0.613  13.116  0.2706  2.1815 -2.1874
  160DOPC   O2119272   3.275   0.751  13.104  0.4502  0.3990  0.7470
  160DOPC   C2119273   3.351   0.812  13.021 -0.4679  0.3324 -0.0890
  160DOPC   O2219274   3.457   0.773  12.967  0.3700 -0.0821 -0.0048
  160DOPC   C2219275   3.307   0.958  13.004  0.1886  0.3227 -0.6629
  160DOPC   H2R19276   3.361   1.019  13.079 -2.1530  1.1026  0.4876
  160DOPC   H2S19277   3.201   0.969  13.035  1.0451  1.3777  2.1697
  160DOPC    C319278   3.258   0.505  13.033  0.2767 -0.9069  0.1692
  160DOPC    HX19279   3.150   0.509  13.059  0.1976 -1.1256 -0.1197
  160DOPC    HY19280   3.293   0.403  13.060 -1.2460 -0.9933  1.9938
  160DOPC   O3119281   3.275   0.548  12.898  0.4244 -0.5750  0.5334
  160DOPC   C3119282   3.391   0.530  12.848 -0.2807  0.3192  0.2343
  160DOPC   O3219283   3.482   0.463  12.896  0.3413 -0.3330 -0.0719
  160DOPC   C3219284   3.391   0.593  12.710 -0.3061  0.3803 -0.2692
  160DOPC   H2X19285   3.393   0.703  12.724  0.4807  0.3000  0.3126
  160DOPC   H2Y19286   3.487   0.556  12.669 -0.4815 -1.5282  0.9316
  160DOPC   C2319287   3.328   1.012  12.865  0.4522 -0.0128  0.0760
  160DOPC   H3R19288   3.433   0.996  12.831  0.3759 -1.1788  0.3313
  160DOPC   H3S19289   3.311   1.122  12.864 -3.4341 -0.4762 -1.6886
  160DOPC   C2419290   3.232   0.965  12.756 -0.4636  0.9264  0.1115
  160DOPC   H4R19291   3.134   1.000  12.793 -1.1184 -0.9047  0.2036
  160DOPC   H4S19292   3.250   0.855  12.749 -0.4262  0.7170  2.5881
  160DOPC   C2519293   3.261   1.032  12.620 -0.2194  0.1511 -0.5305
  160DOPC   H5R19294   3.355   0.986  12.582 -0.2122  0.7629 -1.2733
  160DOPC   H5S19295   3.275   1.142  12.634  2.6669 -0.0610 -1.1841
  160DOPC   C2619296   3.149   0.993  12.524 -0.0148 -1.4302  0.8647
  160DOPC   H6R19297   3.049   1.025  12.561  0.7149  1.0824  0.8840
  160DOPC   H6S19298   3.160   0.886  12.498 -1.0457 -1.5570  0.9269
  160DOPC   C2719299   3.153   1.089  12.402 -0.3664 -0.8929  0.2749
  160DOPC   H7R19300   3.142   1.194  12.439 -0.3519 -1.7195  2.7753
  160DOPC   H7S19301   3.073   1.061  12.330 -0.0284 -0.7253 -0.1697
  160DOPC   C2819302   3.282   1.091  12.321  1.1953  0.1521 -0.7981
  160DOPC   H8R19303   3.302   0.988  12.284 -0.5296 -0.2968 -0.5399
  160DOPC   H8S19304   3.370   1.117  12.383  1.2924 -0.8147 -0.5132
  160DOPC   C2919305   3.258   1.189  12.207 -0.2545 -0.5322  1.1718
  160DOPC   H9R19306   3.271   1.294  12.237 -2.3613  0.6998 -1.7999
  160DOPC  C21019307   3.242   1.174  12.073 -0.0377 -0.4843  0.4933
  160DOPC  H10R19308   3.243   1.264  12.010 -3.2416 -0.2192  0.6717
  160DOPC  C21119309   3.214   1.041  12.012 -0.6074  0.5295  0.1409
  160DOPC  H11R19310   3.125   0.999  12.062 -2.1343  1.9549 -1.2690
  160DOPC  H11S19311   3.301   0.972  12.014  1.6444  2.9488 -3.3284
  160DOPC  C21219312   3.183   1.053  11.858  0.4938  0.3751 -0.8590
  160DOPC  H12R19313   3.179   0.946  11.830  0.8372 -0.5023  2.1145
  160DOPC  H12S19314   3.268   1.102  11.806  0.7465  0.7933 -0.0718
  160DOPC  C21319315   3.048   1.121  11.831 -0.0798  0.4235 -0.5321
  160DOPC  H13R19316   3.029   1.216  11.886 -0.0460  1.9222 -2.9544
  160DOPC  H13S19317   2.963   1.051  11.847  1.8324 -2.5465 -2.4244
  160DOPC  C21419318   3.047   1.158  11.687  0.6318 -0.9873 -0.0098
  160DOPC  H14R19319   3.131   1.229  11.673 -0.5978  0.5000 -0.0468
  160DOPC  H14S19320   2.960   1.224  11.665 -0.2410 -1.3363  2.1030
  160DOPC  C21519321   3.050   1.041  11.589  0.2933  0.1086  0.3962
  160DOPC  H15R19322   2.973   0.968  11.621  0.4208  0.6208  1.9632
  160DOPC  H15S19323   3.152   0.997  11.591  0.1448 -0.5185 -2.4626
  160DOPC  C21619324   3.022   1.082  11.446 -0.0179 -0.4718 -0.2324
  160DOPC  H16R19325   3.105   1.149  11.413 -0.2228  0.9297  1.9207
  160DOPC  H16S19326   2.935   1.149  11.433 -0.6379 -0.8857  1.5371
  160DOPC  C21719327   3.006   0.958  11.356  0.7152 -0.0289 -0.3461
  160DOPC  H17R19328   2.907   0.912  11.380  1.7666 -2.8464 -0.9965
  160DOPC  H17S19329   3.089   0.890  11.383 -0.6942 -1.1480  1.3648
  160DOPC  C21819330   3.020   0.992  11.211 -0.7139  0.0662  0.1570
  160DOPC  H18R19331   2.981   0.909  11.149  1.4137 -1.9779  1.4105
  160DOPC  H18S19332   3.122   1.030  11.187 -1.2897  0.2465 -2.2004
  160DOPC  H18T19333   2.955   1.080  11.189 -0.6874  0.4689  1.5839
  160DOPC   C3319334   3.266   0.554  12.628  0.6807  0.1977  0.5718
  160DOPC   H3X19335   3.179   0.618  12.653 -0.3979 -1.5038  1.3268
  160DOPC   H3Y19336   3.237   0.448  12.646 -2.3818  0.5391 -1.6906
  160DOPC   C3419337   3.301   0.557  12.474  0.5841 -0.7112 -0.3100
  160DOPC   H4X19338   3.389   0.490  12.461  2.2212  1.2509  0.1152
  160DOPC   H4Y19339   3.333   0.660  12.448 -0.0059 -0.6678 -0.8890
  160DOPC   C3519340   3.177   0.519  12.395  0.0782 -0.2908  0.1515
  160DOPC   H5X19341   3.097   0.591  12.421 -0.8917 -1.8799  1.7898
  160DOPC   H5Y19342   3.144   0.423  12.440 -1.0858 -0.8354 -1.7646
  160DOPC   C3619343   3.194   0.518  12.241  0.2672  0.1025 -0.5129
  160DOPC   H6X19344   3.267   0.437  12.219 -0.4600 -0.5500 -0.5580
  160DOPC   H6Y19345   3.099   0.487  12.192  0.2294  1.4398 -1.3264
  160DOPC   C3719346   3.247   0.644  12.177  1.0537 -0.2125  0.3417
  160DOPC   H7X19347   3.195   0.733  12.219  1.7382  0.4125 -0.1142
  160DOPC   H7Y19348   3.352   0.652  12.213  0.7272  0.3904  1.2142
  160DOPC   C3819349   3.244   0.644  12.028  0.4777  0.4803 -0.4192
  160DOPC   H8X19350   3.296   0.549  12.002  2.1545  0.3851  2.8054
  160DOPC   H8Y19351   3.288   0.734  11.979 -0.4765  0.7068 -0.8903
  160DOPC   C3919352   3.106   0.628  11.974  0.5374  0.0390 -0.1490
  160DOPC   H9X19353   3.021   0.620  12.044 -0.9755  1.6567 -1.6976
  160DOPC  C31019354   3.067   0.631  11.838 -0.7594 -0.0668  0.7897
  160DOPC  H10X19355   2.963   0.641  11.805 -0.2960  1.1112 -0.4103
  160DOPC  C31119356   3.173   0.612  11.735  0.5674 -0.2338  0.2973
  160DOPC  H11X19357   3.244   0.539  11.780 -1.2054 -0.5598  2.8199
  160DOPC  H11Y19358   3.223   0.707  11.709 -0.1025  0.5146  1.6248
  160DOPC  C31219359   3.124   0.544  11.607  0.6337 -0.1868  0.1266
  160DOPC  H12X19360   3.197   0.549  11.524 -2.9793  1.7175 -3.2755
  160DOPC  H12Y19361   3.036   0.596  11.564  0.6827 -0.2893 -0.0979
  160DOPC  C31319362   3.080   0.396  11.618  0.1834  0.4008  0.5113
  160DOPC  H13X19363   3.024   0.382  11.713  0.0860  0.8210  0.5178
  160DOPC  H13Y19364   3.017   0.360  11.534  0.9587  1.0594 -0.3605
  160DOPC  C31419365   3.198   0.297  11.632 -0.0351  0.0939  0.7676
  160DOPC  H14X19366   3.278   0.302  11.555  1.4171  1.7292  2.2840
  160DOPC  H14Y19367   3.242   0.301  11.734 -0.2033 -0.0738  0.8485
  160DOPC  C31519368   3.157   0.152  11.627 -0.5288  0.1564 -0.3453
  160DOPC  H15X19369   3.081   0.138  11.547  0.1021  0.2306 -0.9704
  160DOPC  H15Y19370   3.118   0.119  11.726  0.6922  1.4064  0.5994
  160DOPC  C31619371   3.277   0.060  11.579 -0.3146  0.2174  0.3421
  160DOPC  H16X19372   3.315   0.079  11.476  3.4823 -2.5015  1.0247
  160DOPC  H16Y19373   3.367   0.065  11.643 -0.1006 -3.0003  0.4606
  160DOPC  C31719374   3.229  -0.087  11.568  0.1022  0.3514  0.1760
  160DOPC  H17X19375   3.175  -0.111  11.662  1.4766  0.6068  1.0540
  160DOPC  H17Y19376   3.155  -0.079  11.485  1.1424  3.2637 -0.6072
  160DOPC  C31819377   3.336  -0.189  11.537  0.1141  0.0774  0.2300
  160DOPC  H18X19378   3.285  -0.285  11.517 -0.3124  0.2163  0.6377
  160DOPC  H18Y19379   3.393  -0.159  11.446  0.5227 -1.9605 -0.2331
  160DOPC  H18Z19380   3.414  -0.196  11.616 -0.4487 -0.9738  0.7052
  161DOPC     N19381   3.758   0.715  13.770 -0.8457  0.1389 -0.4613
  161DOPC   C1219382   3.844   0.841  13.743  0.0062  0.7320  0.7853
  161DOPC  H12A19383   3.946   0.838  13.779 -0.0833  5.4141  2.0974
  161DOPC  H12B19384   3.801   0.925  13.796 -0.5826  0.1389  1.2585
  161DOPC   C1319385   3.779   0.605  13.666  0.6186  0.3072  1.0136
  161DOPC  H13A19386   3.738   0.510  13.697  1.0242  0.1980  1.2246
  161DOPC  H13B19387   3.721   0.625  13.577  0.3858 -0.3833  1.0007
  161DOPC  H13C19388   3.884   0.589  13.644  0.4576  0.3861  0.1354
  161DOPC   C1419389   3.615   0.756  13.777  0.4916 -0.2459 -0.3981
  161DOPC  H14A19390   3.543   0.677  13.791 -0.7179  0.6875 -1.2501
  161DOPC  H14B19391   3.600   0.819  13.864  2.0894  0.2161 -0.4319
  161DOPC  H14C19392   3.585   0.808  13.688  0.3860 -0.4904 -0.5061
  161DOPC   C1519393   3.789   0.663  13.908 -0.3618  0.3978 -0.8443
  161DOPC  H15A19394   3.708   0.600  13.941  0.7295 -0.2462  0.7621
  161DOPC  H15B19395   3.783   0.741  13.982 -1.5957  1.0750 -1.6250
  161DOPC  H15C19396   3.887   0.619  13.915  1.7063  4.6224  0.2255
  161DOPC   C1119397   3.848   0.879  13.597  0.5322 -0.2947  0.3765
  161DOPC  H11A19398   3.898   0.801  13.535  0.7254  1.3080 -1.5552
  161DOPC  H11B19399   3.742   0.886  13.564 -0.0497  0.6928  2.2790
  161DOPC     P19400   3.943   1.064  13.445  0.1568  0.0309  0.7271
  161DOPC   O1319401   4.030   1.180  13.470  0.4984  0.0320  0.5638
  161DOPC   O1419402   3.815   1.093  13.382 -0.1044  0.6922 -0.5294
  161DOPC   O1219403   3.911   1.006  13.588  0.5151  0.0064  0.8817
  161DOPC   O1119404   4.016   0.949  13.370 -0.6561 -0.6097  0.3856
  161DOPC    C119405   4.142   0.893  13.424 -0.3112  0.1499  0.0739
  161DOPC    HA19406   4.119   0.796  13.474  1.3711 -0.5500 -0.4634
  161DOPC    HB19407   4.188   0.952  13.506  2.2542  1.2289 -2.0031
  161DOPC    C219408   4.257   0.887  13.323 -0.3810  0.1598 -0.0207
  161DOPC    HS19409   4.339   0.958  13.343  2.9877 -3.4332  0.1311
  161DOPC   O2119410   4.212   0.909  13.185  0.5875  0.1870 -0.1085
  161DOPC   C2119411   4.199   1.041  13.150 -0.5240 -0.0042  0.9600
  161DOPC   O2219412   4.232   1.136  13.213 -0.1221 -0.6001 -0.3819
  161DOPC   C2219413   4.133   1.053  13.011 -0.1142  0.6622 -0.2367
  161DOPC   H2R19414   4.042   1.112  13.037  0.6243  1.9566 -0.5011
  161DOPC   H2S19415   4.108   0.952  12.974  2.9025 -0.0697 -0.5603
  161DOPC    C319416   4.322   0.751  13.328 -0.1147 -0.6202  0.0561
  161DOPC    HX19417   4.255   0.673  13.289 -0.3454 -0.8672  0.9244
  161DOPC    HY19418   4.345   0.729  13.434 -0.4610 -0.9355  0.0658
  161DOPC   O3119419   4.443   0.757  13.252  0.4623 -0.1734 -0.1203
  161DOPC   C3119420   4.441   0.704  13.131  0.7997 -0.5214 -0.2974
  161DOPC   O3219421   4.345   0.643  13.083 -0.2524  0.1678  0.0841
  161DOPC   C3219422   4.577   0.731  13.074 -0.4681  0.5442 -0.2764
  161DOPC   H2X19423   4.595   0.838  13.102 -2.1683  0.2943  2.1277
  161DOPC   H2Y19424   4.656   0.670  13.122 -0.9284 -0.2052 -0.4639
  161DOPC   C2319425   4.205   1.143  12.913  0.6727  0.1388  0.3704
  161DOPC   H3R19426   4.198   1.245  12.955 -2.8901  0.6839 -1.2092
  161DOPC   H3S19427   4.148   1.148  12.818  1.8816 -1.1137 -0.4682
  161DOPC   C2419428   4.340   1.083  12.881 -0.8180 -0.4498  0.1165
  161DOPC   H4R19429   4.337   0.974  12.862  0.2537 -0.7824  1.7216
  161DOPC   H4S19430   4.397   1.102  12.974 -2.6111  2.9111  0.6878
  161DOPC   C2519431   4.416   1.143  12.759  0.9492  0.7812  0.1829
  161DOPC   H5R19432   4.521   1.108  12.765  0.3856 -1.0100 -0.0015
  161DOPC   H5S19433   4.410   1.254  12.771  1.4779  0.7773  0.5104
  161DOPC   C2619434   4.351   1.104  12.631  0.4400  0.1889 -0.4446
  161DOPC   H6R19435   4.249   1.062  12.645 -0.0860  0.9375 -1.8452
  161DOPC   H6S19436   4.417   1.025  12.588 -0.7419 -0.8234 -0.4242
  161DOPC   C2719437   4.351   1.221  12.524  0.3119 -0.4803 -0.2734
  161DOPC   H7R19438   4.452   1.253  12.490  1.4966 -0.9687  2.4695
  161DOPC   H7S19439   4.291   1.309  12.556  1.7474  0.6732 -0.6444
  161DOPC   C2819440   4.274   1.163  12.401  0.3266  0.3748  0.5064
  161DOPC   H8R19441   4.182   1.118  12.444  0.7282 -0.9193  0.0840
  161DOPC   H8S19442   4.349   1.096  12.353  0.5490  1.6443 -0.9821
  161DOPC   C2919443   4.219   1.265  12.313  0.2327  0.6644  0.0659
  161DOPC   H9R19444   4.181   1.352  12.369 -1.2173 -0.6495  1.1991
  161DOPC  C21019445   4.200   1.257  12.179 -0.1645 -0.2368 -0.4783
  161DOPC  H10R19446   4.148   1.337  12.126 -0.5896  0.1553  0.5155
  161DOPC  C21119447   4.247   1.137  12.092  0.1457  0.1393 -0.0838
  161DOPC  H11R19448   4.176   1.052  12.090  0.7124 -0.3414  0.0486
  161DOPC  H11S19449   4.345   1.093  12.118  1.6111  1.7291 -2.4987
  161DOPC  C21219450   4.301   1.171  11.946  1.0219  0.5006  0.1666
  161DOPC  H12R19451   4.219   1.196  11.876  0.4667  0.5357  0.8235
  161DOPC  H12S19452   4.350   1.076  11.914  1.4693  0.3614  1.2358
  161DOPC  C21319453   4.396   1.288  11.944  0.1088 -0.0042 -0.2176
  161DOPC  H13R19454   4.465   1.282  12.030 -0.6967  0.4719  0.4744
  161DOPC  H13S19455   4.332   1.378  11.957  0.5318  0.2080  0.4215
  161DOPC  C21419456   4.479   1.298  11.809  0.3548  0.2954  0.3036
  161DOPC  H14R19457   4.547   1.211  11.798  0.3054  0.4767 -1.9307
  161DOPC  H14S19458   4.547   1.382  11.832  0.9481 -0.7129  2.4770
  161DOPC  C21519459   4.394   1.318  11.685 -0.3892  1.0763  0.5401
  161DOPC  H15R19460   4.321   1.236  11.673 -0.3906  1.1408  0.1010
  161DOPC  H15S19461   4.457   1.307  11.594 -2.2675 -1.3121 -0.5580
  161DOPC  C21619462   4.329   1.457  11.669 -0.1345  0.3570  0.1631
  161DOPC  H16R19463   4.410   1.526  11.698 -0.1755  0.5741 -0.2367
  161DOPC  H16S19464   4.242   1.475  11.736 -0.9304  3.6232 -1.5391
  161DOPC  C21719465   4.288   1.473  11.523  1.1237  0.5135 -0.1890
  161DOPC  H17R19466   4.216   1.392  11.497  2.4047 -0.6151 -0.3460
  161DOPC  H17S19467   4.373   1.452  11.454 -1.3024  1.0906 -3.6579
  161DOPC  C21819468   4.230   1.606  11.480  0.1842  0.9409  0.1322
  161DOPC  H18R19469   4.155   1.637  11.556 -1.9152  0.1396 -1.5228
  161DOPC  H18S19470   4.173   1.603  11.385 -2.4034 -0.5319  1.5975
  161DOPC  H18T19471   4.307   1.686  11.487  0.6201  0.4419  1.2773
  161DOPC   C3319472   4.566   0.712  12.918 -0.5394 -0.4301 -0.1332
  161DOPC   H3X19473   4.511   0.792  12.864 -0.1025  1.2601  1.8146
  161DOPC   H3Y19474   4.540   0.609  12.885 -0.7892 -0.7302  0.9617
  161DOPC   C3419475   4.712   0.717  12.873 -0.0095 -0.1853  0.5037
  161DOPC   H4X19476   4.768   0.622  12.886 -0.2519 -0.3090  0.6322
  161DOPC   H4Y19477   4.754   0.803  12.929 -3.7852 -0.0079  3.4451
  161DOPC   C3519478   4.729   0.749  12.721 -0.1734  0.6125  0.2454
  161DOPC   H5X19479   4.657   0.680  12.672 -1.4304  1.6437  0.5585
  161DOPC   H5Y19480   4.833   0.725  12.692 -0.0634  1.1280  0.2130
  161DOPC   C3619481   4.712   0.895  12.673  0.8043  0.5308  0.5318
  161DOPC   H6X19482   4.603   0.898  12.651  0.9581  1.8194 -0.1504
  161DOPC   H6Y19483   4.723   0.973  12.750  0.2250  2.9697 -1.7146
  161DOPC   C3719484   4.791   0.935  12.556  0.3932  0.0444  0.0509
  161DOPC   H7X19485   4.779   1.042  12.530 -0.8265  0.1771  1.0231
  161DOPC   H7Y19486   4.897   0.936  12.590  0.2464 -0.2733  0.5302
  161DOPC   C3819487   4.778   0.836  12.439 -0.0960  0.4911  0.5760
  161DOPC   H8X19488   4.670   0.810  12.431  0.0973 -0.1110 -0.1866
  161DOPC   H8Y19489   4.835   0.748  12.475 -1.4946 -0.1917  1.2081
  161DOPC   C3919490   4.843   0.884  12.310 -0.7354 -0.3301 -0.8571
  161DOPC   H9X19491   4.953   0.877  12.305 -0.5345  0.5736  1.2342
  161DOPC  C31019492   4.783   0.954  12.214 -0.5154  0.7997 -0.1351
  161DOPC  H10X19493   4.839   0.988  12.126 -1.0324 -0.0488 -0.8075
  161DOPC  C31119494   4.635   0.985  12.197  0.4829 -0.6967  0.6965
  161DOPC  H11X19495   4.629   1.082  12.144 -3.0442 -0.8366  0.5995
  161DOPC  H11Y19496   4.586   0.999  12.295 -0.9748  0.1258 -0.1132
  161DOPC  C31219497   4.569   0.882  12.105 -0.0385  0.4265 -0.2435
  161DOPC  H12X19498   4.465   0.921  12.105  0.2969  1.3416 -0.3092
  161DOPC  H12Y19499   4.574   0.779  12.146 -0.6934 -1.0313 -3.5177
  161DOPC  C31319500   4.622   0.882  11.959 -0.2573  0.4161 -0.2413
  161DOPC  H13X19501   4.628   0.986  11.922  0.7091 -0.1616 -1.8064
  161DOPC  H13Y19502   4.730   0.856  11.959 -0.3361  0.0796 -0.1708
  161DOPC  C31419503   4.529   0.792  11.878  0.5694 -0.0716 -0.0143
  161DOPC  H14X19504   4.547   0.687  11.910  0.9358 -0.4283 -1.3209
  161DOPC  H14Y19505   4.427   0.830  11.895  0.8727  0.0105  1.8117
  161DOPC  C31519506   4.561   0.799  11.729 -0.5114 -0.6216 -0.1508
  161DOPC  H15X19507   4.670   0.783  11.709 -0.0991  0.5369  1.0363
  161DOPC  H15Y19508   4.535   0.900  11.691 -2.5468 -0.9333  0.3114
  161DOPC  C31619509   4.485   0.703  11.640  0.6753 -0.3587  0.0481
  161DOPC  H16X19510   4.511   0.600  11.673  1.7629  0.4768  2.0285
  161DOPC  H16Y19511   4.377   0.712  11.667  0.9064  2.2844  0.4057
  161DOPC  C31719512   4.504   0.726  11.495  0.1970 -0.0688 -0.7509
  161DOPC  H17X19513   4.480   0.832  11.469  3.2950  0.6955 -0.9075
  161DOPC  H17Y19514   4.612   0.718  11.469  0.7157 -0.5648  1.3746
  161DOPC  C31819515   4.438   0.630  11.403 -0.1238 -0.0938  0.1164
  161DOPC  H18X19516   4.328   0.630  11.415 -0.1080  0.6200  0.2758
  161DOPC  H18Y19517   4.451   0.649  11.294 -1.0433 -1.2600 -0.2334
  161DOPC  H18Z19518   4.467   0.523  11.413 -0.6733 -0.1140  1.7970
  162DOPC     N19519   2.806   6.492  14.070  0.8373  0.4283  0.6036
  162DOPC   C1219520   2.803   6.528  13.923 -0.3933 -0.0929  0.0537
  162DOPC  H12A19521   2.885   6.480  13.872 -2.1914  0.4264 -3.6735
  162DOPC  H12B19522   2.815   6.635  13.918  0.5162 -0.1668  0.5198
  162DOPC   C1319523   2.696   6.559  14.149  0.0685  0.1036 -0.1648
  162DOPC  H13A19524   2.702   6.528  14.252  0.4019  0.9508  0.0889
  162DOPC  H13B19525   2.716   6.666  14.145  1.0593  0.0342  1.8907
  162DOPC  H13C19526   2.595   6.542  14.116 -0.0128 -0.8039  0.5217
  162DOPC   C1419527   2.938   6.520  14.132 -0.6992 -0.5758 -0.4525
  162DOPC  H14A19528   2.942   6.627  14.149 -2.5338 -0.7302  1.3744
  162DOPC  H14B19529   2.942   6.475  14.230 -1.5367  1.3254  0.5138
  162DOPC  H14C19530   3.016   6.484  14.067 -0.5330  0.4774 -0.8629
  162DOPC   C1519531   2.784   6.344  14.089  0.5093  0.0216 -0.2134
  162DOPC  H15A19532   2.774   6.329  14.195  0.5227  1.2236 -0.0220
  162DOPC  H15B19533   2.865   6.288  14.044 -0.2541  0.2197 -1.8977
  162DOPC  H15C19534   2.696   6.324  14.030 -0.0056  1.7347 -0.0835
  162DOPC   C1119535   2.678   6.481  13.835 -0.1863 -0.0884 -0.4922
  162DOPC  H11A19536   2.585   6.532  13.871 -0.4392  1.1229 -2.6715
  162DOPC  H11B19537   2.695   6.520  13.732  1.1103  0.8502  0.0529
  162DOPC     P19538   2.541   6.258  13.805 -0.0829  0.1548  0.1652
  162DOPC   O1319539   2.433   6.311  13.897  0.0114 -0.0450  0.2783
  162DOPC   O1419540   2.583   6.115  13.803  0.5803  0.4514 -0.1080
  162DOPC   O1219541   2.671   6.341  13.832 -0.0984  0.5172  0.9440
  162DOPC   O1119542   2.497   6.290  13.653  0.2594  0.6836 -0.3438
  162DOPC    C119543   2.599   6.278  13.548 -0.3551 -0.1617  0.4042
  162DOPC    HA19544   2.631   6.173  13.530  0.3204  0.1587 -0.3287
  162DOPC    HB19545   2.690   6.336  13.577 -0.5994  0.4959 -0.1184
  162DOPC    C219546   2.552   6.343  13.409 -0.0917  0.1237 -0.3835
  162DOPC    HS19547   2.495   6.433  13.441 -2.4689 -0.8027 -1.7176
  162DOPC   O2119548   2.465   6.249  13.348 -0.7283  0.3454 -0.2536
  162DOPC   C2119549   2.364   6.308  13.280  0.6042  0.1765  0.4683
  162DOPC   O2219550   2.338   6.422  13.277 -0.3621 -0.2822 -0.2626
  162DOPC   C2219551   2.277   6.191  13.212 -0.5518  0.1444 -0.4154
  162DOPC   H2R19552   2.264   6.113  13.290  0.5335  0.6947  0.3399
  162DOPC   H2S19553   2.340   6.153  13.128 -0.4719 -0.0205 -0.2833
  162DOPC    C319554   2.667   6.380  13.312 -0.7644  0.0341  0.4687
  162DOPC    HX19555   2.715   6.284  13.283  0.5390  1.4268 -2.3969
  162DOPC    HY19556   2.745   6.434  13.371 -0.5496 -0.2190  0.4209
  162DOPC   O3119557   2.612   6.445  13.195 -0.0351 -0.6195 -0.1937
  162DOPC   C3119558   2.604   6.582  13.203 -0.1167  0.1010  0.1934
  162DOPC   O3219559   2.626   6.641  13.303 -0.4892 -0.2840  0.2242
  162DOPC   C3219560   2.592   6.635  13.057 -0.7113 -0.2419 -0.3682
  162DOPC   H2X19561   2.506   6.584  13.009  0.2674 -1.5578 -0.7649
  162DOPC   H2Y19562   2.576   6.745  13.065  2.0676  0.3638 -1.7951
  162DOPC   C2319563   2.144   6.237  13.147 -0.0609 -0.6506 -0.5753
  162DOPC   H3R19564   2.098   6.292  13.231  2.3616 -0.2605  0.5939
  162DOPC   H3S19565   2.086   6.145  13.128 -0.5057 -0.9897  2.0360
  162DOPC   C2419566   2.157   6.318  13.015 -0.3667  0.8389  0.5856
  162DOPC   H4R19567   2.261   6.357  13.009  0.4844 -1.0386  1.8941
  162DOPC   H4S19568   2.090   6.406  13.008 -1.3380  0.0497 -0.4462
  162DOPC   C2519569   2.128   6.236  12.887  0.0654 -0.0605  0.3504
  162DOPC   H5R19570   2.025   6.195  12.893 -0.2455  0.0964 -2.3866
  162DOPC   H5S19571   2.196   6.149  12.884  0.0366 -0.0745 -1.5345
  162DOPC   C2619572   2.149   6.320  12.763 -0.0842 -0.4367 -0.1245
  162DOPC   H6R19573   2.259   6.333  12.748 -0.4113  0.7886 -1.6386
  162DOPC   H6S19574   2.092   6.415  12.758 -0.9924 -1.0103 -0.9641
  162DOPC   C2719575   2.113   6.244  12.631 -0.1246 -0.4113 -0.0436
  162DOPC   H7R19576   2.002   6.233  12.625 -0.3530 -1.4102  3.7627
  162DOPC   H7S19577   2.155   6.142  12.631 -0.9363 -0.7658  0.9563
  162DOPC   C2819578   2.161   6.315  12.502 -0.1245  0.4388 -0.6558
  162DOPC   H8R19579   2.137   6.242  12.423  0.7881 -1.6087  0.8522
  162DOPC   H8S19580   2.272   6.326  12.500 -0.3701  4.1227 -2.0721
  162DOPC   C2919581   2.094   6.447  12.490  0.2926  0.4762  0.2577
  162DOPC   H9R19582   2.108   6.517  12.573 -1.2619  1.6829 -0.4526
  162DOPC  C21019583   2.010   6.486  12.388 -0.4489  0.2840 -0.4995
  162DOPC  H10R19584   1.976   6.590  12.384  0.0932  0.4463 -1.2486
  162DOPC  C21119585   1.981   6.408  12.260 -0.5199 -0.0208  0.7228
  162DOPC  H11R19586   1.881   6.438  12.221 -0.6401  0.5043  1.4206
  162DOPC  H11S19587   1.989   6.298  12.271 -0.4657 -0.2536 -1.2709
  162DOPC  C21219588   2.079   6.440  12.151 -0.2209  0.2851 -0.7507
  162DOPC  H12R19589   2.182   6.409  12.180 -0.8322 -0.5324  0.6410
  162DOPC  H12S19590   2.075   6.547  12.122 -0.6103  0.4128 -0.2344
  162DOPC  C21319591   2.040   6.353  12.034 -0.0112 -0.5022 -0.3215
  162DOPC  H13R19592   1.946   6.397  11.995 -0.6584 -1.0311  0.5727
  162DOPC  H13S19593   2.018   6.246  12.056 -1.8942  0.0874  0.9526
  162DOPC  C21419594   2.148   6.357  11.926 -0.0950 -0.3303  0.4013
  162DOPC  H14R19595   2.250   6.339  11.965  0.8482  0.3050 -1.6457
  162DOPC  H14S19596   2.151   6.458  11.880  0.4671 -0.7781 -0.5793
  162DOPC  C21519597   2.113   6.261  11.813  0.4651  0.3270 -0.3244
  162DOPC  H15R19598   2.004   6.255  11.797  0.3391 -0.1331  0.6190
  162DOPC  H15S19599   2.143   6.157  11.840  3.9410  0.5430 -2.6567
  162DOPC  C21619600   2.185   6.302  11.684  0.5350  0.3949 -0.0381
  162DOPC  H16R19601   2.292   6.327  11.700  0.3717  1.2681 -0.2908
  162DOPC  H16S19602   2.127   6.390  11.648  1.0185  0.2314 -1.2716
  162DOPC  C21719603   2.182   6.190  11.577 -0.3417  0.1909 -0.6532
  162DOPC  H17R19604   2.077   6.156  11.576  0.0336 -1.0007 -0.9033
  162DOPC  H17S19605   2.249   6.103  11.594  0.7304  1.1723  0.3469
  162DOPC  C21819606   2.218   6.226  11.435  0.0140 -0.7702 -0.1423
  162DOPC  H18R19607   2.321   6.267  11.439  0.3786 -1.7934  1.4330
  162DOPC  H18S19608   2.152   6.299  11.383  1.7622  1.9225  1.2089
  162DOPC  H18T19609   2.225   6.133  11.375 -0.3785  0.0321 -1.4740
  162DOPC   C3319610   2.720   6.624  12.972  0.1364  0.5674 -0.0280
  162DOPC   H3X19611   2.752   6.517  12.975 -1.2284  0.0845 -1.3736
  162DOPC   H3Y19612   2.791   6.689  13.027 -0.0380  1.5839 -0.9851
  162DOPC   C3419613   2.709   6.682  12.832  0.5948 -0.6162  0.1848
  162DOPC   H4X19614   2.811   6.679  12.787  0.3806 -2.7685 -0.2466
  162DOPC   H4Y19615   2.679   6.789  12.837  1.9842 -0.0127 -2.2533
  162DOPC   C3519616   2.613   6.606  12.738  0.3544  0.2068 -0.1138
  162DOPC   H5X19617   2.507   6.596  12.768  0.5359  0.3757  0.5982
  162DOPC   H5Y19618   2.659   6.506  12.717 -0.4074 -0.2430  0.3059
  162DOPC   C3619619   2.613   6.679  12.602 -0.2278 -0.1499  0.9168
  162DOPC   H6X19620   2.576   6.781  12.624 -0.8599  0.8099 -3.6566
  162DOPC   H6Y19621   2.714   6.686  12.558 -0.2825  0.5269  0.8897
  162DOPC   C3719622   2.521   6.605  12.502 -0.1543 -0.6482  0.2323
  162DOPC   H7X19623   2.528   6.496  12.517  0.2857 -0.3399  2.5850
  162DOPC   H7Y19624   2.416   6.627  12.528  0.0790  2.5147 -0.9485
  162DOPC   C3819625   2.527   6.649  12.359 -0.7848  0.4788 -0.1194
  162DOPC   H8X19626   2.631   6.639  12.321 -0.6679 -1.5278  0.5941
  162DOPC   H8Y19627   2.516   6.759  12.360  0.7888  0.6512  0.5330
  162DOPC   C3919628   2.426   6.595  12.258  0.9950  0.5957  0.2863
  162DOPC   H9X19629   2.354   6.527  12.305 -0.4654 -0.0119 -2.6222
  162DOPC  C31019630   2.426   6.606  12.119  0.5313  0.0509  0.2111
  162DOPC  H10X19631   2.352   6.546  12.064  0.8173  1.1833 -1.4928
  162DOPC  C31119632   2.537   6.679  12.041  0.3828 -0.4906 -0.2259
  162DOPC  H11X19633   2.628   6.615  12.053  1.3310  0.6532 -1.1060
  162DOPC  H11Y19634   2.581   6.768  12.090  0.6627 -1.3714  1.2214
  162DOPC  C31219635   2.527   6.703  11.890  0.7305  0.0251 -0.3218
  162DOPC  H12X19636   2.631   6.723  11.856  0.5066  1.3255 -0.3238
  162DOPC  H12Y19637   2.464   6.793  11.871  1.0735 -0.2907 -3.5145
  162DOPC  C31319638   2.474   6.584  11.815  0.0494  0.4702  0.0429
  162DOPC  H13X19639   2.521   6.487  11.840 -0.5688 -0.0538 -0.7586
  162DOPC  H13Y19640   2.365   6.566  11.831  0.2852 -0.8025  0.3169
  162DOPC  C31419641   2.491   6.615  11.664  0.0253 -0.3705  0.2395
  162DOPC  H14X19642   2.601   6.620  11.650  0.4464 -0.8708  2.9058
  162DOPC  H14Y19643   2.442   6.536  11.603  0.7808 -1.7848  1.4148
  162DOPC  C31519644   2.428   6.753  11.606 -0.3369  0.0976 -0.0945
  162DOPC  H15X19645   2.497   6.833  11.637 -0.5863 -0.2410  1.4509
  162DOPC  H15Y19646   2.333   6.771  11.662 -0.5166  0.1554 -0.4149
  162DOPC  C31619647   2.413   6.755  11.452  0.0283 -0.6937  0.2177
  162DOPC  H16X19648   2.512   6.729  11.407 -0.9231 -2.2457 -1.1084
  162DOPC  H16Y19649   2.331   6.685  11.426 -2.1709  1.6968  0.3908
  162DOPC  C31719650   2.377   6.894  11.402  0.0457  0.0618  0.1156
  162DOPC  H17X19651   2.267   6.908  11.411  0.1814  1.8128 -0.6424
  162DOPC  H17Y19652   2.432   6.970  11.460  0.1749 -1.3267  1.9061
  162DOPC  C31819653   2.412   6.911  11.255 -0.0123  0.6600 -0.1229
  162DOPC  H18X19654   2.384   7.012  11.217  1.2676  1.4987  1.0499
  162DOPC  H18Y19655   2.522   6.920  11.239 -0.1186  0.1125 -1.2832
  162DOPC  H18Z19656   2.370   6.837  11.184  3.2855 -0.3800 -1.1515
  163DOPC     N19657   2.611   2.982  14.128  0.0455 -0.1466 -0.1897
  163DOPC   C1219658   2.547   2.925  14.001 -0.3774  0.1121  0.0095
  163DOPC  H12A19659   2.442   2.940  14.017 -0.6028  1.4615 -2.3135
  163DOPC  H12B19660   2.570   2.819  13.996  0.9886 -0.0480  4.7453
  163DOPC   C1319661   2.761   2.971  14.126  0.1587  0.4582 -0.4917
  163DOPC  H13A19662   2.792   2.874  14.091 -0.3681 -0.4505  1.4022
  163DOPC  H13B19663   2.801   3.050  14.065 -0.2329  2.1093  1.2799
  163DOPC  H13C19664   2.807   2.988  14.222 -0.2011 -1.9506  0.1669
  163DOPC   C1419665   2.554   2.920  14.253  0.1621  0.2020 -0.5995
  163DOPC  H14A19666   2.572   2.813  14.260 -1.3103 -0.0875 -0.8574
  163DOPC  H14B19667   2.594   2.968  14.341 -0.1804 -2.0863  0.9006
  163DOPC  H14C19668   2.446   2.921  14.251 -0.0168 -1.1098  2.4765
  163DOPC   C1519669   2.584   3.130  14.137 -0.2572 -0.2968  0.2516
  163DOPC  H15A19670   2.479   3.154  14.133 -0.2267 -0.1665  0.2052
  163DOPC  H15B19671   2.613   3.178  14.045  1.1902 -1.7895 -0.1137
  163DOPC  H15C19672   2.628   3.187  14.218 -2.0978  0.4143  0.8084
  163DOPC   C1119673   2.579   2.982  13.860 -0.0905 -0.2427 -0.3375
  163DOPC  H11A19674   2.689   2.995  13.853 -0.0771 -0.4864 -0.5891
  163DOPC  H11B19675   2.565   2.904  13.782  4.1233  1.8648 -3.6101
  163DOPC     P19676   2.354   3.107  13.792  0.1988  0.2851 -0.1281
  163DOPC   O1319677   2.324   3.224  13.707  0.1135 -0.4208  0.5364
  163DOPC   O1419678   2.264   3.093  13.909  0.7389  0.3051 -0.3785
  163DOPC   O1219679   2.506   3.095  13.831  0.3093 -0.5516 -0.3727
  163DOPC   O1119680   2.339   2.969  13.710 -0.0808 -0.0710  0.3625
  163DOPC    C119681   2.349   2.962  13.567  0.6475  0.4436 -0.1962
  163DOPC    HA19682   2.369   2.862  13.523  1.0343  0.2250  0.4631
  163DOPC    HB19683   2.447   3.009  13.542  0.6767  1.4817  1.7187
  163DOPC    C219684   2.237   3.036  13.484  0.5030 -0.2469 -0.0978
  163DOPC    HS19685   2.223   3.137  13.526 -0.1160 -0.7740  1.0078
  163DOPC   O2119686   2.123   2.951  13.508 -0.0329  0.4290  0.2668
  163DOPC   C2119687   2.002   3.018  13.516  0.5013 -0.3487 -0.2126
  163DOPC   O2219688   1.992   3.138  13.498  0.0191  0.4541 -0.6997
  163DOPC   C2219689   1.889   2.923  13.524 -0.7258  0.0402 -0.0024
  163DOPC   H2R19690   1.792   2.976  13.511 -0.5578  0.2544 -0.3809
  163DOPC   H2S19691   1.892   2.876  13.625 -0.8444 -2.3590 -1.0614
  163DOPC    C319692   2.259   3.044  13.327  0.6681  0.4855 -0.5449
  163DOPC    HX19693   2.272   2.940  13.291  4.1610  0.8568 -0.6660
  163DOPC    HY19694   2.363   3.080  13.313  1.3905 -0.9767  0.7489
  163DOPC   O3119695   2.152   3.108  13.252 -0.1359 -0.3527  0.4988
  163DOPC   C3119696   2.134   3.237  13.264 -0.4056 -0.1434  0.1037
  163DOPC   O3219697   2.204   3.320  13.316  0.2338 -0.2461  0.1061
  163DOPC   C3219698   2.003   3.271  13.192 -0.4231 -0.4004 -0.2345
  163DOPC   H2X19699   1.993   3.195  13.112 -1.1577  0.0069 -0.5334
  163DOPC   H2Y19700   1.927   3.266  13.272  0.9929 -0.0733  1.1904
  163DOPC   C2319701   1.897   2.794  13.440  0.9343 -0.2005  0.0830
  163DOPC   H3R19702   1.799   2.743  13.453 -1.7405  3.7317 -2.2049
  163DOPC   H3S19703   1.983   2.738  13.481  1.2256  0.3533  0.2465
  163DOPC   C2419704   1.911   2.813  13.289  0.5186 -0.4401  0.0537
  163DOPC   H4R19705   2.003   2.870  13.261  1.4863 -0.3300  3.1560
  163DOPC   H4S19706   1.824   2.873  13.256 -0.0020 -1.0147  0.3607
  163DOPC   C2519707   1.921   2.688  13.207 -0.4836  0.6300  0.8631
  163DOPC   H5R19708   1.858   2.607  13.248 -0.8640 -0.1289 -1.1036
  163DOPC   H5S19709   2.025   2.650  13.218 -0.3604  1.2173  1.8623
  163DOPC   C2619710   1.881   2.714  13.064 -0.4185 -0.3007  0.4016
  163DOPC   H6R19711   1.783   2.766  13.063 -0.7069 -0.7833  1.7638
  163DOPC   H6S19712   1.870   2.629  12.993  1.6863  1.1865 -1.8960
  163DOPC   C2719713   1.987   2.806  13.004  0.0015  0.0301 -0.0736
  163DOPC   H7R19714   2.090   2.781  13.036 -0.4759 -2.7523 -0.4388
  163DOPC   H7S19715   1.970   2.909  13.041 -0.3234 -0.0760  0.0849
  163DOPC   C2819716   1.987   2.816  12.847  0.5722 -0.3561  0.2920
  163DOPC   H8R19717   2.047   2.903  12.813 -2.1595  1.3849 -0.3665
  163DOPC   H8S19718   1.885   2.852  12.824  1.1748  0.0919 -2.0423
  163DOPC   C2919719   2.022   2.688  12.775 -0.0829  0.1029  0.2419
  163DOPC   H9R19720   2.080   2.618  12.837 -0.9293 -2.1434 -1.3975
  163DOPC  C21019721   1.995   2.664  12.644  0.6956  0.4639 -0.1631
  163DOPC  H10R19722   2.017   2.563  12.606  3.2247  1.0356 -0.3916
  163DOPC  C21119723   1.933   2.762  12.542 -0.0415  0.6997 -0.2095
  163DOPC  H11R19724   1.910   2.860  12.588 -2.7762 -0.9833  2.3898
  163DOPC  H11S19725   1.838   2.719  12.503  0.4935 -0.3937 -0.3568
  163DOPC  C21219726   2.044   2.787  12.441  0.2100  0.1362 -0.1600
  163DOPC  H12R19727   2.070   2.690  12.394 -0.3737 -0.9681  1.7354
  163DOPC  H12S19728   2.123   2.831  12.506  0.2272 -0.2979  0.1157
  163DOPC  C21319729   2.005   2.879  12.322  0.2648  0.9416 -0.3942
  163DOPC  H13R19730   2.099   2.916  12.275 -1.0583  2.9833 -1.5395
  163DOPC  H13S19731   1.953   2.970  12.359  1.1174  0.7961  1.2630
  163DOPC  C21419732   1.911   2.812  12.213  0.4832  0.0203  0.0710
  163DOPC  H14R19733   1.805   2.826  12.242  1.1037  3.2045  1.2084
  163DOPC  H14S19734   1.943   2.706  12.204 -0.2044 -0.0907 -1.2544
  163DOPC  C21519735   1.936   2.877  12.073  0.1282 -0.2036  0.2626
  163DOPC  H15R19736   2.046   2.865  12.058  0.1202 -2.5559  1.5733
  163DOPC  H15S19737   1.908   2.984  12.079 -2.5898 -0.8843  0.9205
  163DOPC  C21619738   1.841   2.820  11.967  0.3518  0.0557  0.0440
  163DOPC  H16R19739   1.739   2.818  12.012 -0.0993  2.1825 -0.7617
  163DOPC  H16S19740   1.865   2.714  11.945 -0.1880  0.0712 -0.6558
  163DOPC  C21719741   1.828   2.904  11.837 -0.4505 -0.3079 -0.4157
  163DOPC  H17R19742   1.826   3.013  11.859 -0.8857  0.3053 -3.0894
  163DOPC  H17S19743   1.726   2.888  11.796 -0.4095  0.2785 -0.7556
  163DOPC  C21819744   1.933   2.863  11.739 -0.0177  0.2032 -0.3925
  163DOPC  H18R19745   2.025   2.830  11.792 -0.3464  2.1776  1.5657
  163DOPC  H18S19746   1.955   2.946  11.668 -1.4102  2.4895  1.6544
  163DOPC  H18T19747   1.885   2.784  11.677  0.6600 -0.7990  0.3389
  163DOPC   C3319748   1.993   3.410  13.129 -0.5407 -0.2881  0.6798
  163DOPC   H3X19749   2.041   3.487  13.194  0.6989  0.4721 -1.0428
  163DOPC   H3Y19750   1.886   3.436  13.120 -0.6935 -0.5552  1.6121
  163DOPC   C3419751   2.055   3.404  12.992 -0.1701  0.4923  0.6146
  163DOPC   H4X19752   2.137   3.330  12.985 -1.7987 -1.4293  0.9388
  163DOPC   H4Y19753   2.091   3.505  12.963  0.8747  0.4195  1.6124
  163DOPC   C3519754   1.951   3.355  12.889  0.1654 -0.1851 -0.6000
  163DOPC   H5X19755   1.860   3.418  12.899  0.1548 -0.2264 -0.4236
  163DOPC   H5Y19756   1.915   3.254  12.916 -0.9689  0.2099 -0.5853
  163DOPC   C3619757   2.014   3.352  12.748 -0.1641 -0.2201 -0.2656
  163DOPC   H6X19758   2.061   3.450  12.724  0.2980 -0.2670  0.3969
  163DOPC   H6Y19759   2.100   3.282  12.749  0.3269  0.3771 -0.4392
  163DOPC   C3719760   1.927   3.294  12.638 -0.4549  0.5670 -0.3776
  163DOPC   H7X19761   1.869   3.208  12.678  2.1193 -1.8898 -1.5120
  163DOPC   H7Y19762   1.856   3.374  12.610 -1.1734  0.8817  2.1545
  163DOPC   C3819763   1.997   3.249  12.505  0.1822  0.0810  0.0613
  163DOPC   H8X19764   1.921   3.190  12.448 -1.0466 -1.3580  2.9483
  163DOPC   H8Y19765   2.070   3.171  12.537 -1.2197 -0.8338  1.2247
  163DOPC   C3919766   2.072   3.358  12.431 -0.1723 -0.0920  0.8552
  163DOPC   H9X19767   2.102   3.448  12.487 -0.3066  0.1114  0.6052
  163DOPC  C31019768   2.092   3.355  12.299 -0.5708 -0.8426 -0.0633
  163DOPC  H10X19769   2.131   3.448  12.255  0.0900 -1.0972 -0.0322
  163DOPC  C31119770   2.043   3.253  12.194  0.7761  0.5728 -0.4634
  163DOPC  H11X19771   1.934   3.276  12.185  0.6890  0.8671  1.0695
  163DOPC  H11Y19772   2.035   3.149  12.233 -0.8471  0.0999 -1.9276
  163DOPC  C31219773   2.120   3.258  12.058  0.4847  0.4570 -0.4445
  163DOPC  H12X19774   2.088   3.168  12.003 -0.7263  0.0047  0.9307
  163DOPC  H12Y19775   2.229   3.253  12.076  0.7818 -3.0044 -2.3878
  163DOPC  C31319776   2.081   3.381  11.985 -0.0725 -0.5728  0.3632
  163DOPC  H13X19777   1.970   3.394  11.986 -0.1869 -1.1105 -1.4234
  163DOPC  H13Y19778   2.120   3.472  12.034 -1.5359  0.1620  0.2390
  163DOPC  C31419779   2.113   3.375  11.841 -0.2364  0.3031 -0.1954
  163DOPC  H14X19780   2.221   3.347  11.831 -0.2492 -0.7784  1.9816
  163DOPC  H14Y19781   2.067   3.284  11.796 -0.0321 -0.2478  0.6710
  163DOPC  C31519782   2.071   3.491  11.761 -0.3221 -0.6730  0.9530
  163DOPC  H15X19783   2.128   3.582  11.788 -0.8546 -0.0051 -0.0918
  163DOPC  H15Y19784   1.967   3.525  11.781  1.0019  4.1757  0.9873
  163DOPC  C31619785   2.078   3.471  11.610 -0.2058 -0.0385 -0.1839
  163DOPC  H16X19786   2.183   3.447  11.583  0.3916  1.2182  0.8884
  163DOPC  H16Y19787   2.015   3.383  11.586  0.9233 -0.9280  0.0161
  163DOPC  C31719788   2.030   3.596  11.529 -0.2960 -0.3101  0.0228
  163DOPC  H17X19789   1.929   3.616  11.571 -1.1858 -1.1143 -1.6151
  163DOPC  H17Y19790   2.110   3.672  11.532  0.4981 -1.0471 -1.4339
  163DOPC  C31819791   1.992   3.565  11.387  0.1852  1.0346  0.7045
  163DOPC  H18X19792   1.943   3.648  11.332  0.5831  0.4618 -0.5463
  163DOPC  H18Y19793   2.082   3.536  11.329 -1.1401 -2.5315  0.1752
  163DOPC  H18Z19794   1.910   3.490  11.388  1.5205 -0.4944  1.9300
  164DOPC     N19795   1.631   2.957  14.057 -0.2869 -0.0817  0.3382
  164DOPC   C1219796   1.691   2.929  13.919  0.2858  0.3470  0.3936
  164DOPC  H12A19797   1.791   2.966  13.934  1.0170 -1.2664 -0.2526
  164DOPC  H12B19798   1.646   2.999  13.850 -1.5857 -1.6125 -0.4688
  164DOPC   C1319799   1.661   3.095  14.095  0.0321 -0.6674 -0.0364
  164DOPC  H13A19800   1.632   3.123  14.195  1.3383  1.7246 -0.2487
  164DOPC  H13B19801   1.767   3.117  14.085  0.3299 -1.9614  0.1073
  164DOPC  H13C19802   1.597   3.158  14.035  0.9470 -0.9944 -1.3909
  164DOPC   C1419803   1.695   2.864  14.149 -0.3082 -0.9370 -0.3088
  164DOPC  H14A19804   1.692   2.762  14.115  1.9659 -1.3915  0.6614
  164DOPC  H14B19805   1.797   2.894  14.169 -0.1472 -1.6503 -0.0157
  164DOPC  H14C19806   1.645   2.870  14.245  1.2738  0.8966  0.4708
  164DOPC   C1519807   1.484   2.936  14.067  0.0747  0.1405 -0.1723
  164DOPC  H15A19808   1.451   2.981  14.159  0.3942  2.1576 -1.0042
  164DOPC  H15B19809   1.466   2.829  14.061  1.7276 -0.1086 -1.3185
  164DOPC  H15C19810   1.424   2.981  13.989 -2.4865 -2.3706  0.1497
  164DOPC   C1119811   1.702   2.784  13.865  0.0400 -0.0847  0.0120
  164DOPC  H11A19812   1.598   2.747  13.860  0.2679 -0.6510 -0.6580
  164DOPC  H11B19813   1.737   2.784  13.759  2.1648 -1.3758  0.6611
  164DOPC     P19814   1.937   2.708  13.921 -0.0573  0.2462 -0.0169
  164DOPC   O1319815   1.996   2.619  14.020  0.5014  0.3180  0.0543
  164DOPC   O1419816   1.977   2.851  13.931 -0.3928  0.1047 -0.1466
  164DOPC   O1219817   1.778   2.694  13.939 -0.5340  0.1249 -0.0540
  164DOPC   O1119818   1.977   2.650  13.775  0.2928  0.7923  0.4758
  164DOPC    C119819   1.941   2.523  13.728 -0.0237 -0.0124 -0.0925
  164DOPC    HA19820   1.890   2.541  13.631 -0.3008 -2.4005 -0.4460
  164DOPC    HB19821   1.880   2.470  13.803  0.9981 -0.7774  0.2199
  164DOPC    C219822   2.066   2.436  13.686  0.5607  0.0082 -0.5882
  164DOPC    HS19823   2.123   2.418  13.780  0.4992  2.0488 -0.1237
  164DOPC   O2119824   2.139   2.507  13.589  0.2335 -0.0950  0.6120
  164DOPC   C2119825   2.266   2.492  13.578  0.0483 -0.8100 -0.0635
  164DOPC   O2219826   2.341   2.422  13.643  0.1068  0.0341 -0.2470
  164DOPC   C2219827   2.308   2.598  13.471 -0.6406  0.2303 -0.2953
  164DOPC   H2R19828   2.418   2.614  13.485 -0.3705 -1.3552 -0.4328
  164DOPC   H2S19829   2.252   2.693  13.486  1.4472  1.7459 -1.4609
  164DOPC    C319830   2.030   2.295  13.641 -0.2198 -0.1001  0.5478
  164DOPC    HX19831   1.971   2.247  13.722  0.5633 -1.0513  0.5762
  164DOPC    HY19832   2.119   2.230  13.625 -0.0696  0.1796  0.2421
  164DOPC   O3119833   1.942   2.308  13.526 -0.5197  0.0413 -0.0097
  164DOPC   C3119834   1.982   2.274  13.404  0.0620 -0.6540 -0.2366
  164DOPC   O3219835   2.099   2.257  13.370  0.0790  0.3050  0.2113
  164DOPC   C3219836   1.863   2.242  13.320  0.2243  0.2338  0.5578
  164DOPC   H2X19837   1.838   2.134  13.331 -3.5233  0.8798 -0.1253
  164DOPC   H2Y19838   1.774   2.303  13.346  0.2238  0.3216  0.3519
  164DOPC   C2319839   2.282   2.541  13.326  0.8257 -0.0209  0.0930
  164DOPC   H3R19840   2.174   2.513  13.322  1.3335 -2.0820 -0.6938
  164DOPC   H3S19841   2.333   2.442  13.319  0.1206 -0.4616  0.9232
  164DOPC   C2419842   2.334   2.636  13.212  0.3485  0.2490  0.0457
  164DOPC   H4R19843   2.439   2.665  13.234  0.1824  0.7987  0.1399
  164DOPC   H4S19844   2.285   2.735  13.227  1.3669  0.7137  0.3671
  164DOPC   C2519845   2.328   2.574  13.072  0.2668 -0.0733  0.1921
  164DOPC   H5R19846   2.219   2.569  13.050  0.4416 -0.9406 -0.5370
  164DOPC   H5S19847   2.359   2.468  13.076  1.3974  0.2569  0.3231
  164DOPC   C2619848   2.400   2.653  12.972  0.2895 -0.3708  0.0337
  164DOPC   H6R19849   2.505   2.679  12.997  0.5364 -1.4108  0.1311
  164DOPC   H6S19850   2.349   2.751  12.960  0.9463 -0.1123 -0.6998
  164DOPC   C2719851   2.408   2.573  12.840  0.1884 -0.7047 -0.6619
  164DOPC   H7R19852   2.304   2.535  12.834 -0.9743  1.7944  1.6477
  164DOPC   H7S19853   2.467   2.479  12.851  1.0244 -0.2579 -1.2035
  164DOPC   C2819854   2.435   2.663  12.714 -0.3051 -0.2338  0.1740
  164DOPC   H8R19855   2.542   2.679  12.689 -0.4778  0.2138 -0.2982
  164DOPC   H8S19856   2.385   2.760  12.732  0.6364  0.1375  0.8216
  164DOPC   C2919857   2.371   2.585  12.602  0.6757  0.0373  0.5298
  164DOPC   H9R19858   2.341   2.483  12.632  0.4492  0.3391  1.3479
  164DOPC  C21019859   2.358   2.625  12.475  0.1478  0.3030  0.4156
  164DOPC  H10R19860   2.320   2.540  12.417 -0.1790 -0.7248  2.0541
  164DOPC  C21119861   2.397   2.747  12.403  0.4536 -0.0287  0.2826
  164DOPC  H11R19862   2.503   2.774  12.422  0.8197  0.2862 -1.9600
  164DOPC  H11S19863   2.329   2.828  12.437 -2.2255 -1.4010 -1.4401
  164DOPC  C21219864   2.393   2.747  12.250  0.0515 -0.1489  0.4786
  164DOPC  H12R19865   2.292   2.709  12.224  0.8653 -2.0927 -0.0508
  164DOPC  H12S19866   2.477   2.695  12.199  1.1846  1.3309  0.7571
  164DOPC  C21319867   2.402   2.898  12.191 -0.2056  0.3377 -0.4512
  164DOPC  H13R19868   2.497   2.935  12.235  0.5681 -0.9202 -1.0289
  164DOPC  H13S19869   2.319   2.966  12.222 -2.0796 -1.8128 -0.5109
  164DOPC  C21419870   2.394   2.898  12.038 -0.1778  0.0064 -0.1270
  164DOPC  H14R19871   2.289   2.874  12.012  0.2840 -1.1642 -0.9761
  164DOPC  H14S19872   2.457   2.816  11.997  0.5833  1.4229 -1.9349
  164DOPC  C21519873   2.433   3.033  11.971  1.4332  0.4768 -0.2148
  164DOPC  H15R19874   2.525   3.067  12.024  0.6615  1.3187  0.6198
  164DOPC  H15S19875   2.349   3.103  11.988  1.1843 -0.4510  2.8445
  164DOPC  C21619876   2.456   3.019  11.819  0.5143  0.5542  0.2900
  164DOPC  H16R19877   2.538   2.946  11.802 -0.2598 -0.6050  1.2746
  164DOPC  H16S19878   2.484   3.118  11.777 -0.6483  0.9657  0.4420
  164DOPC  C21719879   2.334   2.957  11.743  0.2597  0.2247 -0.2086
  164DOPC  H17R19880   2.257   3.035  11.727  1.6057  1.7133  0.2042
  164DOPC  H17S19881   2.280   2.876  11.797  1.4290  0.1187  0.8572
  164DOPC  C21819882   2.387   2.901  11.609  1.3969 -0.1513 -0.3884
  164DOPC  H18R19883   2.318   2.825  11.567  2.3534 -0.5673 -1.2289
  164DOPC  H18S19884   2.486   2.854  11.628  1.0523 -0.1363  1.7818
  164DOPC  H18T19885   2.403   2.983  11.537  0.7441 -0.9714 -1.4952
  164DOPC   C3319886   1.891   2.274  13.173  1.2819  0.4289 -0.6704
  164DOPC   H3X19887   1.991   2.236  13.142  1.0941  1.1973 -2.3457
  164DOPC   H3Y19888   1.919   2.382  13.180 -0.6171  0.9820 -0.8810
  164DOPC   C3419889   1.778   2.233  13.074 -0.3405 -0.1085 -0.2427
  164DOPC   H4X19890   1.679   2.266  13.112  0.4899  0.4907  1.5234
  164DOPC   H4Y19891   1.793   2.129  13.037  0.1554 -0.5632  1.1758
  164DOPC   C3519892   1.808   2.301  12.939  0.2264 -0.1764  1.0099
  164DOPC   H5X19893   1.906   2.268  12.897 -0.6698 -1.2171 -0.3806
  164DOPC   H5Y19894   1.824   2.410  12.953  1.1861 -0.0217 -0.9022
  164DOPC   C3619895   1.703   2.270  12.835 -0.0004  0.4509  0.0460
  164DOPC   H6X19896   1.701   2.160  12.818 -0.9087  0.8865 -3.6403
  164DOPC   H6Y19897   1.604   2.307  12.871 -0.1270  0.6347 -0.4818
  164DOPC   C3719898   1.741   2.313  12.693  0.2783 -0.1537 -0.1596
  164DOPC   H7X19899   1.726   2.423  12.689 -0.1396 -0.1589  0.8934
  164DOPC   H7Y19900   1.844   2.284  12.665  0.3645 -0.1646  0.1689
  164DOPC   C3819901   1.644   2.241  12.603  0.5873 -0.7284 -0.4776
  164DOPC   H8X19902   1.543   2.283  12.623  0.4357 -1.7940  1.1931
  164DOPC   H8Y19903   1.655   2.135  12.635  2.2685 -0.2100  0.8221
  164DOPC   C3919904   1.683   2.250  12.460  0.1750 -0.0659  0.4240
  164DOPC   H9X19905   1.759   2.329  12.446 -0.0946  0.2357  0.6322
  164DOPC  C31019906   1.653   2.179  12.348  0.1323 -0.0998  0.6768
  164DOPC  H10X19907   1.711   2.189  12.255 -2.2522 -3.1314 -1.3291
  164DOPC  C31119908   1.558   2.066  12.346 -0.2723  0.1305 -0.3186
  164DOPC  H11X19909   1.461   2.114  12.374 -0.0003 -0.3085  1.4814
  164DOPC  H11Y19910   1.572   2.005  12.437  0.0559  1.1372  0.3271
  164DOPC  C31219911   1.561   1.975  12.222  0.6236  0.0913 -0.2865
  164DOPC  H12X19912   1.481   1.901  12.243 -0.2764  0.9737 -0.5019
  164DOPC  H12Y19913   1.660   1.931  12.202  1.5541  2.4445 -1.2782
  164DOPC  C31319914   1.520   2.046  12.086 -1.1917 -0.0085 -0.6507
  164DOPC  H13X19915   1.412   2.069  12.083 -0.9436  1.1937 -1.0312
  164DOPC  H13Y19916   1.573   2.143  12.076 -2.2457  0.6512 -0.0224
  164DOPC  C31419917   1.560   1.966  11.966  0.3072 -0.4468 -0.2610
  164DOPC  H14X19918   1.668   1.941  11.955 -0.0367 -1.9274 -0.4974
  164DOPC  H14Y19919   1.530   2.029  11.879 -1.0152 -1.1447 -0.3319
  164DOPC  C31519920   1.474   1.841  11.964  0.1424 -0.0937 -0.1741
  164DOPC  H15X19921   1.366   1.866  11.978  0.0419  0.2004 -1.3670
  164DOPC  H15Y19922   1.504   1.775  12.048  2.1339  2.3075  1.1356
  164DOPC  C31619923   1.486   1.759  11.836 -0.3716 -0.1283  0.1611
  164DOPC  H16X19924   1.594   1.747  11.814  0.1889  0.1911  2.4682
  164DOPC  H16Y19925   1.442   1.658  11.848  2.4616 -1.8135 -2.2667
  164DOPC  C31719926   1.420   1.828  11.714 -0.3958  0.7531  0.1861
  164DOPC  H17X19927   1.458   1.929  11.688  0.3288  0.7536  1.1667
  164DOPC  H17Y19928   1.436   1.763  11.625 -0.0174  0.2179  0.6353
  164DOPC  C31819929   1.265   1.833  11.728  0.2353 -0.2460 -0.2677
  164DOPC  H18X19930   1.214   1.734  11.728 -1.2434  0.4796 -1.1556
  164DOPC  H18Y19931   1.231   1.902  11.807 -0.8516 -0.1692 -0.7883
  164DOPC  H18Z19932   1.241   1.872  11.627 -0.7378 -1.3205 -0.4749
  165DOPC     N19933   5.636   2.719  13.728 -0.1922  0.0232  0.8946
  165DOPC   C1219934   5.759   2.746  13.645  0.3321  0.7744  0.3633
  165DOPC  H12A19935   5.844   2.726  13.708  0.8763  3.4617  0.6421
  165DOPC  H12B19936   5.776   2.847  13.610  0.7680 -0.5545 -3.7879
  165DOPC   C1319937   5.499   2.733  13.664  0.4030  0.4842  0.2632
  165DOPC  H13A19938   5.429   2.686  13.731  0.2822  1.5617  0.9153
  165DOPC  H13B19939   5.478   2.836  13.640  1.3634  0.4736 -0.6607
  165DOPC  H13C19940   5.505   2.669  13.577  1.0395  1.5385 -0.4903
  165DOPC   C1419941   5.632   2.819  13.832 -0.0241 -0.2538  0.2371
  165DOPC  H14A19942   5.544   2.813  13.894 -0.1734  1.7093  0.2905
  165DOPC  H14B19943   5.724   2.828  13.886 -0.1231 -0.5164  0.4496
  165DOPC  H14C19944   5.628   2.916  13.785  2.9381  0.2465  0.8572
  165DOPC   C1519945   5.644   2.573  13.776  0.3615 -0.3375 -0.7849
  165DOPC  H15A19946   5.560   2.553  13.841  0.0887  2.0755 -0.3001
  165DOPC  H15B19947   5.737   2.559  13.829 -0.9779 -2.2809  1.2067
  165DOPC  H15C19948   5.637   2.505  13.693  2.5640 -2.2086  0.4444
  165DOPC   C1119949   5.779   2.651  13.518 -0.2020  0.0544  0.4597
  165DOPC  H11A19950   5.871   2.678  13.463 -2.4556  1.0071 -3.1707
  165DOPC  H11B19951   5.792   2.547  13.555  1.1225 -0.1860 -0.6231
  165DOPC     P19952   5.657   2.751  13.303  0.0612 -0.4034  0.2067
  165DOPC   O1319953   5.751   2.866  13.309  0.6430  0.0356  0.4148
  165DOPC   O1419954   5.513   2.788  13.284 -0.2872  0.0737 -0.0521
  165DOPC   O1219955   5.667   2.661  13.430 -0.2486 -0.2250 -0.0454
  165DOPC   O1119956   5.684   2.659  13.179 -0.2677  0.0605  0.5050
  165DOPC    C119957   5.814   2.619  13.156 -0.1747 -0.2929 -0.2968
  165DOPC    HA19958   5.817   2.509  13.172 -0.2506 -0.1323  0.8471
  165DOPC    HB19959   5.895   2.663  13.218  0.3851  0.1940 -1.3348
  165DOPC    C219960   5.872   2.638  13.010 -0.6174  0.5178 -1.1451
  165DOPC    HS19961   5.898   2.746  13.009  1.3608  0.0801 -0.9368
  165DOPC   O2119962   5.778   2.616  12.903 -0.2252  0.2719  0.0283
  165DOPC   C2119963   5.744   2.490  12.885  0.0898 -0.2853 -0.2104
  165DOPC   O2219964   5.760   2.400  12.963  0.1389 -0.5012 -0.5290
  165DOPC   C2219965   5.676   2.468  12.747 -0.3721  0.3530  0.3691
  165DOPC   H2R19966   5.568   2.487  12.762 -0.3520  0.2508  0.6478
  165DOPC   H2S19967   5.698   2.362  12.722  2.3093  0.2753  2.5615
  165DOPC    C319968   6.012   2.568  12.978 -1.1501 -0.9792  0.2030
  165DOPC    HX19969   6.012   2.457  12.980 -0.5474 -0.9945 -0.2051
  165DOPC    HY19970   6.090   2.598  13.052  0.0483 -0.7728 -1.1105
  165DOPC   O3119971   6.064   2.612  12.847 -0.1354 -0.6326 -0.1350
  165DOPC   C3119972   6.139   2.732  12.846 -0.9501 -0.2344  0.3502
  165DOPC   O3219973   6.183   2.788  12.940  0.2349 -0.0804  0.6736
  165DOPC   C3219974   6.129   2.797  12.710  0.5006  0.0184 -0.2449
  165DOPC   H2X19975   6.049   2.873  12.696  1.2602  0.5986 -1.6439
  165DOPC   H2Y19976   6.228   2.849  12.702  0.6531 -0.1457  0.4928
  165DOPC   C2319977   5.724   2.570  12.637 -0.1119  0.0391  0.0555
  165DOPC   H3R19978   5.835   2.562  12.635  0.0914  2.3121 -1.4579
  165DOPC   H3S19979   5.696   2.674  12.663 -0.5073  0.9611 -3.5161
  165DOPC   C2419980   5.659   2.535  12.509  0.1508 -0.2105  0.5326
  165DOPC   H4R19981   5.670   2.622  12.440  0.7290 -2.2420 -2.0737
  165DOPC   H4S19982   5.549   2.518  12.517 -0.2578  1.6836 -0.3267
  165DOPC   C2519983   5.740   2.426  12.443 -0.1400 -0.2353 -0.0300
  165DOPC   H5R19984   5.732   2.331  12.500  0.0904  0.7743  1.7687
  165DOPC   H5S19985   5.848   2.451  12.449 -0.2219  0.5968 -1.5997
  165DOPC   C2619986   5.713   2.400  12.290 -0.6946  0.2750 -0.3784
  165DOPC   H6R19987   5.759   2.486  12.236  1.5115  1.1954  2.6847
  165DOPC   H6S19988   5.604   2.409  12.270 -0.8199 -0.7038 -0.1449
  165DOPC   C2719989   5.758   2.264  12.246  0.4365 -1.0221  0.6483
  165DOPC   H7R19990   5.697   2.195  12.309 -2.2638 -0.0914 -0.7798
  165DOPC   H7S19991   5.866   2.245  12.266  0.4694 -0.7114  0.7685
  165DOPC   C2819992   5.729   2.225  12.099 -0.2279  0.1759  0.5984
  165DOPC   H8R19993   5.620   2.240  12.080 -0.4428 -0.9025  0.9073
  165DOPC   H8S19994   5.735   2.116  12.077 -1.5098 -0.2543  2.1202
  165DOPC   C2919995   5.811   2.306  12.002  0.5845 -0.2838  0.2474
  165DOPC   H9R19996   5.920   2.295  12.012  0.8517  0.8880 -1.1165
  165DOPC  C21019997   5.764   2.385  11.900 -0.0193  0.1900  0.1201
  165DOPC  H10R19998   5.833   2.435  11.830  1.0033 -2.5348 -0.9460
  165DOPC  C21119999   5.624   2.422  11.860  0.0212  0.5933 -0.5513
  165DOPC  H11R20000   5.575   2.498  11.924 -0.6547 -0.1013 -0.2369
  165DOPC  H11S20001   5.565   2.328  11.865  1.1098 -0.0258  1.9458
  165DOPC  C21220002   5.616   2.461  11.706 -1.6262 -0.4017 -0.2194
  165DOPC  H12R20003   5.512   2.461  11.669 -0.8950  1.4793 -2.4754
  165DOPC  H12S20004   5.673   2.388  11.644 -0.4858  1.6738 -1.7052
  165DOPC  C21320005   5.664   2.606  11.677  0.2215  0.2354 -1.3757
  165DOPC  H13R20006   5.766   2.617  11.719 -0.0402  2.4870 -1.2226
  165DOPC  H13S20007   5.611   2.677  11.743  2.8999  0.2406  0.9802
  165DOPC  C21420008   5.674   2.625  11.522 -0.3318  0.8882 -0.5579
  165DOPC  H14R20009   5.715   2.532  11.478 -0.6457  0.6668 -0.3784
  165DOPC  H14S20010   5.756   2.698  11.504 -1.3010  2.0804 -0.3049
  165DOPC  C21520011   5.546   2.674  11.453  0.7013 -0.4650 -0.4680
  165DOPC  H15R20012   5.548   2.785  11.458  0.4883 -0.5000  0.5773
  165DOPC  H15S20013   5.459   2.636  11.511  0.8356 -0.8792 -0.5375
  165DOPC  C21620014   5.507   2.612  11.315  0.5258 -0.3113  0.6796
  165DOPC  H16R20015   5.417   2.666  11.279  0.7321 -0.4677 -0.0895
  165DOPC  H16S20016   5.485   2.503  11.324  1.0829 -0.5775 -0.7503
  165DOPC  C21720017   5.620   2.617  11.210 -0.7597 -0.1409 -0.1187
  165DOPC  H17R20018   5.575   2.556  11.129  0.6046 -1.6274  0.2008
  165DOPC  H17S20019   5.718   2.573  11.236  0.0228  0.9096 -1.1443
  165DOPC  C21820020   5.648   2.759  11.156 -0.3598 -0.4407  0.2287
  165DOPC  H18R20021   5.712   2.827  11.216  1.3875 -1.1208 -0.8055
  165DOPC  H18S20022   5.557   2.818  11.129  1.2758  1.4855 -1.5495
  165DOPC  H18T20023   5.706   2.750  11.062  1.1517  3.4921  0.5910
  165DOPC   C3320024   6.118   2.688  12.600 -0.6987 -0.2053 -0.6398
  165DOPC   H3X20025   6.015   2.648  12.613 -0.3328 -0.9999 -0.1311
  165DOPC   H3Y20026   6.183   2.601  12.625  0.2948  0.6796 -0.0219
  165DOPC   C3420027   6.139   2.726  12.453  0.2676 -0.0972 -0.2819
  165DOPC   H4X20028   6.243   2.761  12.435 -0.3203  2.4267  0.7930
  165DOPC   H4Y20029   6.069   2.810  12.433 -0.3416 -0.3736  0.5982
  165DOPC   C3520030   6.101   2.613  12.350  0.8526  0.2829  0.7727
  165DOPC   H5X20031   5.993   2.587  12.350  1.1449 -1.0737 -0.7378
  165DOPC   H5Y20032   6.155   2.529  12.400  0.6193 -0.8708 -0.8248
  165DOPC   C3620033   6.159   2.639  12.207 -0.4361 -0.2526  0.2006
  165DOPC   H6X20034   6.102   2.730  12.176  1.0085  0.6501  0.0783
  165DOPC   H6Y20035   6.265   2.670  12.218 -0.5276  0.0686  0.2166
  165DOPC   C3720036   6.149   2.524  12.107 -0.7319  0.0677 -0.6208
  165DOPC   H7X20037   6.042   2.492  12.108 -0.9114  0.6063  0.9609
  165DOPC   H7Y20038   6.206   2.445  12.161 -1.3534  0.9289  1.4099
  165DOPC   C3820039   6.182   2.548  11.956 -0.0524  0.0546 -0.1770
  165DOPC   H8X20040   6.210   2.453  11.907  2.2082  0.9980 -0.8375
  165DOPC   H8Y20041   6.277   2.605  11.960 -0.2306  0.3336  0.1587
  165DOPC   C3920042   6.091   2.624  11.874  0.5604 -0.6731 -0.9020
  165DOPC   H9X20043   6.059   2.722  11.911 -0.8232 -1.9731  1.5811
  165DOPC  C31020044   6.044   2.581  11.757  0.0447  0.3312 -0.3167
  165DOPC  H10X20045   5.967   2.641  11.706  0.6791 -0.9624 -2.9585
  165DOPC  C31120046   6.077   2.452  11.693 -0.7907  0.2500  0.7187
  165DOPC  H11X20047   6.048   2.363  11.752 -1.7075 -0.1851 -0.3488
  165DOPC  H11Y20048   6.188   2.442  11.688 -0.6746  1.8251 -0.8728
  165DOPC  C31220049   6.034   2.440  11.543 -0.2295  0.2418 -0.0149
  165DOPC  H12X20050   5.924   2.447  11.539 -0.5406 -2.1726  2.0658
  165DOPC  H12Y20051   6.058   2.336  11.509  1.5558  1.1684 -1.8418
  165DOPC  C31320052   6.100   2.532  11.439  0.0428 -0.8482 -0.0669
  165DOPC  H13X20053   6.110   2.638  11.472  0.9810 -0.7642 -0.5810
  165DOPC  H13Y20054   6.207   2.500  11.438 -0.4467 -2.6279  0.5787
  165DOPC  C31420055   6.041   2.529  11.296  0.3687  0.0618 -0.1645
  165DOPC  H14X20056   5.997   2.430  11.270  0.5840 -0.1657  0.3347
  165DOPC  H14Y20057   5.944   2.583  11.298  0.2365 -0.1649 -0.3676
  165DOPC  C31520058   6.133   2.591  11.196  0.2829 -0.2433  0.4997
  165DOPC  H15X20059   6.217   2.519  11.192  0.1239 -0.4604  0.9797
  165DOPC  H15Y20060   6.174   2.687  11.233 -0.4898  0.5182 -0.5712
  165DOPC  C31620061   6.071   2.614  11.054  0.3617 -0.2643 -0.3913
  165DOPC  H16X20062   6.057   2.512  11.011  0.5787  0.2613 -1.7784
  165DOPC  H16Y20063   5.972   2.657  11.078  1.3646  0.8560  2.0197
  165DOPC  C31720064   6.155   2.693  10.956  0.7023  0.5161 -0.8400
  165DOPC  H17X20065   6.079   2.721  10.880 -0.2665 -1.0326 -0.4712
  165DOPC  H17Y20066   6.195   2.789  10.996  1.3886 -0.0290 -0.2171
  165DOPC  C31820067   6.264   2.612  10.893 -0.3351  0.1983  0.4583
  165DOPC  H18X20068   6.329   2.679  10.832 -0.0449 -1.4736 -1.1559
  165DOPC  H18Y20069   6.328   2.572  10.975 -0.6641 -1.3968 -0.0407
  165DOPC  H18Z20070   6.233   2.530  10.826  0.5712  0.8359 -0.7963
  166DOPC     N20071   1.241   3.284  13.505  0.7906  0.2398 -0.1365
  166DOPC   C1220072   1.278   3.431  13.509  0.4055 -0.3936  0.0025
  166DOPC  H12A20073   1.217   3.478  13.433  0.2581 -1.7776 -0.7742
  166DOPC  H12B20074   1.378   3.449  13.473  0.8876  0.8453  1.8423
  166DOPC   C1320075   1.252   3.237  13.362 -0.3518  0.0044  0.8448
  166DOPC  H13A20076   1.197   3.298  13.293  0.9167 -0.4409 -0.6239
  166DOPC  H13B20077   1.355   3.234  13.331  0.0454  3.3710  1.5008
  166DOPC  H13C20078   1.222   3.133  13.353  1.1374 -0.3068 -1.0472
  166DOPC   C1420079   1.097   3.275  13.547 -0.5803 -0.3027  0.9628
  166DOPC  H14A20080   1.040   3.351  13.495  0.8977 -0.4622 -1.0093
  166DOPC  H14B20081   1.043   3.183  13.533 -2.3034  0.4691  2.1418
  166DOPC  H14C20082   1.077   3.309  13.648 -0.8014 -1.3746  1.2884
  166DOPC   C1520083   1.323   3.207  13.605  0.4650  0.0488  0.3140
  166DOPC  H15A20084   1.283   3.107  13.613 -1.4791  0.6316 -1.2230
  166DOPC  H15B20085   1.325   3.255  13.702  2.4642 -1.0464  0.8701
  166DOPC  H15C20086   1.427   3.203  13.579  0.4870  1.1068  0.1789
  166DOPC   C1120087   1.257   3.508  13.639  0.0939  0.2236 -0.0241
  166DOPC  H11A20088   1.312   3.447  13.714  0.0903 -3.0864 -2.4414
  166DOPC  H11B20089   1.304   3.607  13.622  0.1433  0.3954  1.0670
  166DOPC     P20090   1.035   3.637  13.629 -0.4936 -0.0938  0.0639
  166DOPC   O1320091   1.057   3.753  13.717  0.4355 -0.0995  0.1255
  166DOPC   O1420092   0.893   3.601  13.606 -0.3902 -0.0366  0.3714
  166DOPC   O1220093   1.117   3.513  13.679 -0.4276  0.2692 -0.1777
  166DOPC   O1120094   1.098   3.658  13.485  0.0067 -0.3095  0.3636
  166DOPC    C120095   1.083   3.775  13.405  0.1252  0.4710  0.3101
  166DOPC    HA20096   1.150   3.857  13.439 -0.6830  1.0191  0.5969
  166DOPC    HB20097   0.984   3.824  13.413 -0.9585 -1.5136 -0.2211
  166DOPC    C220098   1.104   3.741  13.255 -0.4341 -0.3174 -0.3703
  166DOPC    HS20099   1.063   3.820  13.189  1.3302 -0.2675 -1.4801
  166DOPC   O2120100   1.058   3.607  13.224 -0.5264 -0.5708 -0.6256
  166DOPC   C2120101   0.927   3.597  13.210  0.3164  0.2057  0.0549
  166DOPC   O2220102   0.843   3.681  13.200  0.0721  0.2171 -0.1604
  166DOPC   C2220103   0.890   3.451  13.205 -0.3537  0.7141  0.6140
  166DOPC   H2R20104   0.781   3.431  13.212 -0.1531 -0.0720  1.7132
  166DOPC   H2S20105   0.933   3.399  13.293 -1.3486 -1.4997 -0.1370
  166DOPC    C320106   1.256   3.744  13.224 -0.6961  0.2550 -0.2558
  166DOPC    HX20107   1.316   3.672  13.285  1.2149  0.6573 -1.5636
  166DOPC    HY20108   1.285   3.848  13.248  1.6320 -0.1216 -1.1644
  166DOPC   O3120109   1.276   3.739  13.083 -0.5480 -0.5602 -0.0188
  166DOPC   C3120110   1.286   3.620  13.022 -0.8539 -1.2356 -0.1106
  166DOPC   O3220111   1.325   3.520  13.077  0.2572 -0.3581 -0.2475
  166DOPC   C3220112   1.243   3.629  12.880  0.3967  0.0213 -1.2600
  166DOPC   H2X20113   1.326   3.671  12.818  1.2380  0.5355  0.1616
  166DOPC   H2Y20114   1.229   3.523  12.850 -1.3181  0.0157 -0.5321
  166DOPC   C2320115   0.943   3.371  13.086 -0.3665  0.1287  0.6560
  166DOPC   H3R20116   1.053   3.357  13.074 -0.4539 -1.1440  1.1351
  166DOPC   H3S20117   0.914   3.412  12.987 -1.3309 -0.8364  0.5164
  166DOPC   C2420118   0.889   3.230  13.094  0.5492  0.5301  0.0023
  166DOPC   H4R20119   0.884   3.199  13.200  1.6886  1.5916  0.3875
  166DOPC   H4S20120   0.957   3.165  13.034  0.0397 -1.4008  1.4199
  166DOPC   C2520121   0.760   3.206  13.016  0.1786  0.5427  0.7333
  166DOPC   H5R20122   0.698   3.298  13.021 -0.3049  0.3113 -0.7486
  166DOPC   H5S20123   0.697   3.128  13.064 -1.1858  1.2212  0.0940
  166DOPC   C2620124   0.781   3.163  12.857  0.1562 -0.0076 -0.1782
  166DOPC   H6R20125   0.680   3.182  12.813  1.0201  1.0770 -1.7719
  166DOPC   H6S20126   0.804   3.055  12.857  0.3660 -0.0070 -2.2872
  166DOPC   C2720127   0.860   3.259  12.768  0.0535  0.4061 -0.0210
  166DOPC   H7R20128   0.963   3.256  12.811  0.8354 -2.4795 -1.7764
  166DOPC   H7S20129   0.808   3.356  12.778 -1.1224 -0.2306  0.2477
  166DOPC   C2820130   0.865   3.224  12.621  0.1442  0.0369 -0.2173
  166DOPC   H8R20131   0.765   3.191  12.588  0.4343  1.6950 -3.1238
  166DOPC   H8S20132   0.934   3.139  12.603  0.0843 -0.5785  2.2090
  166DOPC   C2920133   0.900   3.341  12.528 -0.0810  0.0749 -0.0178
  166DOPC   H9R20134   0.849   3.433  12.562 -0.5667 -0.2914  0.2709
  166DOPC  C21020135   0.976   3.343  12.411 -0.2235  0.4044 -0.2184
  166DOPC  H10R20136   0.954   3.430  12.347 -2.6134  0.1611  0.1836
  166DOPC  C21120137   1.040   3.224  12.341  0.5258  0.0540  0.6214
  166DOPC  H11R20138   1.021   3.141  12.412  0.7128  0.3720  1.0515
  166DOPC  H11S20139   1.150   3.235  12.331  0.1335  2.4191 -2.3079
  166DOPC  C21220140   0.978   3.196  12.208  0.0891  0.2337 -0.1952
  166DOPC  H12R20141   0.868   3.186  12.201  0.2204 -0.2571 -1.9863
  166DOPC  H12S20142   1.009   3.095  12.174  0.6187 -0.3707  1.9433
  166DOPC  C21320143   1.024   3.299  12.102  0.8602  0.3433  0.3757
  166DOPC  H13R20144   1.133   3.284  12.091  0.5049 -1.2697 -1.4726
  166DOPC  H13S20145   1.002   3.402  12.137  0.0545  0.2162  0.2632
  166DOPC  C21420146   0.955   3.288  11.967 -0.1531  0.3803  0.2758
  166DOPC  H14R20147   0.993   3.195  11.917 -1.5466 -0.4972  0.7946
  166DOPC  H14S20148   0.991   3.370  11.901  3.9809 -2.0870 -0.9749
  166DOPC  C21520149   0.805   3.289  11.975  0.6849 -0.1938  0.3753
  166DOPC  H15R20150   0.762   3.360  12.049 -1.3800 -0.4734 -0.4807
  166DOPC  H15S20151   0.769   3.186  11.997 -1.1878 -1.0392 -4.9321
  166DOPC  C21620152   0.747   3.323  11.833  0.4711 -0.6947 -0.1395
  166DOPC  H16R20153   0.637   3.317  11.837  0.5310 -2.8499 -0.7402
  166DOPC  H16S20154   0.786   3.244  11.766 -0.6128 -1.5818  0.2483
  166DOPC  C21720155   0.775   3.460  11.773 -0.1767  0.5254  0.1614
  166DOPC  H17R20156   0.880   3.463  11.737  0.8471 -0.1855  2.8267
  166DOPC  H17S20157   0.762   3.533  11.856  1.0096  0.8314  0.1011
  166DOPC  C21820158   0.685   3.503  11.650  0.1160 -0.7863 -1.1818
  166DOPC  H18R20159   0.725   3.601  11.619  0.1458 -0.0820  0.9045
  166DOPC  H18S20160   0.579   3.526  11.675  0.2707 -2.3669  1.3705
  166DOPC  H18T20161   0.692   3.421  11.575  1.1000 -0.9549 -0.9250
  166DOPC   C3320162   1.109   3.706  12.857  0.2336 -0.0179  0.4848
  166DOPC   H3X20163   1.152   3.809  12.856  0.3672 -0.0611 -1.3720
  166DOPC   H3Y20164   1.031   3.691  12.935 -0.7989  2.4182  0.0330
  166DOPC   C3420165   1.039   3.681  12.723 -0.6144 -0.3581  0.3720
  166DOPC   H4X20166   0.942   3.737  12.726 -0.6110 -0.1267 -1.9390
  166DOPC   H4Y20167   1.013   3.573  12.726  3.0063 -1.3642 -0.2667
  166DOPC   C3520168   1.132   3.727  12.606  0.4206 -0.2214  0.7055
  166DOPC   H5X20169   1.222   3.664  12.621  1.3242 -0.2773 -3.6509
  166DOPC   H5Y20170   1.161   3.833  12.624 -1.0719  0.0716  1.5292
  166DOPC   C3620171   1.075   3.707  12.465 -0.2996 -0.8489 -0.5116
  166DOPC   H6X20172   1.153   3.704  12.386 -1.0724  0.2752 -1.3616
  166DOPC   H6Y20173   1.020   3.610  12.463 -3.8075  0.9199  0.4062
  166DOPC   C3720174   0.983   3.825  12.432  0.0015 -0.0634  0.4810
  166DOPC   H7X20175   0.894   3.818  12.497  1.5479 -0.3572  2.6777
  166DOPC   H7Y20176   1.027   3.925  12.454 -1.9046  0.6406  1.2383
  166DOPC   C3820177   0.941   3.840  12.288 -0.7267  0.1544  0.2104
  166DOPC   H8X20178   1.033   3.860  12.229 -2.2135  0.3509 -2.1808
  166DOPC   H8Y20179   0.875   3.928  12.277 -2.8965 -1.3192  0.7542
  166DOPC   C3920180   0.872   3.721  12.225 -0.1186  0.0576  0.3191
  166DOPC   H9X20181   0.805   3.667  12.294 -2.8228  2.4711 -0.2277
  166DOPC  C31020182   0.882   3.690  12.087 -0.5733 -1.0692  0.0812
  166DOPC  H10X20183   0.821   3.605  12.054 -2.9578  0.0799  1.1953
  166DOPC  C31120184   0.949   3.758  11.973 -0.3625 -0.2946 -0.6255
  166DOPC  H11X20185   0.972   3.861  12.006  0.1746 -0.5658 -0.1353
  166DOPC  H11Y20186   0.889   3.780  11.882  1.9854  1.8855 -1.8026
  166DOPC  C31220187   1.078   3.676  11.925  0.5992  0.5593 -0.6702
  166DOPC  H12X20188   1.060   3.567  11.934  0.4142  0.7116  1.0011
  166DOPC  H12Y20189   1.161   3.687  11.997 -0.0040 -1.3465  0.3911
  166DOPC  C31320190   1.135   3.726  11.797  0.3669  0.6913  0.0472
  166DOPC  H13X20191   1.213   3.652  11.766  2.6056  2.5686  0.8881
  166DOPC  H13Y20192   1.050   3.743  11.728 -0.7151  2.0626  1.6448
  166DOPC  C31420193   1.205   3.861  11.814 -0.9520  0.2636 -0.8342
  166DOPC  H14X20194   1.129   3.937  11.841  0.6727  1.6953 -0.1289
  166DOPC  H14Y20195   1.277   3.869  11.898  1.2322 -0.2547 -2.5816
  166DOPC  C31520196   1.273   3.911  11.693  0.3483 -1.1091 -0.5898
  166DOPC  H15X20197   1.337   3.835  11.644 -0.0121 -0.7234 -1.6965
  166DOPC  H15Y20198   1.343   3.990  11.728 -2.1409  0.9687 -0.0093
  166DOPC  C31620199   1.188   3.969  11.579  0.2210  1.3348  0.0035
  166DOPC  H16X20200   1.100   3.905  11.559 -0.3585  0.7329  3.6420
  166DOPC  H16Y20201   1.139   4.066  11.601 -1.4986  0.3560  0.7064
  166DOPC  C31720202   1.274   3.986  11.456 -0.3336  0.2932  0.4466
  166DOPC  H17X20203   1.349   4.065  11.479  0.6304  0.4570 -2.7418
  166DOPC  H17Y20204   1.342   3.899  11.443  0.3881  0.7315  1.1972
  166DOPC  C31820205   1.206   4.019  11.325  0.1399 -0.3279 -0.1895
  166DOPC  H18X20206   1.285   4.028  11.248  1.7321 -1.9860  1.1634
  166DOPC  H18Y20207   1.137   3.941  11.286 -0.2679 -0.5857  1.0189
  166DOPC  H18Z20208   1.157   4.119  11.326  0.7964  0.0115  1.3429
  167DOPC     N20209   1.065   1.760  13.765  0.3851 -0.0802 -0.5284
  167DOPC   C1220210   0.968   1.871  13.725  0.1197  0.5263  0.0320
  167DOPC  H12A20211   1.019   1.938  13.658  0.1942  0.5370  0.1007
  167DOPC  H12B20212   0.937   1.923  13.814 -1.8008 -1.2647  0.4915
  167DOPC   C1320213   1.000   1.663  13.860  0.0616 -0.3329  0.3268
  167DOPC  H13A20214   1.055   1.571  13.852  3.6392  1.8005 -3.0284
  167DOPC  H13B20215   0.997   1.699  13.962 -2.4419  0.9776 -0.1296
  167DOPC  H13C20216   0.894   1.660  13.838  0.0485  0.2230  0.3054
  167DOPC   C1420217   1.189   1.824  13.832 -0.0534  0.0393  1.1550
  167DOPC  H14A20218   1.262   1.850  13.758 -1.3167 -1.7028 -0.8020
  167DOPC  H14B20219   1.171   1.908  13.898 -0.3057  0.4656  0.5519
  167DOPC  H14C20220   1.239   1.754  13.897  1.8118  1.6370  1.5298
  167DOPC   C1520221   1.127   1.689  13.650  0.3217  0.0506 -0.2648
  167DOPC  H15A20222   1.187   1.742  13.577  0.6679 -0.4830 -0.3752
  167DOPC  H15B20223   1.057   1.632  13.590 -2.0452  2.2563  0.2461
  167DOPC  H15C20224   1.189   1.611  13.691 -0.7976 -0.5512  0.3135
  167DOPC   C1120225   0.835   1.833  13.658 -0.3129 -0.0428 -0.3089
  167DOPC  H11A20226   0.779   1.917  13.612 -1.9468 -1.3076 -0.7244
  167DOPC  H11B20227   0.852   1.754  13.582  0.3031  0.7097 -0.9603
  167DOPC     P20228   0.648   1.835  13.849 -0.3032 -0.2582  0.4218
  167DOPC   O1320229   0.717   1.950  13.920 -0.0546  0.0205  0.0075
  167DOPC   O1420230   0.585   1.725  13.932 -0.6973 -0.1463  0.3472
  167DOPC   O1220231   0.759   1.769  13.757  0.2296 -0.3077  0.7300
  167DOPC   O1120232   0.544   1.898  13.750  0.0475 -0.6702  0.1991
  167DOPC    C120233   0.482   1.818  13.652  0.1635 -0.6472  0.1837
  167DOPC    HA20234   0.488   1.710  13.679  2.5135 -0.7451 -0.4842
  167DOPC    HB20235   0.547   1.819  13.562  0.5018  0.4861  0.4266
  167DOPC    C220236   0.341   1.870  13.611 -0.8987 -0.0818  0.1960
  167DOPC    HS20237   0.285   1.863  13.707  0.2731 -0.2050  0.8837
  167DOPC   O2120238   0.288   1.785  13.507  0.2755 -0.2295  0.2063
  167DOPC   C2120239   0.250   1.673  13.540  0.2875  0.6146  0.6491
  167DOPC   O2220240   0.245   1.627  13.655 -0.1504 -0.0331  0.1979
  167DOPC   C2220241   0.196   1.599  13.423  0.0475  0.2065  0.6307
  167DOPC   H2R20242   0.093   1.563  13.442 -0.3754 -1.3951 -3.6033
  167DOPC   H2S20243   0.264   1.512  13.406 -0.7872 -0.1628 -1.0113
  167DOPC    C320244   0.351   2.019  13.568  0.8091 -0.6391 -0.1328
  167DOPC    HX20245   0.404   2.082  13.643  0.7123 -0.7788  0.0541
  167DOPC    HY20246   0.248   2.060  13.561  1.4762  0.9259 -1.4787
  167DOPC   O3120247   0.413   2.032  13.437  0.2033  0.5399 -0.3135
  167DOPC   C3120248   0.347   2.083  13.342 -0.2212  0.0649 -0.1632
  167DOPC   O3220249   0.250   2.155  13.348  0.1789 -0.2136 -0.2916
  167DOPC   C3220250   0.432   2.059  13.214  0.2020 -0.1317 -1.4490
  167DOPC   H2X20251   0.532   2.107  13.226  0.3650 -0.4479 -1.5119
  167DOPC   H2Y20252   0.453   1.950  13.213 -0.7224 -0.5447  2.7046
  167DOPC   C2320253   0.186   1.680  13.290 -0.2033  0.8464 -0.0765
  167DOPC   H3R20254   0.290   1.698  13.256  0.3957 -1.6457  0.2524
  167DOPC   H3S20255   0.132   1.775  13.311 -0.5469  0.8513 -0.9666
  167DOPC   C2420256   0.101   1.590  13.197 -0.2827  0.8010  0.2718
  167DOPC   H4R20257   0.003   1.569  13.246  1.0221 -0.3236  2.5645
  167DOPC   H4S20258   0.167   1.501  13.189  0.6565  1.5733 -0.8880
  167DOPC   C2520259   0.079   1.658  13.065 -0.0702 -0.2227 -0.4045
  167DOPC   H5R20260   0.025   1.753  13.084 -3.1367 -2.0313  0.6275
  167DOPC   H5S20261   0.023   1.592  12.995  1.0115  0.2069 -1.7280
  167DOPC   C2620262   0.209   1.684  12.991 -0.1941 -0.4086  0.4041
  167DOPC   H6R20263   0.263   1.588  12.979  0.5100  0.1859 -1.7234
  167DOPC   H6S20264   0.282   1.758  13.030  0.1564  0.2689 -1.4220
  167DOPC   C2720265   0.172   1.726  12.846 -0.1407  0.4288 -0.5649
  167DOPC   H7R20266   0.139   1.832  12.833  2.1683  1.2460 -0.1816
  167DOPC   H7S20267   0.092   1.656  12.815  1.2071 -0.9780 -0.9944
  167DOPC   C2820268   0.292   1.694  12.751 -0.1503 -0.0529 -0.1277
  167DOPC   H8R20269   0.319   1.587  12.757  0.4828  0.1384  0.4889
  167DOPC   H8S20270   0.378   1.756  12.784  0.1187 -0.9383  0.8799
  167DOPC   C2920271   0.246   1.732  12.610  0.0103  0.2022  0.4149
  167DOPC   H9R20272   0.157   1.797  12.600 -1.6007 -2.1049 -1.3494
  167DOPC  C21020273   0.304   1.698  12.497 -1.0839  0.2237 -0.8629
  167DOPC  H10R20274   0.274   1.743  12.401 -1.6607 -1.1831 -1.3750
  167DOPC  C21120275   0.419   1.600  12.497 -0.7094  0.6952  0.5468
  167DOPC  H11R20276   0.450   1.577  12.602 -2.4582  1.3228  1.2461
  167DOPC  H11S20277   0.505   1.648  12.447 -0.4268 -1.9037 -1.6441
  167DOPC  C21220278   0.375   1.460  12.439  0.4564  0.0358 -0.0779
  167DOPC  H12R20279   0.467   1.398  12.434  0.3372 -0.1257 -0.3194
  167DOPC  H12S20280   0.299   1.419  12.509  1.1726  0.6097  1.0542
  167DOPC  C21320281   0.317   1.466  12.296  0.2782  0.5029  0.1121
  167DOPC  H13R20282   0.393   1.529  12.246  1.6318 -0.8985  0.3361
  167DOPC  H13S20283   0.217   1.513  12.305  0.2147  0.3368  0.3009
  167DOPC  C21420284   0.295   1.328  12.219  0.0655  0.3980 -0.0218
  167DOPC  H14R20285   0.209   1.277  12.266 -0.0867 -0.1309 -0.8483
  167DOPC  H14S20286   0.382   1.262  12.241  0.4747  0.6968 -0.6838
  167DOPC  C21520287   0.272   1.347  12.070 -0.3300 -1.2932  0.3989
  167DOPC  H15R20288   0.361   1.400  12.031 -1.1576  1.0742  1.5580
  167DOPC  H15S20289   0.189   1.412  12.036  0.6025 -1.7006 -3.0284
  167DOPC  C21620290   0.264   1.204  12.008 -0.1177 -0.0516  0.0583
  167DOPC  H16R20291   0.185   1.146  12.059 -0.5814  1.7347  1.4826
  167DOPC  H16S20292   0.359   1.149  12.024 -0.2939 -0.3835 -0.0185
  167DOPC  C21720293   0.231   1.204  11.860  0.1306  0.8996  0.1262
  167DOPC  H17R20294   0.138   1.260  11.836 -0.1210  0.4247  0.0014
  167DOPC  H17S20295   0.216   1.100  11.826 -2.0250  0.8032  1.2018
  167DOPC  C21820296   0.346   1.249  11.770  0.4608 -0.6259 -0.0032
  167DOPC  H18R20297   0.442   1.198  11.795  1.0615 -0.0511 -1.0382
  167DOPC  H18S20298   0.360   1.359  11.771  0.4757 -0.6286  0.1144
  167DOPC  H18T20299   0.322   1.227  11.664 -1.8037 -4.1321  1.0621
  167DOPC   C3320300   0.366   2.099  13.083  0.2784 -0.2100  0.1632
  167DOPC   H3X20301   0.316   2.197  13.096  3.6178  1.5900  0.4091
  167DOPC   H3Y20302   0.287   2.021  13.072 -0.3365  0.3050  0.8158
  167DOPC   C3420303   0.476   2.109  12.979 -0.1098 -0.1930  0.0721
  167DOPC   H4X20304   0.543   2.022  12.970  0.9420  0.7674 -2.5399
  167DOPC   H4Y20305   0.525   2.205  13.009 -0.8447  0.7210 -1.4907
  167DOPC   C3520306   0.422   2.140  12.832 -0.2124  0.3501  0.0508
  167DOPC   H5X20307   0.381   2.242  12.818  1.8055  1.0276 -1.4511
  167DOPC   H5Y20308   0.342   2.067  12.804  0.0674  0.7690 -2.0336
  167DOPC   C3620309   0.545   2.153  12.736 -0.0660 -0.0316  0.1726
  167DOPC   H6X20310   0.605   2.241  12.764  1.4447 -1.3644  1.3114
  167DOPC   H6Y20311   0.601   2.057  12.745 -2.2803 -1.4859 -0.4249
  167DOPC   C3720312   0.524   2.163  12.588 -0.0897  0.2369  0.4679
  167DOPC   H7X20313   0.439   2.231  12.567 -0.2894 -0.3225 -0.6273
  167DOPC   H7Y20314   0.614   2.213  12.547 -0.3334  0.2549 -0.0504
  167DOPC   C3820315   0.478   2.030  12.518  0.0322 -0.2799  0.1388
  167DOPC   H8X20316   0.444   2.059  12.416 -1.5736  0.0546  0.7464
  167DOPC   H8Y20317   0.385   1.992  12.565 -0.7673  1.6323  0.2146
  167DOPC   C3920318   0.585   1.933  12.512  0.5120  0.4260 -0.5779
  167DOPC   H9X20319   0.613   1.889  12.608  1.5521 -2.6399 -2.1375
  167DOPC  C31020320   0.661   1.898  12.404  0.3351 -0.7863 -0.2371
  167DOPC  H10X20321   0.735   1.819  12.422 -0.5658 -1.5693  0.1290
  167DOPC  C31120322   0.647   1.949  12.259  0.5685 -0.0461 -0.0007
  167DOPC  H11X20323   0.743   1.951  12.202  0.9897  1.6466  0.7128
  167DOPC  H11Y20324   0.607   2.052  12.262  2.0668  0.5523  0.3054
  167DOPC  C31220325   0.546   1.861  12.182 -0.4433  0.6124  0.3086
  167DOPC  H12X20326   0.447   1.861  12.232 -0.5969 -2.0802  0.1498
  167DOPC  H12Y20327   0.564   1.752  12.195 -1.5517  0.4127  0.2084
  167DOPC  C31320328   0.539   1.895  12.031 -0.1496  0.4808 -0.7043
  167DOPC  H13X20329   0.524   2.005  12.025  0.5950  0.5269 -2.6708
  167DOPC  H13Y20330   0.638   1.873  11.986  0.2596  3.9476 -1.8737
  167DOPC  C31420331   0.430   1.812  11.961 -0.1423 -0.2077 -0.9209
  167DOPC  H14X20332   0.436   1.704  11.989 -1.0391  0.2458  1.2393
  167DOPC  H14Y20333   0.332   1.847  11.999  0.5088  2.4154 -1.4631
  167DOPC  C31520334   0.437   1.833  11.806 -0.7826 -0.1581 -0.0922
  167DOPC  H15X20335   0.529   1.789  11.762  0.3450  0.1896  1.8367
  167DOPC  H15Y20336   0.439   1.944  11.798 -0.2889 -0.1150  0.6039
  167DOPC  C31620337   0.308   1.782  11.736 -0.0405  0.4437  0.3075
  167DOPC  H16X20338   0.302   1.675  11.764  2.3949 -0.0555 -0.7849
  167DOPC  H16Y20339   0.221   1.842  11.770 -2.0607 -1.5993 -0.9763
  167DOPC  C31720340   0.325   1.800  11.586  0.5730 -0.0019 -0.1353
  167DOPC  H17X20341   0.226   1.769  11.547 -0.1176  1.6214  0.2015
  167DOPC  H17Y20342   0.344   1.908  11.567 -1.4692  0.2680 -0.9647
  167DOPC  C31820343   0.418   1.707  11.523  0.2453  0.1253  0.1641
  167DOPC  H18X20344   0.411   1.723  11.413 -3.5928 -2.6506 -0.1790
  167DOPC  H18Y20345   0.524   1.728  11.550 -0.0702  1.6574  0.3439
  167DOPC  H18Z20346   0.381   1.605  11.545  1.3741 -0.8298 -1.9854
  168DOPC     N20347   2.186   1.341  13.698 -0.8133 -0.7119 -0.5301
  168DOPC   C1220348   2.297   1.330  13.597 -0.4763  0.1661  0.2395
  168DOPC  H12A20349   2.258   1.292  13.503  0.0317 -2.9332  1.1887
  168DOPC  H12B20350   2.372   1.259  13.628 -0.4935  0.2136  0.3868
  168DOPC   C1320351   2.220   1.410  13.826 -0.0168  0.1107  0.1509
  168DOPC  H13A20352   2.268   1.504  13.802 -1.9002  0.6381 -1.9232
  168DOPC  H13B20353   2.134   1.437  13.885  1.5389  1.3528  1.9564
  168DOPC  H13C20354   2.275   1.346  13.894 -1.9300  0.7444  2.3828
  168DOPC   C1420355   2.129   1.201  13.722  0.4955  0.4418 -0.0585
  168DOPC  H14A20356   2.212   1.142  13.758  0.7315 -0.0093 -1.2958
  168DOPC  H14B20357   2.049   1.204  13.795  0.4003  1.4380 -0.1967
  168DOPC  H14C20358   2.088   1.148  13.637  1.8413 -0.5676 -0.1169
  168DOPC   C1520359   2.071   1.409  13.630 -0.1405  0.0577  0.1085
  168DOPC  H15A20360   1.982   1.399  13.690  1.0779 -1.2013  1.8029
  168DOPC  H15B20361   2.050   1.367  13.532  3.9832  1.1517 -1.4520
  168DOPC  H15C20362   2.093   1.513  13.609 -0.5777 -0.3015 -2.5767
  168DOPC   C1120363   2.372   1.464  13.575 -0.1525  0.2703  0.0838
  168DOPC  H11A20364   2.417   1.459  13.473 -0.5076  1.8891 -0.1757
  168DOPC  H11B20365   2.312   1.557  13.569 -0.4229  0.0470 -0.8981
  168DOPC     P20366   2.605   1.418  13.665  0.2735 -0.0461  0.1853
  168DOPC   O1320367   2.584   1.271  13.668 -0.5952 -0.4482  0.5068
  168DOPC   O1420368   2.690   1.482  13.765 -0.0724 -0.3384 -0.0710
  168DOPC   O1220369   2.470   1.491  13.669  0.4626 -0.2475 -0.3387
  168DOPC   O1120370   2.655   1.458  13.519 -0.5302 -0.2704  0.3329
  168DOPC    C120371   2.684   1.593  13.482 -0.3939  0.0365  1.2280
  168DOPC    HA20372   2.765   1.625  13.551 -0.0779  2.9807 -0.3171
  168DOPC    HB20373   2.596   1.659  13.498 -1.5287 -1.7477  2.8524
  168DOPC    C220374   2.716   1.617  13.329  0.2776 -0.0305  0.1727
  168DOPC    HS20375   2.704   1.727  13.314  1.4650 -0.0560 -1.1290
  168DOPC   O2120376   2.632   1.536  13.234  0.4129  0.3126 -0.1478
  168DOPC   C2120377   2.501   1.574  13.230  0.4332 -0.8507 -0.1465
  168DOPC   O2220378   2.459   1.674  13.281  0.1916 -0.3655 -0.1951
  168DOPC   C2220379   2.415   1.488  13.136 -0.1056  0.0696 -0.0377
  168DOPC   H2R20380   2.354   1.417  13.198  1.5529 -1.4996 -0.1070
  168DOPC   H2S20381   2.490   1.432  13.076  1.7094  2.5541 -0.2090
  168DOPC    C320382   2.868   1.587  13.304 -0.8499  0.2117  0.8885
  168DOPC    HX20383   2.895   1.493  13.357 -0.8560 -1.4284 -1.8290
  168DOPC    HY20384   2.928   1.669  13.350  2.2739 -1.6248  0.3822
  168DOPC   O3120385   2.890   1.581  13.158  0.5151  0.0466  0.5047
  168DOPC   C3120386   2.898   1.458  13.108 -0.0183  0.2297 -0.3887
  168DOPC   O3220387   2.889   1.354  13.175  0.6865 -0.1087 -0.2015
  168DOPC   C3220388   2.937   1.460  12.959 -0.4562 -0.2414  0.1914
  168DOPC   H2X20389   2.849   1.510  12.912 -0.5203  0.9414  1.4954
  168DOPC   H2Y20390   3.015   1.537  12.937 -0.1339 -0.7350 -0.4417
  168DOPC   C2320391   2.309   1.571  13.054  0.0222  0.2766 -0.2896
  168DOPC   H3R20392   2.252   1.635  13.124  0.8264  1.0423 -0.3234
  168DOPC   H3S20393   2.234   1.496  13.020  0.8261 -0.6770 -0.0254
  168DOPC   C2420394   2.375   1.647  12.937  0.2444  0.4433  0.3628
  168DOPC   H4R20395   2.446   1.723  12.976 -0.1658  0.1838  1.6718
  168DOPC   H4S20396   2.292   1.705  12.893 -0.2436 -1.5917 -1.5795
  168DOPC   C2520397   2.437   1.556  12.826 -0.1442  0.4597 -0.0478
  168DOPC   H5R20398   2.363   1.484  12.785  0.3039  1.2234 -2.3411
  168DOPC   H5S20399   2.527   1.497  12.855  3.5754  3.6938 -3.7694
  168DOPC   C2620400   2.472   1.638  12.698  0.5581 -0.0045 -0.8579
  168DOPC   H6R20401   2.555   1.710  12.716  0.2526  0.6001 -1.7904
  168DOPC   H6S20402   2.379   1.696  12.679 -0.5469 -1.2919  0.3998
  168DOPC   C2720403   2.511   1.547  12.588 -1.2200 -0.4456 -0.0914
  168DOPC   H7R20404   2.417   1.490  12.568 -2.7689  2.2249 -1.0205
  168DOPC   H7S20405   2.595   1.479  12.613  0.8282  1.4290 -1.4771
  168DOPC   C2820406   2.543   1.618  12.458 -0.2940  0.0437  0.3502
  168DOPC   H8R20407   2.607   1.546  12.403  0.2472  0.3710  0.5362
  168DOPC   H8S20408   2.607   1.708  12.472  0.8517 -0.7033  0.0566
  168DOPC   C2920409   2.423   1.657  12.377 -0.2810  0.6065 -0.3108
  168DOPC   H9R20410   2.352   1.576  12.354 -0.6976  0.2125  2.1066
  168DOPC  C21020411   2.391   1.779  12.336  0.2647 -0.2814 -1.2839
  168DOPC  H10R20412   2.300   1.778  12.273 -0.9275 -2.0581  0.3292
  168DOPC  C21120413   2.462   1.908  12.354 -0.5007 -0.2209  0.4001
  168DOPC  H11R20414   2.535   1.904  12.438  0.1792  1.7974 -0.0242
  168DOPC  H11S20415   2.393   1.993  12.377  0.3887  1.4623 -2.5979
  168DOPC  C21220416   2.558   1.950  12.247  0.1405  0.3489  0.0875
  168DOPC  H12R20417   2.642   1.882  12.220 -0.0030  0.7748 -1.5261
  168DOPC  H12S20418   2.609   2.041  12.285 -1.9666  1.2338  0.9349
  168DOPC  C21320419   2.483   2.003  12.124  0.0653  0.2619  0.2752
  168DOPC  H13R20420   2.421   2.093  12.144  0.4875  1.0346 -1.6437
  168DOPC  H13S20421   2.423   1.920  12.083  1.3704 -0.4402 -0.2852
  168DOPC  C21420422   2.575   2.065  12.011 -0.5781 -0.0513  0.1494
  168DOPC  H14R20423   2.631   1.984  11.960  0.0429 -0.4322  1.4084
  168DOPC  H14S20424   2.661   2.122  12.053  0.3094  0.0532 -1.6999
  168DOPC  C21520425   2.506   2.166  11.923  0.6671 -0.0001  0.5414
  168DOPC  H15R20426   2.577   2.225  11.861  0.0092  0.3541  0.0987
  168DOPC  H15S20427   2.440   2.236  11.979 -0.4857  0.3315 -1.1128
  168DOPC  C21620428   2.391   2.105  11.836 -1.1117  0.0045  0.2977
  168DOPC  H16R20429   2.321   2.058  11.908  0.1566 -1.8370  0.4023
  168DOPC  H16S20430   2.443   2.023  11.780  0.1292 -0.3774  1.9381
  168DOPC  C21720431   2.327   2.199  11.738 -0.0720 -0.1700 -0.2304
  168DOPC  H17R20432   2.397   2.240  11.662  0.4342  1.7104  1.1781
  168DOPC  H17S20433   2.291   2.287  11.795 -1.6059 -0.8739 -0.0682
  168DOPC  C21820434   2.209   2.133  11.667 -0.3471  0.0226  0.2284
  168DOPC  H18R20435   2.133   2.202  11.625 -3.3894 -2.3201  1.4395
  168DOPC  H18S20436   2.151   2.080  11.745  2.4885 -1.5022  1.4490
  168DOPC  H18T20437   2.247   2.059  11.593  1.0417 -0.7959  1.6805
  168DOPC   C3320438   2.954   1.318  12.897 -0.4665  0.0265 -0.2676
  168DOPC   H3X20439   2.899   1.238  12.952  2.3736 -0.8776  1.4643
  168DOPC   H3Y20440   3.061   1.291  12.896 -0.6814 -1.0181  1.2400
  168DOPC   C3420441   2.904   1.299  12.747 -0.3968  0.2098 -0.2285
  168DOPC   H4X20442   2.794   1.312  12.760 -0.7000 -3.1188  1.6872
  168DOPC   H4Y20443   2.929   1.197  12.710 -0.3200 -0.0230  0.4579
  168DOPC   C3520444   2.968   1.405  12.650 -0.1879 -0.3483  0.7030
  168DOPC   H5X20445   3.077   1.403  12.671  0.2613 -0.2619 -1.4843
  168DOPC   H5Y20446   2.924   1.505  12.671  1.8919  1.0942 -1.3854
  168DOPC   C3620447   2.943   1.368  12.504 -0.1338 -0.1568 -0.6052
  168DOPC   H6X20448   2.956   1.259  12.493 -1.0220 -0.6673  2.6207
  168DOPC   H6Y20449   2.832   1.374  12.496 -0.4016 -1.8197  1.1799
  168DOPC   C3720450   3.011   1.450  12.400  1.3866  0.0182 -0.5127
  168DOPC   H7X20451   2.979   1.554  12.421 -3.0875 -0.8279 -2.0669
  168DOPC   H7Y20452   3.122   1.440  12.399  1.2168 -3.1862  0.9661
  168DOPC   C3820453   2.965   1.424  12.255  0.6155 -0.3017  0.2847
  168DOPC   H8X20454   2.855   1.437  12.248  0.5579 -0.8141  0.2273
  168DOPC   H8Y20455   2.976   1.314  12.246  1.3148 -0.5334  3.1245
  168DOPC   C3920456   3.048   1.485  12.146 -0.4154 -0.3293 -0.9483
  168DOPC   H9X20457   3.154   1.496  12.173 -1.1351 -0.8342  2.4879
  168DOPC  C31020458   3.008   1.553  12.037 -0.8392 -0.1802  0.8365
  168DOPC  H10X20459   3.088   1.600  11.979 -0.1919 -1.1959  0.8903
  168DOPC  C31120460   2.866   1.568  11.989  1.1964 -0.1981  0.2112
  168DOPC  H11X20461   2.827   1.669  12.011  2.2729  0.3365 -0.2362
  168DOPC  H11Y20462   2.790   1.511  12.046 -1.4501  1.1882 -1.7302
  168DOPC  C31220463   2.842   1.529  11.838 -0.3388  0.8908 -0.9398
  168DOPC  H12X20464   2.743   1.560  11.798  0.2076 -0.5757 -3.7062
  168DOPC  H12Y20465   2.835   1.418  11.832  0.7372  0.8766 -3.0266
  168DOPC  C31320466   2.948   1.588  11.744  0.7546  0.2327  0.0588
  168DOPC  H13X20467   2.959   1.693  11.779  2.1638  0.1198  0.0082
  168DOPC  H13Y20468   3.046   1.538  11.760  0.9417  0.3648 -0.6090
  168DOPC  C31420469   2.898   1.563  11.602 -0.2106 -0.1509 -0.3775
  168DOPC  H14X20470   2.902   1.455  11.577 -1.9343 -0.4016  0.2514
  168DOPC  H14Y20471   2.791   1.594  11.602  0.2667  1.5860 -0.1421
  168DOPC  C31520472   2.981   1.639  11.503  0.3315  0.0687  0.3773
  168DOPC  H15X20473   3.090   1.625  11.518  0.7051 -0.2869 -2.1415
  168DOPC  H15Y20474   2.948   1.745  11.512 -0.3078 -0.0774 -0.1784
  168DOPC  C31620475   2.966   1.592  11.355  0.2090  0.4430 -0.3364
  168DOPC  H16X20476   2.998   1.486  11.359  1.2731  0.7770  0.2445
  168DOPC  H16Y20477   2.861   1.608  11.322 -0.0757 -0.1337  0.2636
  168DOPC  C31720478   3.066   1.664  11.263 -0.3422  0.7660 -0.0113
  168DOPC  H17X20479   3.045   1.773  11.258  0.0708  0.8075 -2.5830
  168DOPC  H17Y20480   3.172   1.648  11.293 -1.0873 -0.8975  1.8828
  168DOPC  C31820481   3.056   1.617  11.111 -0.1988  0.1744 -0.0600
  168DOPC  H18X20482   3.047   1.507  11.097  0.0364  0.2289 -0.6711
  168DOPC  H18Y20483   2.964   1.661  11.066 -0.1101 -0.0107 -0.4268
  168DOPC  H18Z20484   3.138   1.660  11.049  0.0342  0.8914  0.7292
  169DOPC     N20485   0.468   2.230  14.117 -0.2939 -0.1174 -0.5193
  169DOPC   C1220486   0.573   2.183  14.016 -0.0382 -0.1202 -0.4930
  169DOPC  H12A20487   0.558   2.076  14.010  0.0535 -0.1744  0.1771
  169DOPC  H12B20488   0.672   2.199  14.057 -0.3950 -0.5129  0.5609
  169DOPC   C1320489   0.469   2.157  14.248  0.4334 -0.5942  0.3469
  169DOPC  H13A20490   0.387   2.192  14.308 -0.0225 -0.1434 -0.5135
  169DOPC  H13B20491   0.448   2.052  14.239  0.9941 -0.6672 -0.1898
  169DOPC  H13C20492   0.567   2.165  14.292  1.3347  1.4141 -1.7632
  169DOPC   C1420493   0.337   2.226  14.048 -0.2301 -0.2735  0.8017
  169DOPC  H14A20494   0.303   2.124  14.034  2.6756 -1.5128  1.9879
  169DOPC  H14B20495   0.265   2.288  14.098 -0.3876  0.2490 -0.0578
  169DOPC  H14C20496   0.340   2.262  13.946  2.3848  1.8294  1.5172
  169DOPC   C1520497   0.498   2.376  14.162  0.2154  0.9818  0.6660
  169DOPC  H15A20498   0.592   2.381  14.215  0.7942 -0.9491 -0.1133
  169DOPC  H15B20499   0.412   2.415  14.215  0.6932  2.2019  0.5743
  169DOPC  H15C20500   0.502   2.432  14.070  1.4713  0.7314  0.5608
  169DOPC   C1120501   0.574   2.247  13.876 -0.3349 -1.2747 -0.2306
  169DOPC  H11A20502   0.630   2.181  13.807 -1.4280 -1.6536 -0.7874
  169DOPC  H11B20503   0.476   2.229  13.827 -0.0967  0.0114 -1.2448
  169DOPC     P20504   0.752   2.430  13.867  0.1228 -0.3825  0.2201
  169DOPC   O1320505   0.835   2.349  13.964  0.2796 -0.4186 -0.3466
  169DOPC   O1420506   0.758   2.579  13.865  0.0252 -0.0728  0.0780
  169DOPC   O1220507   0.601   2.391  13.869  0.9430 -0.2741 -1.1405
  169DOPC   O1120508   0.796   2.379  13.718  0.3239 -0.5193  0.4897
  169DOPC    C120509   0.712   2.411  13.610 -0.3148 -0.6910  0.2628
  169DOPC    HA20510   0.719   2.519  13.586  2.3168 -0.7660  0.4584
  169DOPC    HB20511   0.606   2.397  13.640  0.1423  0.6306  2.7854
  169DOPC    C220512   0.745   2.321  13.481 -0.0409  0.0251 -0.3101
  169DOPC    HS20513   0.837   2.366  13.439 -0.3225 -0.3323 -1.3420
  169DOPC   O2120514   0.631   2.328  13.392  0.0488  0.6421 -0.6172
  169DOPC   C2120515   0.632   2.432  13.309 -0.5876  0.2782 -0.3655
  169DOPC   O2220516   0.715   2.524  13.312 -0.9718 -0.3206 -0.6835
  169DOPC   C2220517   0.526   2.416  13.210  0.2157 -1.3575  0.2803
  169DOPC   H2R20518   0.437   2.431  13.274  0.3913 -0.5972  0.3570
  169DOPC   H2S20519   0.519   2.315  13.165 -0.2895 -0.1258 -2.6466
  169DOPC    C320520   0.770   2.171  13.510  0.1258  0.3616 -0.4295
  169DOPC    HX20521   0.674   2.125  13.545  0.8455  0.0900  1.2971
  169DOPC    HY20522   0.839   2.166  13.597 -3.1098 -4.0251  2.3617
  169DOPC   O3120523   0.814   2.105  13.391 -0.0503  0.4040 -0.0345
  169DOPC   C3120524   0.939   2.082  13.364 -0.1792 -0.8675 -0.0577
  169DOPC   O3220525   1.026   2.102  13.451 -0.5463 -0.0640  0.7996
  169DOPC   C3220526   0.967   2.044  13.219  1.0234  0.2434  0.1467
  169DOPC   H2X20527   0.876   2.082  13.168 -0.0331 -2.1109  0.1521
  169DOPC   H2Y20528   1.052   2.109  13.189 -1.2614  2.5861 -1.7067
  169DOPC   C2320529   0.542   2.520  13.099  0.4230 -0.2160  0.0200
  169DOPC   H3R20530   0.566   2.621  13.140  3.5503 -1.1162  0.6414
  169DOPC   H3S20531   0.434   2.533  13.074 -0.2759 -1.6542  2.0672
  169DOPC   C2420532   0.622   2.494  12.969  0.5062  0.4372 -0.4781
  169DOPC   H4R20533   0.571   2.406  12.923  0.2960  0.8822 -1.1087
  169DOPC   H4S20534   0.727   2.466  12.990 -0.2936 -2.2582  0.3441
  169DOPC   C2520535   0.621   2.610  12.881 -0.1534 -0.3471  0.4663
  169DOPC   H5R20536   0.637   2.702  12.940 -1.6611 -0.3194  0.8781
  169DOPC   H5S20537   0.526   2.599  12.825  0.8434  1.0333 -1.6290
  169DOPC   C2620538   0.726   2.599  12.778 -0.1605 -0.2119  0.5991
  169DOPC   H6R20539   0.696   2.516  12.711  3.2881  0.6872 -2.4182
  169DOPC   H6S20540   0.820   2.569  12.828 -0.6541 -0.2344  1.5432
  169DOPC   C2720541   0.747   2.731  12.698  0.5807  0.2629  0.0158
  169DOPC   H7R20542   0.850   2.721  12.656  0.2197 -1.5530 -0.5537
  169DOPC   H7S20543   0.749   2.812  12.773 -0.1597 -0.4469  0.8149
  169DOPC   C2820544   0.647   2.759  12.583  0.8174  0.3851 -0.0165
  169DOPC   H8R20545   0.547   2.729  12.620  1.0243 -1.1709 -0.6476
  169DOPC   H8S20546   0.673   2.685  12.505  1.6811 -0.8186  1.3743
  169DOPC   C2920547   0.669   2.899  12.549 -0.6771  0.9308 -0.2882
  169DOPC   H9R20548   0.651   2.977  12.625 -0.7467  2.1730 -1.5215
  169DOPC  C21020549   0.709   2.935  12.422 -0.1133 -0.1010  0.0280
  169DOPC  H10R20550   0.711   3.042  12.396 -2.2521  0.0006  0.0902
  169DOPC  C21120551   0.725   2.852  12.298 -0.1684  0.3624  0.5712
  169DOPC  H11R20552   0.726   2.743  12.320 -0.0963  0.2191 -0.0931
  169DOPC  H11S20553   0.820   2.892  12.258  0.5873  0.9270  2.8165
  169DOPC  C21220554   0.610   2.893  12.205  0.0109  0.2150 -0.3151
  169DOPC  H12R20555   0.616   3.002  12.184  0.6075  0.1782 -0.3453
  169DOPC  H12S20556   0.512   2.867  12.251  0.3016  2.5017  1.7753
  169DOPC  C21320557   0.630   2.834  12.068  0.2049 -0.3584  0.1832
  169DOPC  H13R20558   0.632   2.724  12.082  0.7638 -0.3765  0.0050
  169DOPC  H13S20559   0.730   2.867  12.031 -0.5010  1.7971  0.0471
  169DOPC  C21420560   0.522   2.881  11.982 -0.8895  0.3024 -0.0814
  169DOPC  H14R20561   0.511   2.991  11.983 -2.6574  0.2312 -2.5308
  169DOPC  H14S20562   0.426   2.850  12.028 -0.2759  0.7783  1.5676
  169DOPC  C21520563   0.521   2.817  11.837  0.2659  0.6958  0.3136
  169DOPC  H15R20564   0.414   2.800  11.811 -0.2262  1.9002  1.4503
  169DOPC  H15S20565   0.570   2.718  11.848 -0.3478 -0.1072 -3.0820
  169DOPC  C21620566   0.592   2.905  11.732  0.7135  0.6086  0.2389
  169DOPC  H16R20567   0.540   3.002  11.717  1.0383  0.6625 -0.5437
  169DOPC  H16S20568   0.585   2.853  11.635  3.2748 -0.1494  0.3937
  169DOPC  C21720569   0.741   2.931  11.763  0.9448 -0.3684  0.2379
  169DOPC  H17R20570   0.787   2.835  11.797  0.7997 -0.6227 -0.2616
  169DOPC  H17S20571   0.754   3.002  11.847  0.1874  1.9212 -1.4628
  169DOPC  C21820572   0.816   2.979  11.645 -1.0117  0.0046 -0.3542
  169DOPC  H18R20573   0.783   3.082  11.619  1.3059  0.0195 -3.8196
  169DOPC  H18S20574   0.789   2.923  11.552  0.7060 -1.3713 -0.0746
  169DOPC  H18T20575   0.924   2.963  11.662 -1.7769 -2.0335  3.8721
  169DOPC   C3320576   0.991   1.891  13.218 -0.4094 -0.1215 -0.5817
  169DOPC   H3X20577   0.895   1.844  13.252  0.6072 -1.7770  0.1401
  169DOPC   H3Y20578   1.072   1.848  13.280  0.8115  2.2120 -0.4681
  169DOPC   C3420579   1.016   1.828  13.079  0.2251  0.8019  0.1756
  169DOPC   H4X20580   1.089   1.897  13.032  0.2863 -0.4316 -1.6280
  169DOPC   H4Y20581   0.924   1.848  13.019 -0.2236  4.2066  1.7228
  169DOPC   C3520582   1.061   1.687  13.067 -0.4811  0.8206  0.3886
  169DOPC   H5X20583   0.986   1.606  13.073  1.6747 -1.3223  0.1221
  169DOPC   H5Y20584   1.131   1.661  13.149  2.3663  1.6449 -1.6225
  169DOPC   C3620585   1.156   1.664  12.947 -0.0535 -0.0992 -0.2042
  169DOPC   H6X20586   1.093   1.691  12.859  0.0764  1.1615  0.0575
  169DOPC   H6Y20587   1.239   1.738  12.938  0.3164 -0.6151 -1.2907
  169DOPC   C3720588   1.212   1.522  12.957 -0.0213  0.8788  0.1037
  169DOPC   H7X20589   1.284   1.522  13.041 -0.1292 -1.1154  0.2351
  169DOPC   H7Y20590   1.123   1.460  12.983  0.7361 -0.0229  0.6225
  169DOPC   C3820591   1.289   1.471  12.832  0.0735 -0.0255 -0.0339
  169DOPC   H8X20592   1.389   1.518  12.828  0.3128 -0.6047 -1.1482
  169DOPC   H8Y20593   1.232   1.505  12.743  1.3669  1.1180 -0.4498
  169DOPC   C3920594   1.307   1.326  12.837 -0.2986 -0.4887 -0.3893
  169DOPC   H9X20595   1.323   1.292  12.940 -4.5630  0.1439  0.6534
  169DOPC  C31020596   1.320   1.236  12.736 -0.4348 -0.0403  0.0379
  169DOPC  H10X20597   1.340   1.130  12.753  2.1671  0.3267 -0.4338
  169DOPC  C31120598   1.314   1.267  12.584 -0.1718 -0.4257 -0.1188
  169DOPC  H11X20599   1.411   1.314  12.556  0.2627 -0.2906  1.5170
  169DOPC  H11Y20600   1.233   1.338  12.559 -1.6065 -1.3437  1.6389
  169DOPC  C31220601   1.287   1.140  12.501  0.0823 -0.4608  0.5995
  169DOPC  H12X20602   1.317   1.052  12.561  1.4911 -0.2049  0.3074
  169DOPC  H12Y20603   1.345   1.135  12.406 -0.2841 -2.2923  0.4456
  169DOPC  C31320604   1.134   1.117  12.473  0.1968  0.1670 -0.1804
  169DOPC  H13X20605   1.072   1.102  12.564 -2.6963 -0.3103 -2.0938
  169DOPC  H13Y20606   1.106   1.210  12.419 -1.1638 -1.5730 -2.6521
  169DOPC  C31420607   1.120   0.991  12.383  1.0341 -0.6191  0.7663
  169DOPC  H14X20608   1.025   0.991  12.325 -0.7003  1.7374  3.3391
  169DOPC  H14Y20609   1.204   0.993  12.311 -0.1294 -0.5345 -0.6164
  169DOPC  C31520610   1.127   0.861  12.466  0.3999  0.1316 -0.1563
  169DOPC  H15X20611   1.063   0.861  12.557 -0.5897  2.0564 -0.7921
  169DOPC  H15Y20612   1.233   0.839  12.489 -0.0172 -0.0729  1.8066
  169DOPC  C31620613   1.068   0.746  12.382 -1.2221 -0.5868 -0.1634
  169DOPC  H16X20614   0.957   0.747  12.387 -1.2184  0.6858 -0.0569
  169DOPC  H16Y20615   1.097   0.770  12.277  0.3346  0.0021  0.3631
  169DOPC  C31720616   1.114   0.604  12.421  0.1865  0.2646 -0.2659
  169DOPC  H17X20617   1.225   0.604  12.425  0.2529 -2.6617  1.5142
  169DOPC  H17Y20618   1.079   0.578  12.524  0.7962 -0.4189 -0.2258
  169DOPC  C31820619   1.072   0.495  12.319 -0.4781 -0.4553  0.5315
  169DOPC  H18X20620   0.961   0.493  12.317 -0.5847  1.7396  1.2527
  169DOPC  H18Y20621   1.098   0.535  12.219 -0.2126  1.0803  1.1774
  169DOPC  H18Z20622   1.128   0.403  12.346  0.6901  0.9005  3.1417
  170DOPC     N20623   1.458   1.138  14.057  0.5126 -0.1015  0.3942
  170DOPC   C1220624   1.499   1.175  13.916  0.0349  0.3467 -0.3272
  170DOPC  H12A20625   1.591   1.125  13.886 -1.1740 -1.3665 -1.3924
  170DOPC  H12B20626   1.523   1.280  13.917 -1.8400  0.8106 -0.0544
  170DOPC   C1320627   1.556   1.188  14.158  0.3135  0.4149  0.0743
  170DOPC  H13A20628   1.533   1.156  14.259 -1.4789  0.8720 -0.1707
  170DOPC  H13B20629   1.658   1.166  14.128 -0.0574 -0.3315 -0.6777
  170DOPC  H13C20630   1.550   1.295  14.166 -0.5093  0.3737  0.1147
  170DOPC   C1420631   1.451   0.987  14.068  0.2852  0.0491 -0.2295
  170DOPC  H14A20632   1.543   0.942  14.034 -0.0128 -1.0965  0.4425
  170DOPC  H14B20633   1.452   0.954  14.170  1.1561 -1.1450 -0.5971
  170DOPC  H14C20634   1.366   0.949  14.013  0.8750 -1.0664 -0.3772
  170DOPC   C1520635   1.327   1.210  14.086 -0.3862 -0.3872 -0.2180
  170DOPC  H15A20636   1.272   1.161  14.165  0.9218 -0.0367  0.9567
  170DOPC  H15B20637   1.262   1.214  14.000  0.7252 -1.4883 -1.1365
  170DOPC  H15C20638   1.350   1.312  14.114  1.5172 -0.9940  0.5724
  170DOPC   C1120639   1.405   1.150  13.801  0.4473 -0.1338  0.1893
  170DOPC  H11A20640   1.299   1.181  13.816 -0.2769 -2.4757  0.3778
  170DOPC  H11B20641   1.447   1.218  13.724 -0.9718  1.0864  0.4409
  170DOPC     P20642   1.514   0.949  13.680 -0.1449  0.0526  0.1110
  170DOPC   O1320643   1.451   0.853  13.591  0.1486 -0.5438  0.2100
  170DOPC   O1420644   1.614   0.896  13.772 -0.4080  0.0672  0.2418
  170DOPC   O1220645   1.401   1.019  13.757  1.0755  0.6096  0.4221
  170DOPC   O1120646   1.579   1.063  13.588 -1.0101  0.0159  0.2527
  170DOPC    C120647   1.495   1.119  13.480 -1.0440 -0.4682 -0.1751
  170DOPC    HA20648   1.536   1.219  13.453  0.6609 -1.5431 -1.8859
  170DOPC    HB20649   1.391   1.132  13.516 -1.7376 -0.1420 -2.1557
  170DOPC    C220650   1.489   1.033  13.345  0.3854 -0.1514 -0.1795
  170DOPC    HS20651   1.457   0.931  13.372 -0.5278  0.1313 -0.1432
  170DOPC   O2120652   1.626   1.028  13.291 -0.3810  0.8210 -0.4092
  170DOPC   C2120653   1.645   0.906  13.229 -0.3070 -0.2793  0.6514
  170DOPC   O2220654   1.561   0.814  13.227 -0.3033  0.1055 -0.0917
  170DOPC   C2220655   1.780   0.903  13.148  0.5013 -0.0824 -0.1358
  170DOPC   H2R20656   1.850   0.882  13.231  0.0320  1.5196  0.7210
  170DOPC   H2S20657   1.798   1.003  13.102  0.0060 -0.0115 -0.1795
  170DOPC    C320658   1.382   1.101  13.248  0.2357  0.1770 -0.9273
  170DOPC    HX20659   1.428   1.197  13.214 -1.1232  0.7295 -1.2731
  170DOPC    HY20660   1.289   1.116  13.306  1.8781  2.0359  1.4649
  170DOPC   O3120661   1.363   1.014  13.136  0.5568  0.0564  0.7240
  170DOPC   C3120662   1.279   0.907  13.151  0.0494 -0.8638  0.1858
  170DOPC   O3220663   1.220   0.881  13.253 -0.0344  0.3497  0.4068
  170DOPC   C3220664   1.272   0.835  13.019  0.5443  0.6400  1.3405
  170DOPC   H2X20665   1.216   0.902  12.951  2.4744  0.7160 -0.2657
  170DOPC   H2Y20666   1.377   0.821  12.985 -0.1213  0.9502 -1.0236
  170DOPC   C2320667   1.792   0.803  13.026 -0.0973  0.0656 -0.5769
  170DOPC   H3R20668   1.781   0.701  13.069 -3.1826  0.5477  0.0235
  170DOPC   H3S20669   1.897   0.812  12.992  0.1693  0.4385  0.3004
  170DOPC   C2420670   1.696   0.819  12.916  0.3671 -0.1342 -0.2063
  170DOPC   H4R20671   1.599   0.828  12.969  0.0012  1.8531 -1.1138
  170DOPC   H4S20672   1.692   0.733  12.846  0.0156 -1.6908  1.6306
  170DOPC   C2520673   1.704   0.958  12.840  0.3983  0.1629 -0.7851
  170DOPC   H5R20674   1.804   0.959  12.791  0.3519 -0.2407 -0.8903
  170DOPC   H5S20675   1.690   1.032  12.922 -0.6882 -0.9012  0.0269
  170DOPC   C2620676   1.588   0.975  12.746  0.0521  0.0501  0.0124
  170DOPC   H6R20677   1.595   1.082  12.717 -0.6872  0.2968  0.7110
  170DOPC   H6S20678   1.489   0.968  12.796  0.6067 -0.9127  1.0130
  170DOPC   C2720679   1.592   0.879  12.626  0.3291 -0.5874 -0.8212
  170DOPC   H7R20680   1.495   0.902  12.576 -0.3699 -0.2029  0.6389
  170DOPC   H7S20681   1.588   0.772  12.655  1.5054 -0.2052  0.8908
  170DOPC   C2820682   1.704   0.912  12.524  0.0316 -0.0579 -0.2144
  170DOPC   H8R20683   1.709   0.845  12.436  0.8226 -2.3116  1.4408
  170DOPC   H8S20684   1.802   0.900  12.575 -0.4058  1.8445  1.1939
  170DOPC   C2920685   1.700   1.064  12.490 -0.1112 -0.2363  0.0748
  170DOPC   H9R20686   1.760   1.123  12.560 -0.3731 -1.0835  1.0491
  170DOPC  C21020687   1.650   1.124  12.381 -0.5495  0.3480  0.1431
  170DOPC  H10R20688   1.671   1.230  12.363  1.8770 -0.5269 -2.9327
  170DOPC  C21120689   1.589   1.036  12.270 -0.2230  0.1530  0.3084
  170DOPC  H11R20690   1.484   1.063  12.248  0.1889  2.9349  1.3398
  170DOPC  H11S20691   1.593   0.925  12.277  2.6855  0.2239  1.1658
  170DOPC  C21220692   1.668   1.060  12.138  0.1322  0.0961 -0.1760
  170DOPC  H12R20693   1.778   1.052  12.155  0.0169 -0.9657  0.1746
  170DOPC  H12S20694   1.643   1.160  12.096 -0.3058 -0.6221 -1.7204
  170DOPC  C21320695   1.626   0.958  12.033 -0.0703  0.2736  0.8038
  170DOPC  H13R20696   1.517   0.972  12.017  0.2722  1.4686 -0.7091
  170DOPC  H13S20697   1.636   0.850  12.056 -0.7689 -0.1365 -0.7289
  170DOPC  C21420698   1.692   0.976  11.895  0.0360  0.5875 -0.6871
  170DOPC  H14R20699   1.794   0.933  11.906 -1.2233 -2.4634  0.1153
  170DOPC  H14S20700   1.696   1.085  11.873  0.3880  0.4187 -1.5142
  170DOPC  C21520701   1.636   0.901  11.776  1.0038 -0.0840 -0.6830
  170DOPC  H15R20702   1.621   0.793  11.795  0.7572  0.2476  1.2414
  170DOPC  H15S20703   1.702   0.913  11.688  0.9696 -0.3162 -0.7404
  170DOPC  C21620704   1.491   0.947  11.735  0.4937 -0.6000  0.1600
  170DOPC  H16R20705   1.500   1.057  11.743  1.9372 -0.7177  0.4167
  170DOPC  H16S20706   1.425   0.933  11.824 -1.6598 -0.4621 -1.3280
  170DOPC  C21720707   1.449   0.897  11.600  0.2835 -0.5972 -0.0006
  170DOPC  H17R20708   1.433   0.787  11.613 -1.0290 -0.2650  1.3593
  170DOPC  H17S20709   1.533   0.903  11.528  0.5946 -0.2349  0.3863
  170DOPC  C21820710   1.317   0.954  11.546 -0.1399  0.0169 -1.0081
  170DOPC  H18R20711   1.276   0.884  11.470 -2.2924  0.9135 -0.7456
  170DOPC  H18S20712   1.321   1.054  11.499  1.0263  0.9641  0.9783
  170DOPC  H18T20713   1.239   0.961  11.626  0.1967 -0.8820 -0.5771
  170DOPC   C3320714   1.199   0.696  13.032  0.5216 -0.4463  0.0431
  170DOPC   H3X20715   1.223   0.656  13.134  1.2791  1.4091  0.6297
  170DOPC   H3Y20716   1.245   0.620  12.965 -1.8368 -2.5879  0.6944
  170DOPC   C3420717   1.048   0.692  13.019  0.6258 -0.7939  0.0954
  170DOPC   H4X20718   1.011   0.587  13.017 -0.5006 -0.4117 -0.0579
  170DOPC   H4Y20719   1.020   0.737  12.921  2.4727  0.4818  0.0922
  170DOPC   C3520720   0.978   0.750  13.146 -0.2317 -0.1090  0.1134
  170DOPC   H5X20721   0.993   0.859  13.135  0.5334 -0.1461  0.6910
  170DOPC   H5Y20722   1.050   0.727  13.228  1.0010  1.0064 -0.6034
  170DOPC   C3620723   0.838   0.705  13.170 -0.1436 -1.1596  0.2584
  170DOPC   H6X20724   0.780   0.726  13.078 -0.8012 -2.6807  0.3049
  170DOPC   H6Y20725   0.840   0.595  13.178 -0.3309 -1.1331  0.7522
  170DOPC   C3720726   0.784   0.768  13.298 -0.0668 -0.1798 -0.3556
  170DOPC   H7X20727   0.819   0.715  13.389 -1.6269 -0.6263  0.0098
  170DOPC   H7Y20728   0.833   0.868  13.295  0.5925 -0.5242 -1.8981
  170DOPC   C3820729   0.627   0.785  13.312  0.5746  0.8560 -0.0039
  170DOPC   H8X20730   0.591   0.841  13.223 -1.1491  1.8759  1.2789
  170DOPC   H8Y20731   0.609   0.847  13.403  0.9364  4.0193 -1.9124
  170DOPC   C3920732   0.549   0.657  13.332  0.0942 -0.3279 -0.0455
  170DOPC   H9X20733   0.583   0.599  13.419 -1.1504 -0.9695  0.0334
  170DOPC  C31020734   0.462   0.598  13.250  0.0658  0.4706  0.2224
  170DOPC  H10X20735   0.431   0.494  13.266  0.4467 -0.0872 -2.2979
  170DOPC  C31120736   0.405   0.657  13.131 -0.6060 -0.5790 -0.3687
  170DOPC  H11X20737   0.420   0.591  13.043 -0.2739 -0.1605 -0.6350
  170DOPC  H11Y20738   0.452   0.753  13.100 -1.3498 -0.6107 -1.6699
  170DOPC  C31220739   0.254   0.690  13.163 -0.0141  0.0935 -0.0677
  170DOPC  H12X20740   0.240   0.735  13.264 -1.1074  1.9304 -0.9735
  170DOPC  H12Y20741   0.199   0.594  13.155 -0.5734  0.4744 -0.9207
  170DOPC  C31320742   0.189   0.788  13.065  0.3752 -0.0444  0.1866
  170DOPC  H13X20743   0.079   0.792  13.080 -0.0485 -2.5422 -1.7264
  170DOPC  H13Y20744   0.240   0.886  13.081  0.2069 -0.1013  1.1095
  170DOPC  C31420745   0.221   0.771  12.911  0.7517  0.4617 -0.0003
  170DOPC  H14X20746   0.179   0.865  12.869  0.2145  0.1344 -0.2170
  170DOPC  H14Y20747   0.331   0.760  12.907  0.5886 -2.4461  1.1648
  170DOPC  C31520748   0.149   0.645  12.859  0.0107  0.3719 -0.1669
  170DOPC  H15X20749   0.043   0.652  12.890  0.4065  0.1017  1.2794
  170DOPC  H15Y20750   0.197   0.552  12.895 -3.0772 -1.1149  0.3670
  170DOPC  C31620751   0.152   0.639  12.707 -0.1672  0.0829 -0.1902
  170DOPC  H16X20752   0.097   0.721  12.656 -1.3204 -0.9569 -0.6463
  170DOPC  H16Y20753   0.262   0.643  12.692  0.2372  0.1516  2.3125
  170DOPC  C31720754   0.084   0.517  12.643  0.3410 -1.1208  0.0037
  170DOPC  H17X20755   0.135   0.428  12.687  0.8961 -1.4924 -1.3621
  170DOPC  H17Y20756  -0.024   0.510  12.670 -0.2405 -0.1232 -1.8729
  170DOPC  C31820757   0.090   0.522  12.492 -0.4863 -0.5503 -0.1505
  170DOPC  H18X20758   0.192   0.526  12.450  0.0760  1.9855  1.2367
  170DOPC  H18Y20759   0.039   0.431  12.454  1.1516 -1.7424  0.3862
  170DOPC  H18Z20760   0.038   0.610  12.449 -0.9395  0.1399  1.7301
  171DOPC     N20761   4.743   4.219   8.253 -0.0166 -0.3928 -0.0710
  171DOPC   C1220762   4.611   4.210   8.328  1.0270 -0.1339  0.0926
  171DOPC  H12A20763   4.584   4.107   8.343  0.6830 -0.0108  0.3420
  171DOPC  H12B20764   4.541   4.257   8.259  0.6285 -0.2453  0.4155
  171DOPC   C1320765   4.851   4.205   8.360  0.2407 -0.0716  0.6198
  171DOPC  H13A20766   4.945   4.208   8.306  0.4756 -0.2342  1.0104
  171DOPC  H13B20767   4.845   4.291   8.425  1.3076  0.5506 -0.0710
  171DOPC  H13C20768   4.835   4.115   8.418  0.9776 -1.3977 -1.1482
  171DOPC   C1420769   4.756   4.350   8.190  0.0703 -0.5770 -0.2112
  171DOPC  H14A20770   4.844   4.355   8.126 -0.5387  1.3065 -0.9856
  171DOPC  H14B20771   4.671   4.390   8.136  0.7809 -0.3149 -1.1826
  171DOPC  H14C20772   4.767   4.418   8.273 -4.3815 -1.1541  1.0902
  171DOPC   C1520773   4.749   4.115   8.150  0.3458  0.3067 -0.5970
  171DOPC  H15A20774   4.662   4.127   8.087 -1.0337  1.7764  1.4566
  171DOPC  H15B20775   4.753   4.015   8.189 -0.1291  0.2862 -0.6025
  171DOPC  H15C20776   4.838   4.127   8.090  2.0244 -1.6678  1.3255
  171DOPC   C1120777   4.596   4.269   8.468  0.0107 -0.1460  0.1541
  171DOPC  H11A20778   4.488   4.256   8.492 -0.7079  0.3757 -2.5061
  171DOPC  H11B20779   4.662   4.217   8.541  1.5103  0.7813 -0.4999
  171DOPC     P20780   4.725   4.487   8.557 -0.0644 -0.0340  0.3593
  171DOPC   O1320781   4.664   4.622   8.582  0.0618  0.6492 -0.2522
  171DOPC   O1420782   4.859   4.490   8.493  0.3619  0.2398  0.4489
  171DOPC   O1220783   4.629   4.410   8.460  0.0536  0.3951 -0.2173
  171DOPC   O1120784   4.721   4.402   8.696  0.0035  0.2147  0.1101
  171DOPC    C120785   4.603   4.417   8.774 -0.2576  0.5920  0.1605
  171DOPC    HA20786   4.605   4.335   8.848  0.0786  0.8515  0.4432
  171DOPC    HB20787   4.512   4.413   8.710  0.5999 -0.5961 -1.0211
  171DOPC    C220788   4.614   4.548   8.864 -0.2984  0.1004 -0.2766
  171DOPC    HS20789   4.626   4.640   8.803  2.8582 -0.1933 -0.2644
  171DOPC   O2120790   4.729   4.538   8.951 -0.3013 -0.1243  0.2700
  171DOPC   C2120791   4.789   4.645   8.994 -0.3305 -0.0140  0.0078
  171DOPC   O2220792   4.754   4.756   8.952  0.7249  0.1328  0.3284
  171DOPC   C2220793   4.884   4.603   9.111  0.3627  0.3282  0.0429
  171DOPC   H2R20794   4.845   4.658   9.200  0.4033  1.5278 -0.6611
  171DOPC   H2S20795   4.988   4.637   9.091  0.1589  0.5189 -0.7216
  171DOPC    C320796   4.483   4.563   8.952 -0.1306 -0.3892 -0.1319
  171DOPC    HX20797   4.398   4.571   8.881 -0.6301  0.5422  0.5545
  171DOPC    HY20798   4.504   4.655   9.009 -0.2644 -0.7442  0.4982
  171DOPC   O3120799   4.466   4.448   9.034  0.3126  0.1379  0.1016
  171DOPC   C3120800   4.512   4.448   9.166 -0.1556 -0.0585 -0.2345
  171DOPC   O3220801   4.559   4.541   9.230  0.1670 -0.0145  0.2636
  171DOPC   C3220802   4.481   4.316   9.238 -0.3611 -0.1262 -0.4002
  171DOPC   H2X20803   4.378   4.282   9.215 -1.3308  2.2765  0.0565
  171DOPC   H2Y20804   4.555   4.241   9.205 -0.3911 -0.6083  0.5887
  171DOPC   C2320805   4.891   4.445   9.133  0.0754 -0.0027  1.4553
  171DOPC   H3R20806   4.948   4.393   9.053  0.2008  0.3934  1.2893
  171DOPC   H3S20807   4.787   4.407   9.136 -0.1693  0.6924  3.2295
  171DOPC   C2420808   4.957   4.414   9.270 -0.8036 -0.0890 -0.0723
  171DOPC   H4R20809   5.065   4.440   9.266 -0.6126 -0.9946 -2.1621
  171DOPC   H4S20810   4.946   4.305   9.291  2.5478 -0.4010  0.6236
  171DOPC   C2520811   4.907   4.493   9.392 -0.2985 -0.7055  1.1432
  171DOPC   H5R20812   4.799   4.505   9.369 -0.2094 -0.9479  0.5727
  171DOPC   H5S20813   4.948   4.596   9.400 -1.0590 -0.3960  1.0964
  171DOPC   C2620814   4.927   4.425   9.521  0.2258  0.1484 -1.0809
  171DOPC   H6R20815   5.017   4.361   9.515  0.5516  0.4684  0.0966
  171DOPC   H6S20816   4.848   4.348   9.530 -0.0395  0.6328  1.6079
  171DOPC   C2720817   4.931   4.523   9.640 -0.4294  0.0145 -0.0526
  171DOPC   H7R20818   4.831   4.562   9.670 -1.1794 -0.2373 -2.0859
  171DOPC   H7S20819   4.996   4.612   9.628 -1.4895  1.0338  1.4153
  171DOPC   C2820820   4.974   4.448   9.764  0.9364  0.5804  0.2457
  171DOPC   H8R20821   5.010   4.522   9.839 -0.8649  0.2146  1.5125
  171DOPC   H8S20822   5.063   4.392   9.728  1.0286 -0.1038  1.4754
  171DOPC   C2920823   4.868   4.356   9.824  0.3493 -0.5654 -0.7937
  171DOPC   H9R20824   4.836   4.281   9.750  0.5133 -1.9112  0.4411
  171DOPC  C21020825   4.831   4.331   9.955 -0.7248 -0.1593 -0.2172
  171DOPC  H10R20826   4.752   4.258   9.975 -0.7338 -0.0247  0.2661
  171DOPC  C21120827   4.901   4.392  10.076 -0.7989  0.4985  0.2082
  171DOPC  H11R20828   4.954   4.487  10.052  1.2897 -1.3884 -3.7596
  171DOPC  H11S20829   4.976   4.325  10.124 -0.5391  2.1425  2.2357
  171DOPC  C21220830   4.788   4.420  10.182 -0.4177 -0.0819  0.4206
  171DOPC  H12R20831   4.713   4.338  10.193 -0.1195 -0.3572  0.4208
  171DOPC  H12S20832   4.729   4.509  10.150  0.5683  0.1337 -0.8984
  171DOPC  C21320833   4.857   4.456  10.315 -0.6213  0.0910 -0.3888
  171DOPC  H13R20834   4.928   4.541  10.303  0.1912  0.2393  3.9124
  171DOPC  H13S20835   4.906   4.368  10.361 -1.2859 -0.9512 -1.6332
  171DOPC  C21420836   4.755   4.496  10.425 -0.3229 -0.3079 -0.1979
  171DOPC  H14R20837   4.672   4.424  10.439 -0.8668  0.1131 -1.1519
  171DOPC  H14S20838   4.706   4.593  10.401 -0.8773 -0.1856  1.3572
  171DOPC  C21520839   4.825   4.522  10.563  0.1479  0.2877  0.6863
  171DOPC  H15R20840   4.904   4.598  10.551  0.5405 -0.2383 -0.1393
  171DOPC  H15S20841   4.862   4.426  10.605  4.1285  0.4671 -1.8811
  171DOPC  C21620842   4.735   4.597  10.671  0.4949  0.0069 -0.1502
  171DOPC  H16R20843   4.638   4.547  10.686 -0.1240  0.6411 -1.7494
  171DOPC  H16S20844   4.703   4.697  10.635  0.8819 -0.0758 -0.7520
  171DOPC  C21720845   4.810   4.604  10.807  0.2280  0.0172  0.5637
  171DOPC  H17R20846   4.910   4.652  10.800 -0.6463  1.7581 -0.4489
  171DOPC  H17S20847   4.827   4.502  10.849  0.6046 -0.8201 -1.4982
  171DOPC  C21820848   4.736   4.676  10.920  0.6511  0.3299  0.4899
  171DOPC  H18R20849   4.693   4.777  10.904 -1.4001 -0.8802 -2.4495
  171DOPC  H18S20850   4.813   4.688  11.000  0.4620 -0.8240  0.8619
  171DOPC  H18T20851   4.652   4.610  10.950  0.2166  0.3156 -0.7159
  171DOPC   C3320852   4.503   4.327   9.392  0.3973 -0.6905 -0.3198
  171DOPC   H3X20853   4.433   4.397   9.442 -1.2018 -2.0759 -0.5179
  171DOPC   H3Y20854   4.606   4.367   9.403 -0.7752  2.4480  0.2119
  171DOPC   C3420855   4.490   4.190   9.470  0.6215 -0.0051 -0.4369
  171DOPC   H4X20856   4.567   4.121   9.429 -0.3691 -0.6421 -1.2844
  171DOPC   H4Y20857   4.396   4.143   9.435  0.2471 -0.3371  0.9649
  171DOPC   C3520858   4.502   4.205   9.621  0.2212  0.2059  0.2881
  171DOPC   H5X20859   4.406   4.252   9.649 -1.1865 -0.6392 -2.7579
  171DOPC   H5Y20860   4.590   4.271   9.636  1.8348 -1.3337 -1.7059
  171DOPC   C3620861   4.528   4.089   9.712  0.2596  0.5298 -0.0380
  171DOPC   H6X20862   4.454   4.008   9.691  0.6142  0.0884  0.3793
  171DOPC   H6Y20863   4.630   4.046   9.698  0.1489  0.8301 -2.0688
  171DOPC   C3720864   4.515   4.127   9.860 -0.4889 -0.0461 -0.4306
  171DOPC   H7X20865   4.537   4.236   9.861 -0.0169 -0.0965 -2.3753
  171DOPC   H7Y20866   4.410   4.107   9.888 -0.7134  0.9421 -0.5222
  171DOPC   C3820867   4.608   4.047   9.963  0.3666 -1.0230 -0.0180
  171DOPC   H8X20868   4.610   4.107  10.056 -2.3586 -0.4065 -0.2648
  171DOPC   H8Y20869   4.709   4.065   9.920  0.5899  0.5470  1.0770
  171DOPC   C3920870   4.567   3.908   9.987  0.2987  0.7078 -0.3156
  171DOPC   H9X20871   4.560   3.846   9.896 -0.5626  0.3849 -0.0385
  171DOPC  C31020872   4.546   3.847  10.110  0.0587 -0.6267  0.4523
  171DOPC  H10X20873   4.519   3.741  10.102 -0.3899 -0.4073 -1.6498
  171DOPC  C31120874   4.534   3.911  10.250 -0.4037  0.8210  0.2882
  171DOPC  H11X20875   4.474   3.852  10.322  0.3369 -1.6104 -0.9734
  171DOPC  H11Y20876   4.488   4.012  10.242  1.9830  1.9523  0.0249
  171DOPC  C31220877   4.676   3.932  10.318  0.0781 -0.0731  0.2306
  171DOPC  H12X20878   4.730   4.012  10.263  1.2041 -1.3851 -0.6476
  171DOPC  H12Y20879   4.741   3.842  10.311  0.5055  0.2567 -0.1226
  171DOPC  C31320880   4.661   3.968  10.470 -0.7499 -0.4385  0.5150
  171DOPC  H13X20881   4.621   4.070  10.484  0.3276  0.1080 -0.2291
  171DOPC  H13Y20882   4.583   3.895  10.502  0.9203 -2.2161  0.7240
  171DOPC  C31420883   4.790   3.942  10.541 -0.4441 -0.8139  0.3511
  171DOPC  H14X20884   4.763   3.935  10.649  1.0921  3.9684  1.2982
  171DOPC  H14Y20885   4.828   3.846  10.500  0.1384 -0.7660  0.7641
  171DOPC  C31520886   4.899   4.054  10.525  0.0386  0.3135 -0.5292
  171DOPC  H15X20887   4.869   4.149  10.574  1.0636  0.6145 -0.4594
  171DOPC  H15Y20888   4.904   4.064  10.414 -0.7961 -3.7675 -1.0779
  171DOPC  C31620889   5.031   4.016  10.591 -1.3126  0.1549 -1.0115
  171DOPC  H16X20890   5.018   4.024  10.701  0.4217  0.2690 -0.7895
  171DOPC  H16Y20891   5.057   3.913  10.560  2.4175  0.7928 -0.4892
  171DOPC  C31720892   5.146   4.114  10.553 -0.1206  0.7943 -0.0829
  171DOPC  H17X20893   5.147   4.110  10.442  2.2164 -1.5820 -0.0737
  171DOPC  H17Y20894   5.117   4.218  10.579  2.1966  0.8667  2.6480
  171DOPC  C31820895   5.279   4.074  10.609 -0.1181 -0.5765 -0.0386
  171DOPC  H18X20896   5.280   4.064  10.720  0.2559 -0.6061 -0.0418
  171DOPC  H18Y20897   5.308   3.977  10.563  1.5549  0.0384 -0.3393
  171DOPC  H18Z20898   5.357   4.146  10.577  0.0989 -0.8069 -0.0329
  172DOPC     N20899   4.463   5.085   9.159 -0.4422 -0.4089 -0.4952
  172DOPC   C1220900   4.314   5.061   9.190 -0.9473 -0.6108  0.5529
  172DOPC  H12A20901   4.306   4.991   9.271  0.7274 -0.2952  1.0172
  172DOPC  H12B20902   4.270   5.014   9.103 -1.9412 -0.7334  1.1097
  172DOPC   C1320903   4.485   5.147   9.025  0.5016  0.0082  0.1461
  172DOPC  H13A20904   4.591   5.148   9.002  0.5743 -1.9874  0.2156
  172DOPC  H13B20905   4.438   5.101   8.939  1.1629  3.6266 -2.3644
  172DOPC  H13C20906   4.452   5.249   9.016  1.2661  0.1243 -1.7277
  172DOPC   C1420907   4.533   4.950   9.165 -0.2158 -0.5665  0.5545
  172DOPC  H14A20908   4.518   4.882   9.247  1.1821 -0.1816  1.1534
  172DOPC  H14B20909   4.508   4.900   9.072  1.3345 -1.6529  0.6956
  172DOPC  H14C20910   4.640   4.963   9.165 -0.4374  1.6044  0.8405
  172DOPC   C1520911   4.526   5.172   9.264 -0.6258  0.1876  0.4723
  172DOPC  H15A20912   4.619   5.210   9.226 -0.5318 -1.2109 -0.7927
  172DOPC  H15B20913   4.538   5.125   9.360  0.3320  1.3556  0.9521
  172DOPC  H15C20914   4.473   5.263   9.289  2.3518  2.3606 -0.5133
  172DOPC   C1120915   4.218   5.177   9.226  0.1067 -0.1824  0.3609
  172DOPC  H11A20916   4.121   5.129   9.249  0.9535 -1.6756  0.9706
  172DOPC  H11B20917   4.252   5.230   9.318  1.1699  0.0242 -0.1371
  172DOPC     P20918   4.111   5.401   9.117  0.4618  0.4937 -0.2433
  172DOPC   O1320919   3.972   5.350   9.095 -0.5056 -0.1319  0.2236
  172DOPC   O1420920   4.157   5.497   9.015 -0.1208 -0.8664  0.7116
  172DOPC   O1220921   4.210   5.271   9.117 -0.5528 -0.4952 -0.5613
  172DOPC   O1120922   4.124   5.465   9.264  0.4106  0.0801 -0.0343
  172DOPC    C120923   4.246   5.526   9.306 -0.8160  0.0161  0.4762
  172DOPC    HA20924   4.266   5.617   9.244 -0.8271 -0.3438 -0.0666
  172DOPC    HB20925   4.327   5.450   9.298 -0.9644 -0.2923  1.7213
  172DOPC    C220926   4.235   5.572   9.446  0.6366  0.4586 -0.6640
  172DOPC    HS20927   4.328   5.623   9.476  0.9178 -0.9359  0.9910
  172DOPC   O2120928   4.207   5.467   9.536  0.4543 -0.5461 -0.6134
  172DOPC   C2120929   4.293   5.367   9.542 -0.1210  0.8678 -0.5120
  172DOPC   O2220930   4.408   5.365   9.494 -0.1702  0.0941 -0.1048
  172DOPC   C2220931   4.238   5.263   9.645 -0.1264  0.3347  0.6370
  172DOPC   H2R20932   4.181   5.190   9.584  3.1595 -2.6578  0.8965
  172DOPC   H2S20933   4.174   5.317   9.718 -1.8474 -0.1675 -0.4454
  172DOPC    C320934   4.139   5.691   9.467  0.2742  0.1976 -0.4170
  172DOPC    HX20935   4.042   5.657   9.425  0.9725  0.4528 -2.3181
  172DOPC    HY20936   4.185   5.765   9.398  3.6511  0.1369  1.5114
  172DOPC   O3120937   4.129   5.757   9.594  1.0312 -0.2507  0.1776
  172DOPC   C3120938   4.036   5.694   9.678  0.4316 -0.4351  0.0623
  172DOPC   O3220939   3.963   5.599   9.643 -0.6859  0.0333  0.2022
  172DOPC   C3220940   4.045   5.755   9.818 -0.0760  0.4467 -0.4581
  172DOPC   H2X20941   4.109   5.845   9.828  1.9987 -0.8795 -1.0933
  172DOPC   H2Y20942   3.936   5.774   9.830 -0.0942  0.2018 -0.2309
  172DOPC   C2320943   4.347   5.192   9.736  0.3991  0.9113 -0.1772
  172DOPC   H3R20944   4.449   5.237   9.736  1.0059 -0.3898 -1.2541
  172DOPC   H3S20945   4.361   5.093   9.689 -3.2597 -1.3334  2.9548
  172DOPC   C2420946   4.300   5.178   9.882 -0.3114  0.1234 -0.2322
  172DOPC   H4R20947   4.194   5.145   9.877 -0.4989  0.8537 -1.5265
  172DOPC   H4S20948   4.317   5.271   9.939 -1.7789 -0.6490  1.5377
  172DOPC   C2520949   4.368   5.071   9.969 -0.8009  0.4016 -0.3086
  172DOPC   H5R20950   4.477   5.090   9.976 -0.9307  0.7551  5.4441
  172DOPC   H5S20951   4.363   4.974   9.915  0.5336  0.9497 -1.4779
  172DOPC   C2620952   4.318   5.042  10.107 -0.4884 -0.4336 -0.4301
  172DOPC   H6R20953   4.214   5.004  10.095 -0.7739  0.3070 -0.3903
  172DOPC   H6S20954   4.297   5.134  10.165 -1.5733 -0.2706 -1.0543
  172DOPC   C2720955   4.403   4.938  10.184  0.5260  0.1761  0.1064
  172DOPC   H7R20956   4.508   4.973  10.198  0.2832  0.8566  0.2207
  172DOPC   H7S20957   4.395   4.846  10.122  1.1363  0.9393 -1.1411
  172DOPC   C2820958   4.330   4.893  10.314  0.6625  0.1629 -0.3867
  172DOPC   H8R20959   4.220   4.882  10.303  0.7315 -0.8731 -0.1110
  172DOPC   H8S20960   4.343   4.979  10.383 -1.5870 -0.0854  0.4069
  172DOPC   C2920961   4.383   4.758  10.360  0.3302  0.7335  0.3803
  172DOPC   H9R20962   4.363   4.674  10.292  0.0367 -0.6035  2.0434
  172DOPC  C21020963   4.428   4.723  10.483 -0.0750 -0.2921  0.3463
  172DOPC  H10R20964   4.452   4.623  10.522 -0.6859 -0.1418  1.1311
  172DOPC  C21120965   4.435   4.816  10.599 -0.0736 -0.8039 -0.1430
  172DOPC  H11R20966   4.457   4.919  10.563 -0.9328 -0.1344  1.1633
  172DOPC  H11S20967   4.514   4.805  10.677 -1.4527  0.1483  1.4504
  172DOPC  C21220968   4.296   4.844  10.660  0.1171  0.7438  0.2784
  172DOPC  H12R20969   4.219   4.883  10.590  1.9602  2.2144 -1.0353
  172DOPC  H12S20970   4.313   4.926  10.733 -1.3122  1.0055  0.3414
  172DOPC  C21320971   4.230   4.728  10.740  0.5778  0.2363  0.5913
  172DOPC  H13R20972   4.223   4.638  10.675  2.5802  0.6739 -0.3355
  172DOPC  H13S20973   4.135   4.758  10.787  0.4268 -0.4826  0.7525
  172DOPC  C21420974   4.327   4.687  10.853  0.0339 -0.2624  0.2677
  172DOPC  H14R20975   4.358   4.773  10.916 -0.4773  0.6394 -0.6854
  172DOPC  H14S20976   4.416   4.641  10.807  1.2511  0.7599  1.5219
  172DOPC  C21520977   4.270   4.571  10.943 -0.1862 -0.3457 -0.2280
  172DOPC  H15R20978   4.259   4.475  10.888 -0.4696 -2.2496  2.9088
  172DOPC  H15S20979   4.168   4.600  10.978 -0.4022  0.1375 -1.2261
  172DOPC  C21620980   4.355   4.545  11.069  0.0681  0.2620 -0.3707
  172DOPC  H16R20981   4.373   4.643  11.117  0.5474  0.8341 -1.6636
  172DOPC  H16S20982   4.447   4.499  11.028 -1.7881 -3.3391 -0.9611
  172DOPC  C21720983   4.303   4.444  11.172 -0.3700  0.2989  0.0335
  172DOPC  H17R20984   4.298   4.347  11.118  1.8162 -0.9992  2.0000
  172DOPC  H17S20985   4.200   4.466  11.208  0.0767  0.1742  1.4670
  172DOPC  C21820986   4.405   4.419  11.287  0.0456 -0.5250 -0.2732
  172DOPC  H18R20987   4.426   4.516  11.337  0.1380  0.3516 -1.9299
  172DOPC  H18S20988   4.500   4.385  11.240  1.4969 -2.3854  3.5768
  172DOPC  H18T20989   4.373   4.342  11.360 -0.8852 -0.5604 -0.6990
  172DOPC   C3320990   4.097   5.657   9.927  0.1537  0.3824 -0.0516
  172DOPC   H3X20991   4.203   5.640   9.898 -0.6841 -0.4665 -2.9479
  172DOPC   H3Y20992   4.047   5.560   9.905  0.9089  0.0023 -0.1418
  172DOPC   C3420993   4.066   5.695  10.074 -0.2826  0.2197  0.5324
  172DOPC   H4X20994   3.957   5.679  10.089 -0.6958  2.6477  0.4187
  172DOPC   H4Y20995   4.089   5.803  10.083  2.5398 -0.1771 -0.8948
  172DOPC   C3520996   4.149   5.620  10.177 -0.2997 -0.5685  0.3924
  172DOPC   H5X20997   4.253   5.618  10.140  0.3328  3.6604  1.4748
  172DOPC   H5Y20998   4.113   5.515  10.176 -0.5632 -0.5142 -2.1163
  172DOPC   C3620999   4.143   5.695  10.312  0.1281 -0.2761  0.0472
  172DOPC   H6X21000   4.173   5.802  10.307 -0.3945 -0.1025  0.4870
  172DOPC   H6Y21001   4.043   5.682  10.359  0.3479 -1.9226  0.1319
  172DOPC   C3721002   4.237   5.644  10.427 -0.5933  0.2604  0.4271
  172DOPC   H7X21003   4.228   5.534  10.440  1.7085 -0.5987 -3.5476
  172DOPC   H7Y21004   4.343   5.655  10.396 -0.0289  0.5741  2.3689
  172DOPC   C3821005   4.214   5.722  10.557  0.1135  1.1386  0.6102
  172DOPC   H8X21006   4.114   5.698  10.599 -0.3790  2.6851  0.3774
  172DOPC   H8Y21007   4.217   5.828  10.524  0.7811  1.9346  3.0265
  172DOPC   C3921008   4.325   5.690  10.646  0.7611  0.8060 -0.3284
  172DOPC   H9X21009   4.426   5.687  10.602  1.4295  1.7540  1.0575
  172DOPC  C31021010   4.312   5.667  10.780 -0.6923 -0.0700 -0.3016
  172DOPC  H10X21011   4.404   5.667  10.841 -1.4875 -0.5884  0.9339
  172DOPC  C31121012   4.183   5.690  10.852 -0.0212  0.5402 -0.0963
  172DOPC  H11X21013   4.087   5.699  10.797 -0.5805  1.2390  0.9537
  172DOPC  H11Y21014   4.193   5.777  10.921 -1.7943  1.1341 -0.5387
  172DOPC  C31221015   4.154   5.570  10.950  0.0922  0.0186 -0.1253
  172DOPC  H12X21016   4.237   5.541  11.017  0.8702 -2.1782 -1.9322
  172DOPC  H12Y21017   4.131   5.475  10.897  1.5258 -1.6486  2.0910
  172DOPC  C31321018   4.028   5.603  11.034 -0.6136  0.4940  0.1061
  172DOPC  H13X21019   4.031   5.709  11.067  0.3084  1.1812 -1.9951
  172DOPC  H13Y21020   3.934   5.599  10.974 -0.8511 -2.9962  0.5470
  172DOPC  C31421021   4.009   5.504  11.146  0.8342  0.3610 -0.4296
  172DOPC  H14X21022   3.971   5.404  11.117  0.1621  1.4009 -3.5313
  172DOPC  H14Y21023   4.098   5.492  11.212 -1.5046 -1.0657  2.7537
  172DOPC  C31521024   3.908   5.557  11.251 -0.3188 -0.1825 -0.0465
  172DOPC  H15X21025   3.942   5.654  11.294  0.7163  0.1239 -1.4841
  172DOPC  H15Y21026   3.889   5.496  11.342 -0.7932  1.0482  0.7181
  172DOPC  C31621027   3.766   5.584  11.191 -0.2994 -0.6386 -0.4626
  172DOPC  H16X21028   3.789   5.639  11.097 -0.6512  0.7671  0.2540
  172DOPC  H16Y21029   3.713   5.491  11.161 -0.7736 -0.3025 -0.6849
  172DOPC  C31721030   3.674   5.671  11.277 -1.0037  0.2951 -0.0127
  172DOPC  H17X21031   3.663   5.622  11.377  2.4871 -2.5350 -0.8289
  172DOPC  H17Y21032   3.715   5.771  11.303  2.0152 -1.1345  1.2766
  172DOPC  C31821033   3.533   5.682  11.228  0.9634  0.7118 -0.2755
  172DOPC  H18X21034   3.534   5.727  11.126  1.2055 -2.6973 -1.9044
  172DOPC  H18Y21035   3.476   5.587  11.217  0.9031  0.6933  0.1834
  172DOPC  H18Z21036   3.478   5.750  11.296 -0.5706  1.7487 -2.4202
  173DOPC     N21037   2.910   4.485   8.663 -1.0464  0.0038 -0.2988
  173DOPC   C1221038   2.846   4.398   8.766 -0.0166 -0.3801 -0.1245
  173DOPC  H12A21039   2.802   4.310   8.720 -0.7351  1.6982 -3.8853
  173DOPC  H12B21040   2.766   4.461   8.802  0.5634 -0.1327  0.7537
  173DOPC   C1321041   2.817   4.527   8.551  0.5296 -0.1553  0.4126
  173DOPC  H13A21042   2.735   4.589   8.586 -0.9686 -0.7736 -1.7859
  173DOPC  H13B21043   2.861   4.591   8.476 -0.6948 -0.8311 -0.9182
  173DOPC  H13C21044   2.775   4.444   8.496  0.5340  1.4330 -2.1156
  173DOPC   C1421045   3.020   4.411   8.587 -0.1254 -1.0499  0.6265
  173DOPC  H14A21046   3.052   4.458   8.495  0.9768 -1.5982  0.7160
  173DOPC  H14B21047   3.112   4.411   8.644  0.3715 -0.6100 -0.1446
  173DOPC  H14C21048   2.984   4.310   8.575 -0.7990 -0.6196 -1.3818
  173DOPC   C1521049   2.961   4.612   8.715  0.3974 -0.0848  0.2305
  173DOPC  H15A21050   3.041   4.589   8.783  2.0510  0.2500 -1.5390
  173DOPC  H15B21051   2.890   4.679   8.761 -0.8629 -0.6433 -0.8148
  173DOPC  H15C21052   3.010   4.667   8.637 -1.4709  2.0947  0.4745
  173DOPC   C1121053   2.936   4.354   8.887  0.1610  0.9516 -0.8282
  173DOPC  H11A21054   2.977   4.445   8.937  0.2933  0.1893  0.4964
  173DOPC  H11B21055   2.867   4.319   8.967 -0.5737  1.0917 -1.3869
  173DOPC     P21056   3.003   4.118   8.846 -0.4373 -0.0743  0.4233
  173DOPC   O1321057   3.119   4.037   8.811  0.7641  0.3696 -0.2255
  173DOPC   O1421058   2.883   4.097   8.762  0.6150 -0.2421  0.3380
  173DOPC   O1221059   3.042   4.265   8.849 -0.0486  0.1485  0.0221
  173DOPC   O1121060   2.960   4.086   8.996  0.4633  0.0473 -0.1098
  173DOPC    C121061   3.034   4.145   9.108 -0.0430  0.9679 -0.3117
  173DOPC    HA21062   2.956   4.162   9.186 -0.1980  0.4406 -0.3480
  173DOPC    HB21063   3.082   4.244   9.091  0.1265  1.0873  0.7791
  173DOPC    C221064   3.150   4.055   9.160 -0.2235 -0.1074  0.0431
  173DOPC    HS21065   3.198   4.027   9.064 -1.1713 -0.1263 -0.4348
  173DOPC   O2121066   3.090   3.937   9.217 -0.0114  0.1374 -0.5951
  173DOPC   C2121067   3.161   3.825   9.210  0.1021  0.2725  0.0262
  173DOPC   O2221068   3.249   3.805   9.132 -0.0098  0.2310  0.2240
  173DOPC   C2221069   3.089   3.718   9.299 -0.7958  0.6888 -0.7141
  173DOPC   H2R21070   3.043   3.639   9.235 -0.5823 -0.5468  0.6012
  173DOPC   H2S21071   3.014   3.758   9.370 -0.7569 -2.4948  1.3292
  173DOPC    C321072   3.247   4.124   9.262 -0.0456 -0.7307  0.2132
  173DOPC    HX21073   3.259   4.230   9.230 -1.7759 -0.8722 -1.0221
  173DOPC    HY21074   3.347   4.075   9.263 -0.8650 -2.4504  0.8834
  173DOPC   O3121075   3.189   4.109   9.393 -0.4173 -0.3332  0.1300
  173DOPC   C3121076   3.108   4.203   9.431  0.2086 -0.5365 -0.3444
  173DOPC   O3221077   3.079   4.302   9.361 -0.2974  0.4602 -0.7562
  173DOPC   C3221078   3.044   4.184   9.562 -0.6646  0.1605 -0.7856
  173DOPC   H2X21079   2.944   4.230   9.551 -1.0295 -0.3746  0.1584
  173DOPC   H2Y21080   3.025   4.075   9.576  3.4432 -0.7123 -0.6187
  173DOPC   C2321081   3.187   3.645   9.402 -0.1436  0.1307  0.0979
  173DOPC   H3R21082   3.269   3.592   9.349 -0.3827  1.8317 -2.1395
  173DOPC   H3S21083   3.139   3.560   9.455 -0.1179 -0.5253 -0.8975
  173DOPC   C2421084   3.228   3.733   9.518  0.2488 -0.2905 -0.1609
  173DOPC   H4R21085   3.273   3.822   9.469 -1.7738 -0.3535 -2.3148
  173DOPC   H4S21086   3.301   3.680   9.582 -1.7532 -2.0614  0.7735
  173DOPC   C2521087   3.117   3.777   9.618  0.9823 -0.2245  1.0147
  173DOPC   H5R21088   3.035   3.832   9.567  2.7302  0.1187 -1.6230
  173DOPC   H5S21089   3.168   3.857   9.675 -1.0343 -0.2120  2.9125
  173DOPC   C2621090   3.051   3.681   9.717  0.3060 -0.9078  0.2921
  173DOPC   H6R21091   2.992   3.601   9.668 -0.0944 -0.0380 -0.6600
  173DOPC   H6S21092   2.983   3.739   9.783 -3.6509 -2.6157 -1.9353
  173DOPC   C2721093   3.148   3.624   9.810  0.6374 -0.2792  0.2115
  173DOPC   H7R21094   3.235   3.576   9.760  0.9293  0.6195 -0.1582
  173DOPC   H7S21095   3.097   3.538   9.858  1.0252 -0.8556 -0.3994
  173DOPC   C2821096   3.201   3.720   9.916  0.1173 -0.2441 -0.0111
  173DOPC   H8R21097   3.114   3.767   9.966 -0.4567 -1.7931  0.4978
  173DOPC   H8S21098   3.249   3.805   9.861  0.8019 -0.8799 -0.4196
  173DOPC   C2921099   3.300   3.663  10.020  0.6733  0.0289 -0.2936
  173DOPC   H9R21100   3.405   3.666   9.988  0.7538 -2.0185 -0.3473
  173DOPC  C21021101   3.265   3.595  10.132  0.3422  0.2382 -0.2305
  173DOPC  H10R21102   3.343   3.553  10.197 -0.3949  0.2313  0.6676
  173DOPC  C21121103   3.127   3.571  10.188  0.7490 -0.6145  0.4717
  173DOPC  H11R21104   3.063   3.524  10.111  2.1671 -1.2580 -0.3614
  173DOPC  H11S21105   3.066   3.664  10.182 -0.0986 -1.1700  0.3001
  173DOPC  C21221106   3.110   3.520  10.334  0.6837 -0.4377  0.4140
  173DOPC  H12R21107   3.178   3.434  10.353  1.7837  0.4047  0.4458
  173DOPC  H12S21108   3.001   3.504  10.344  0.4207  2.0892  2.6302
  173DOPC  C21321109   3.140   3.624  10.448  0.2645  0.1110 -0.0214
  173DOPC  H13R21110   3.078   3.715  10.440  0.5480  0.3789  0.7266
  173DOPC  H13S21111   3.245   3.661  10.459 -0.0177  0.6727  0.8518
  173DOPC  C21421112   3.099   3.565  10.590  0.1695 -0.9465  0.2182
  173DOPC  H14R21113   3.183   3.503  10.629  0.7071 -0.8310 -0.7148
  173DOPC  H14S21114   3.002   3.516  10.568 -0.1842 -0.2771  0.2689
  173DOPC  C21521115   3.065   3.679  10.689 -0.2085  0.7402  0.4386
  173DOPC  H15R21116   2.999   3.747  10.631  0.2445  0.3438 -0.5714
  173DOPC  H15S21117   3.156   3.737  10.713 -0.4316  0.7154  1.3728
  173DOPC  C21621118   3.015   3.622  10.825  0.3395  0.8146  0.2728
  173DOPC  H16R21119   3.072   3.532  10.856  1.3686  1.4409  0.2740
  173DOPC  H16S21120   2.913   3.584  10.803 -0.3540  3.0673 -0.7014
  173DOPC  C21721121   3.022   3.721  10.945  0.2293 -0.4342 -0.2383
  173DOPC  H17R21122   2.979   3.811  10.898  0.3636 -0.2502 -0.0086
  173DOPC  H17S21123   3.127   3.735  10.980 -0.1429  0.9985  0.3629
  173DOPC  C21821124   2.929   3.674  11.057 -0.8924 -0.2598 -0.6801
  173DOPC  H18R21125   2.949   3.571  11.092 -1.4741 -0.2303 -0.2439
  173DOPC  H18S21126   2.823   3.685  11.029 -1.5602 -0.1405  1.6420
  173DOPC  H18T21127   2.957   3.735  11.146  0.6705 -0.5109 -0.9692
  173DOPC   C3321128   3.119   4.247   9.687  0.1973  0.5225  0.4113
  173DOPC   H3X21129   3.113   4.357   9.692 -1.7839  0.4169  1.6804
  173DOPC   H3Y21130   3.226   4.223   9.673 -0.3738 -0.4744 -3.1050
  173DOPC   C3421131   3.059   4.195   9.822  0.7189 -0.3133 -0.4807
  173DOPC   H4X21132   3.079   4.086   9.834 -0.6209 -0.7274 -1.7312
  173DOPC   H4Y21133   2.948   4.202   9.822  0.7219 -0.2814 -0.1460
  173DOPC   C3521134   3.096   4.269   9.954 -0.6634 -0.8424 -0.4036
  173DOPC   H5X21135   3.058   4.374   9.958 -0.2202 -0.7143  2.2138
  173DOPC   H5Y21136   3.206   4.274   9.967 -0.7859 -1.7160  1.2402
  173DOPC   C3621137   3.042   4.193  10.071  0.4266  0.3291  0.8055
  173DOPC   H6X21138   2.931   4.199  10.074  0.2589  0.3186 -2.4242
  173DOPC   H6Y21139   3.068   4.085  10.070  0.1396  0.2566  0.9340
  173DOPC   C3721140   3.077   4.254  10.205 -0.7266 -0.4949 -0.0114
  173DOPC   H7X21141   3.187   4.272  10.216 -0.8889  2.0029 -1.7712
  173DOPC   H7Y21142   3.041   4.357  10.224  0.8548 -0.0350  0.7558
  173DOPC   C3821143   3.015   4.162  10.318 -0.1925 -0.1619 -0.1216
  173DOPC   H8X21144   3.103   4.151  10.384 -0.1184  2.8806  0.4188
  173DOPC   H8Y21145   2.996   4.062  10.272  0.5193 -0.1616 -0.4146
  173DOPC   C3921146   2.883   4.206  10.371  0.1969 -0.1386  0.3502
  173DOPC   H9X21147   2.816   4.248  10.295  1.4476 -0.3787 -0.9271
  173DOPC  C31021148   2.852   4.205  10.499  0.0567 -0.4483 -0.1674
  173DOPC  H10X21149   2.753   4.237  10.535 -0.2666 -0.7041 -0.8049
  173DOPC  C31121150   2.940   4.148  10.610  0.5370  0.2204 -0.4101
  173DOPC  H11X21151   3.042   4.113  10.580  0.5390 -0.5572  0.4575
  173DOPC  H11Y21152   2.884   4.061  10.650 -0.4572  0.8479 -0.4250
  173DOPC  C31221153   2.943   4.229  10.740 -0.0680 -0.2983 -0.4977
  173DOPC  H12X21154   2.842   4.236  10.785 -0.6047  0.1011 -1.7270
  173DOPC  H12Y21155   2.979   4.334  10.733 -2.2711  0.5601  0.1214
  173DOPC  C31321156   3.023   4.167  10.852  0.7251  0.5405 -0.3932
  173DOPC  H13X21157   2.971   4.074  10.885 -1.3420  1.0698 -1.8852
  173DOPC  H13Y21158   3.123   4.136  10.816 -0.1896 -0.0060 -2.7000
  173DOPC  C31421159   3.038   4.265  10.968  0.0686  0.2973  0.1336
  173DOPC  H14X21160   3.039   4.363  10.915 -1.0814  0.4290  0.3283
  173DOPC  H14Y21161   2.943   4.268  11.026  0.5800 -2.2234  1.2261
  173DOPC  C31521162   3.148   4.247  11.069 -0.2059 -0.4072  0.0928
  173DOPC  H15X21163   3.247   4.233  11.022 -0.1682 -0.5553  0.2165
  173DOPC  H15Y21164   3.118   4.165  11.137  0.9886 -0.0730  1.0628
  173DOPC  C31621165   3.153   4.372  11.153  0.0514 -0.1126 -0.0431
  173DOPC  H16X21166   3.154   4.462  11.089  1.6649 -0.5043 -0.6151
  173DOPC  H16Y21167   3.058   4.374  11.211  0.0101  0.4450 -0.1321
  173DOPC  C31721168   3.268   4.376  11.259  0.3440  0.7084  0.0932
  173DOPC  H17X21169   3.234   4.455  11.330 -0.6533  1.3499 -1.0623
  173DOPC  H17Y21170   3.290   4.288  11.324  1.2723  1.5861  1.0110
  173DOPC  C31821171   3.398   4.433  11.211  0.6615  0.1706  0.2668
  173DOPC  H18X21172   3.477   4.412  11.286  1.1808  0.2314 -0.2525
  173DOPC  H18Y21173   3.434   4.398  11.112  1.2199 -0.1259  0.5694
  173DOPC  H18Z21174   3.389   4.543  11.205  1.7478  0.2411 -0.2965
  174DOPC     N21175   5.595   2.322   8.155 -0.2426 -0.1249  0.3421
  174DOPC   C1221176   5.634   2.181   8.123 -0.0569  0.4978 -0.4363
  174DOPC  H12A21177   5.737   2.186   8.091  0.7642  0.2721  1.9459
  174DOPC  H12B21178   5.576   2.135   8.045  0.5156 -1.7748  0.3778
  174DOPC   C1321179   5.681   2.387   8.263 -0.0967  0.6625  0.2361
  174DOPC  H13A21180   5.664   2.331   8.354  0.7086 -1.5127 -0.8577
  174DOPC  H13B21181   5.786   2.379   8.241 -0.0087 -1.1633  1.0977
  174DOPC  H13C21182   5.651   2.490   8.270  2.2794  1.4227 -0.0202
  174DOPC   C1421183   5.451   2.339   8.199  0.4163 -0.2801  0.1613
  174DOPC  H14A21184   5.382   2.309   8.121 -0.7230  2.7467 -0.1571
  174DOPC  H14B21185   5.419   2.282   8.285  1.0678  0.0732  0.6481
  174DOPC  H14C21186   5.429   2.443   8.218  0.8747 -0.1024 -0.2602
  174DOPC   C1521187   5.609   2.392   8.029  0.1377 -0.0065  0.2636
  174DOPC  H15A21188   5.560   2.488   8.031 -1.4799 -0.7812 -0.5290
  174DOPC  H15B21189   5.546   2.346   7.954  1.8643  1.0004 -1.9124
  174DOPC  H15C21190   5.708   2.416   7.995  0.6081  0.5023  1.8759
  174DOPC   C1121191   5.628   2.085   8.247  0.0340  0.5882 -0.4410
  174DOPC  H11A21192   5.527   2.106   8.289 -0.6394  0.8549 -2.1392
  174DOPC  H11B21193   5.626   1.979   8.214 -3.2577  0.0548  1.0429
  174DOPC     P21194   5.876   2.077   8.319 -0.0599 -0.1752 -0.3754
  174DOPC   O1321195   5.926   2.160   8.206  0.0661 -0.6292 -0.1198
  174DOPC   O1421196   5.906   1.935   8.301  0.6516  0.1816 -0.6006
  174DOPC   O1221197   5.725   2.106   8.351  0.8797 -0.1394  0.7178
  174DOPC   O1121198   5.944   2.111   8.454 -0.0112 -0.3149  0.1771
  174DOPC    C121199   5.926   2.222   8.541 -0.2839  0.8002 -0.0597
  174DOPC    HA21200   5.843   2.288   8.506  0.6633  1.2512 -1.5777
  174DOPC    HB21201   6.019   2.282   8.534 -0.0403  0.2412 -3.0969
  174DOPC    C221202   5.896   2.182   8.687 -0.2275 -0.2321  0.5016
  174DOPC    HS21203   5.993   2.155   8.732 -0.1626 -0.8674  0.0008
  174DOPC   O2121204   5.799   2.070   8.691 -0.3253 -0.0555  0.8743
  174DOPC   C2121205   5.844   1.968   8.772  0.5202  0.1655  0.2433
  174DOPC   O2221206   5.961   1.943   8.800  0.1721 -0.2343 -0.2935
  174DOPC   C2221207   5.723   1.889   8.821 -0.4580  0.4055  0.0050
  174DOPC   H2R21208   5.704   1.804   8.751  1.5667 -0.7906  0.8267
  174DOPC   H2S21209   5.634   1.956   8.830 -0.1303  1.3163 -2.6710
  174DOPC    C321210   5.837   2.303   8.766 -0.1852  0.1468  0.1010
  174DOPC    HX21211   5.734   2.326   8.732 -0.0183  1.2385  0.2985
  174DOPC    HY21212   5.893   2.398   8.756  0.7959 -0.1487  2.1982
  174DOPC   O3121213   5.834   2.272   8.907  0.2978 -0.2423  0.3927
  174DOPC   C3121214   5.954   2.263   8.961 -0.8858 -0.6745 -0.4756
  174DOPC   O3221215   6.063   2.278   8.912  0.2162 -0.2065  0.2765
  174DOPC   C3221216   5.934   2.195   9.093  0.0156 -0.3114 -0.4463
  174DOPC   H2X21217   5.827   2.182   9.121  0.1463 -0.0340  0.1961
  174DOPC   H2Y21218   5.966   2.089   9.088 -0.2147 -0.3602 -0.9749
  174DOPC   C2321219   5.751   1.813   8.955 -0.1342 -0.7243  0.1481
  174DOPC   H3R21220   5.793   1.887   9.027  1.3099 -2.0547  0.7526
  174DOPC   H3S21221   5.830   1.740   8.926 -2.2778 -2.6806 -1.1354
  174DOPC   C2421222   5.622   1.757   9.009 -0.1436  0.3926  0.9848
  174DOPC   H4R21223   5.576   1.685   8.938  0.0025  1.4271 -0.1887
  174DOPC   H4S21224   5.542   1.832   9.027 -0.3198  0.5928 -0.4731
  174DOPC   C2521225   5.644   1.693   9.145 -0.1486  0.8930 -0.1706
  174DOPC   H5R21226   5.688   1.776   9.204 -1.9339  1.4550  0.4347
  174DOPC   H5S21227   5.730   1.622   9.138 -1.5660 -1.1513  1.7410
  174DOPC   C2621228   5.532   1.631   9.219  0.4415  0.1047  0.2308
  174DOPC   H6R21229   5.569   1.614   9.322  1.7617  0.3414 -0.1855
  174DOPC   H6S21230   5.488   1.540   9.174 -0.3986  0.4313  0.3677
  174DOPC   C2721231   5.400   1.713   9.223 -0.5600  0.2186 -0.5511
  174DOPC   H7R21232   5.338   1.673   9.306  2.1130 -3.0349  0.0626
  174DOPC   H7S21233   5.338   1.699   9.131 -3.4651  1.7880  1.0265
  174DOPC   C2821234   5.420   1.855   9.268  0.7106 -0.2024  0.2422
  174DOPC   H8R21235   5.520   1.890   9.236 -0.1754  2.4987  0.2316
  174DOPC   H8S21236   5.423   1.874   9.378  1.3843 -0.9384  0.3599
  174DOPC   C2921237   5.322   1.942   9.202  0.0130 -1.0337  0.1642
  174DOPC   H9R21238   5.344   1.968   9.097  0.6716 -1.7740  0.1105
  174DOPC  C21021239   5.213   1.991   9.257  0.1480  0.2765 -0.0150
  174DOPC  H10R21240   5.138   2.041   9.194 -0.1149  0.2624  0.2855
  174DOPC  C21121241   5.160   1.945   9.395  0.1372 -0.0567 -0.0995
  174DOPC  H11R21242   5.185   1.839   9.416  3.0164  0.4955 -0.3645
  174DOPC  H11S21243   5.051   1.966   9.401  0.1585  1.5150 -3.1998
  174DOPC  C21221244   5.214   2.032   9.516 -0.6766 -0.1012 -0.4510
  174DOPC  H12R21245   5.214   2.139   9.486  0.7262  0.2429  0.6842
  174DOPC  H12S21246   5.318   1.998   9.534 -1.5809 -2.2475  1.0624
  174DOPC  C21321247   5.151   2.015   9.650  0.3753  0.4156  0.0454
  174DOPC  H13R21248   5.179   1.915   9.692  0.3954 -0.6221 -2.2772
  174DOPC  H13S21249   5.045   2.010   9.619  0.9697  0.6546 -2.1929
  174DOPC  C21421250   5.191   2.117   9.750  0.1270 -0.0352  0.1576
  174DOPC  H14R21251   5.166   2.221   9.717  0.6300  0.4938  1.3928
  174DOPC  H14S21252   5.301   2.103   9.760  0.1073 -3.1399 -2.4901
  174DOPC  C21521253   5.135   2.088   9.892 -0.4312 -0.3192 -0.0903
  174DOPC  H15R21254   5.160   1.983   9.922  2.7794  0.0603 -1.1466
  174DOPC  H15S21255   5.024   2.089   9.888 -0.5290 -0.5682  1.5537
  174DOPC  C21621256   5.199   2.178   9.993 -0.3072 -0.1017 -0.3082
  174DOPC  H16R21257   5.175   2.284   9.969 -1.6937 -0.4067 -0.3501
  174DOPC  H16S21258   5.309   2.169  10.006 -0.3010 -1.3576 -1.1285
  174DOPC  C21721259   5.136   2.150  10.130 -0.0437 -0.0367 -0.1467
  174DOPC  H17R21260   5.170   2.051  10.166  0.3791 -1.7775 -4.7217
  174DOPC  H17S21261   5.029   2.125  10.115  0.6442 -2.5343 -1.5944
  174DOPC  C21821262   5.169   2.256  10.231  0.4276  0.2943  0.3711
  174DOPC  H18R21263   5.269   2.263  10.280 -0.0727 -0.5564  1.5647
  174DOPC  H18S21264   5.103   2.242  10.319 -0.2685 -0.5321 -0.2762
  174DOPC  H18T21265   5.156   2.358  10.188 -1.6754 -0.5475 -1.0692
  174DOPC   C3321266   6.023   2.255   9.204  0.6502 -0.1100 -0.8605
  174DOPC   H3X21267   5.989   2.358   9.228 -1.1901 -1.1431  1.3950
  174DOPC   H3Y21268   6.129   2.265   9.171  1.7812  0.4380  2.5707
  174DOPC   C3421269   6.011   2.174   9.334 -0.2555 -0.5920 -0.4195
  174DOPC   H4X21270   6.042   2.070   9.312  2.5257  0.5961 -2.7738
  174DOPC   H4Y21271   5.908   2.156   9.373  0.7308 -0.8782  2.2352
  174DOPC   C3521272   6.090   2.220   9.461 -0.0592  0.2554  0.4809
  174DOPC   H5X21273   6.047   2.321   9.479 -0.2650  0.9960 -3.3747
  174DOPC   H5Y21274   6.195   2.238   9.431 -0.2456  0.1591 -0.2437
  174DOPC   C3621275   6.071   2.135   9.591 -0.3999  0.0157 -0.1926
  174DOPC   H6X21276   6.027   2.034   9.576  0.6235 -0.2978 -1.2098
  174DOPC   H6Y21277   6.174   2.126   9.631  0.4609 -0.4249 -2.3312
  174DOPC   C3721278   5.972   2.196   9.685  0.1984 -0.2186  0.5811
  174DOPC   H7X21279   5.986   2.306   9.689 -0.4242 -0.0817 -0.5580
  174DOPC   H7Y21280   5.872   2.186   9.638  0.6843 -0.0520 -0.5152
  174DOPC   C3821281   5.971   2.141   9.829  0.1399  0.3026 -0.1300
  174DOPC   H8X21282   6.000   2.034   9.825 -0.2737  0.0116  2.6313
  174DOPC   H8Y21283   5.868   2.150   9.869 -0.0033  0.8606 -0.6055
  174DOPC   C3921284   6.077   2.211   9.912 -0.3712  0.2205 -0.2183
  174DOPC   H9X21285   6.176   2.212   9.865  0.5727  0.1776  1.6674
  174DOPC  C31021286   6.070   2.254  10.044  0.2615 -0.2842  0.3487
  174DOPC  H10X21287   6.166   2.292  10.083  0.0422  0.1027  0.5128
  174DOPC  C31121288   5.960   2.240  10.142 -0.1966 -0.2162 -0.4794
  174DOPC  H11X21289   5.922   2.137  10.129  0.3154 -0.3459 -1.0021
  174DOPC  H11Y21290   5.879   2.316  10.138 -0.9461 -0.9548  0.3641
  174DOPC  C31221291   6.016   2.242  10.286 -0.8105  0.0947  0.1096
  174DOPC  H12X21292   6.048   2.344  10.317 -0.3356  0.9072 -2.7421
  174DOPC  H12Y21293   6.100   2.170  10.300 -0.9398  0.0056  0.4415
  174DOPC  C31321294   5.922   2.196  10.389 -0.0428  0.7270 -0.1524
  174DOPC  H13X21295   5.827   2.251  10.369 -0.8389 -0.8101 -0.8165
  174DOPC  H13Y21296   5.900   2.087  10.379  0.2524  0.8223 -2.5266
  174DOPC  C31421297   5.956   2.227  10.538 -0.5962  0.2273  0.1536
  174DOPC  H14X21298   5.995   2.331  10.539 -1.3611  0.5467 -1.0819
  174DOPC  H14Y21299   5.862   2.241  10.596  0.3385  3.2224  1.1093
  174DOPC  C31521300   6.057   2.131  10.599 -0.0073  0.7388 -0.2547
  174DOPC  H15X21301   6.144   2.138  10.531 -0.0062 -0.5189 -0.4050
  174DOPC  H15Y21302   6.017   2.027  10.598 -0.2388  0.7910 -2.3888
  174DOPC  C31621303   6.104   2.176  10.736 -0.0585  0.0195  0.4198
  174DOPC  H16X21304   6.183   2.104  10.765 -2.1657 -2.4937  0.3343
  174DOPC  H16Y21305   6.145   2.279  10.741  1.7453 -0.7315  3.6481
  174DOPC  C31721306   5.994   2.155  10.843 -0.4882 -0.4477  0.3237
  174DOPC  H17X21307   5.919   2.235  10.823 -0.0044  0.0060  0.2998
  174DOPC  H17Y21308   5.955   2.052  10.826  1.9776 -1.1178 -2.0281
  174DOPC  C31821309   6.037   2.170  10.987 -0.4715  0.6384  0.0917
  174DOPC  H18X21310   6.044   2.279  11.010  0.7115  0.4650  0.6117
  174DOPC  H18Y21311   5.964   2.112  11.047  0.5794 -0.3856  0.4212
  174DOPC  H18Z21312   6.140   2.132  11.005  0.0706  0.8436 -2.3228
  175DOPC     N21313   3.340   0.094   8.767 -0.6877  0.0956  0.7068
  175DOPC   C1221314   3.402   0.206   8.675 -0.0409  0.8883 -0.3030
  175DOPC  H12A21315   3.346   0.298   8.674  0.7434  1.3828  0.5252
  175DOPC  H12B21316   3.409   0.175   8.571  2.7754  1.1263 -0.2526
  175DOPC   C1321317   3.190   0.092   8.749 -0.1896 -0.3539 -0.1511
  175DOPC  H13A21318   3.170   0.085   8.643  1.2755 -1.8157 -0.3740
  175DOPC  H13B21319   3.157  -0.004   8.787 -0.5533 -0.6317 -1.1417
  175DOPC  H13C21320   3.144   0.175   8.801  0.1391 -1.0372  1.2843
  175DOPC   C1421321   3.372   0.122   8.906 -0.5885  0.0725  0.3115
  175DOPC  H14A21322   3.355   0.225   8.936  0.4019  0.7350 -1.2247
  175DOPC  H14B21323   3.328   0.051   8.974  2.0899 -0.9239  1.1283
  175DOPC  H14C21324   3.478   0.110   8.922 -0.3017 -0.7148 -1.8642
  175DOPC   C1521325   3.396  -0.044   8.736 -0.1640  0.4166 -0.0900
  175DOPC  H15A21326   3.392  -0.070   8.631 -0.2809 -0.2218  0.0695
  175DOPC  H15B21327   3.362  -0.116   8.808  1.2639 -2.2932 -1.9413
  175DOPC  H15C21328   3.504  -0.034   8.741  0.0101 -1.7839  3.3104
  175DOPC   C1121329   3.546   0.246   8.717 -0.5006 -0.3855 -0.1095
  175DOPC  H11A21330   3.580   0.320   8.642  2.0120  0.2679  1.5398
  175DOPC  H11B21331   3.534   0.291   8.818 -0.8584 -1.0115  0.1349
  175DOPC     P21332   3.786   0.160   8.727  0.1181 -0.0833  0.0185
  175DOPC   O1321333   3.823   0.247   8.613 -0.2698 -0.2552  0.0001
  175DOPC   O1421334   3.855   0.030   8.731 -0.2613  0.7514  0.7938
  175DOPC   O1221335   3.633   0.134   8.736  0.5030  0.2680  0.5736
  175DOPC   O1121336   3.827   0.236   8.863 -0.5450  0.6411  0.6934
  175DOPC    C121337   3.761   0.198   8.987 -0.5657 -0.0212 -0.0151
  175DOPC    HA21338   3.769   0.090   9.012 -2.1997 -0.0024  0.7103
  175DOPC    HB21339   3.653   0.225   8.989 -0.4637  0.3795  1.2530
  175DOPC    C221340   3.825   0.269   9.111 -0.6430  0.5386  0.6015
  175DOPC    HS21341   3.797   0.375   9.094  0.9923  0.5916 -2.2811
  175DOPC   O2121342   3.970   0.255   9.113  0.1793  0.2887  0.3030
  175DOPC   C2121343   4.034   0.342   9.192 -0.6459  0.9686  0.0866
  175DOPC   O2221344   3.983   0.438   9.241  0.4173 -0.1287 -0.2725
  175DOPC   C2221345   4.179   0.295   9.209  0.0846  0.1733 -0.4597
  175DOPC   H2R21346   4.226   0.309   9.109 -0.0183 -0.2609 -0.5725
  175DOPC   H2S21347   4.178   0.186   9.233 -0.8461  0.5187  1.1938
  175DOPC    C321348   3.755   0.221   9.240  0.1149  0.0220 -0.7889
  175DOPC    HX21349   3.789   0.117   9.256  3.8835  1.0676 -0.9868
  175DOPC    HY21350   3.648   0.223   9.212 -1.0618  1.5158  3.2239
  175DOPC   O3121351   3.785   0.298   9.356 -0.5732 -0.4546  0.1551
  175DOPC   C3121352   3.676   0.329   9.437  0.0948 -0.2959 -0.9585
  175DOPC   O3221353   3.564   0.295   9.422 -0.5573 -0.2130  0.0140
  175DOPC   C3221354   3.735   0.394   9.566  0.6060  0.1306 -0.1028
  175DOPC   H2X21355   3.822   0.341   9.610  1.4705  1.2080 -0.4695
  175DOPC   H2Y21356   3.778   0.490   9.530 -2.0775  1.7941  0.8380
  175DOPC   C2321357   4.253   0.378   9.314 -0.7678  0.4818 -0.7789
  175DOPC   H3R21358   4.212   0.481   9.313 -0.3305  0.6651 -0.0991
  175DOPC   H3S21359   4.361   0.375   9.289 -0.5183  0.1088  0.2932
  175DOPC   C2421360   4.236   0.309   9.450 -0.1547 -0.0548  0.4153
  175DOPC   H4R21361   4.280   0.207   9.442  3.7690  1.4787  0.1840
  175DOPC   H4S21362   4.127   0.298   9.465 -0.3941  1.1405 -0.3153
  175DOPC   C2521363   4.312   0.387   9.553 -0.3771 -0.3377 -0.0682
  175DOPC   H5R21364   4.258   0.477   9.590 -0.5251 -0.4010 -0.1317
  175DOPC   H5S21365   4.405   0.420   9.503 -0.5719 -0.2860 -0.3971
  175DOPC   C2621366   4.364   0.295   9.669 -0.0654 -0.4472  0.9053
  175DOPC   H6R21367   4.424   0.214   9.623  1.6757  0.3508  1.6857
  175DOPC   H6S21368   4.272   0.253   9.715 -1.7409 -0.9999 -2.5787
  175DOPC   C2721369   4.450   0.370   9.769 -0.0997 -0.0003 -0.5327
  175DOPC   H7R21370   4.378   0.436   9.822 -1.7827 -1.0384 -1.4397
  175DOPC   H7S21371   4.518   0.435   9.709 -1.1422 -1.8548 -3.9537
  175DOPC   C2821372   4.517   0.269   9.861 -0.3326  0.1884  0.3962
  175DOPC   H8R21373   4.571   0.193   9.801 -1.3552  0.8701 -1.4829
  175DOPC   H8S21374   4.434   0.224   9.919  0.5002  0.8746  2.1921
  175DOPC   C2921375   4.611   0.348   9.952  0.2524 -0.3710  0.3170
  175DOPC   H9R21376   4.717   0.357   9.922 -0.2941  1.6164 -1.2424
  175DOPC  C21021377   4.578   0.418  10.061 -0.3303  0.5896 -0.1417
  175DOPC  H10R21378   4.655   0.471  10.118  0.9772 -0.2519 -1.0753
  175DOPC  C21121379   4.442   0.422  10.118  1.1481 -0.2848 -1.0697
  175DOPC  H11R21380   4.364   0.363  10.065 -1.9019  1.7559  0.8395
  175DOPC  H11S21381   4.408   0.527  10.109 -0.2386 -0.2832  2.4239
  175DOPC  C21221382   4.435   0.385  10.265 -0.2362  0.4336 -0.3040
  175DOPC  H12R21383   4.361   0.464  10.291 -1.2378 -0.3154 -0.7693
  175DOPC  H12S21384   4.528   0.395  10.325 -0.4937  3.2392 -0.2175
  175DOPC  C21321385   4.377   0.246  10.299  0.2842 -0.1518 -0.1028
  175DOPC  H13R21386   4.455   0.169  10.284 -1.1580 -1.6427 -0.2073
  175DOPC  H13S21387   4.295   0.240  10.224  1.0771  2.2217 -1.2567
  175DOPC  C21421388   4.303   0.222  10.431  0.5418 -0.1615  0.6848
  175DOPC  H14R21389   4.254   0.123  10.424  0.0218  0.0524  1.2311
  175DOPC  H14S21390   4.225   0.301  10.431 -0.4117 -1.0806 -0.3280
  175DOPC  C21521391   4.386   0.223  10.562 -1.0146 -0.0245 -0.4313
  175DOPC  H15R21392   4.448   0.315  10.555 -2.1317  0.7495 -0.5008
  175DOPC  H15S21393   4.455   0.139  10.582 -0.0902  0.7766 -0.1464
  175DOPC  C21621394   4.309   0.254  10.695 -0.0273 -0.3174 -0.3231
  175DOPC  H16R21395   4.218   0.191  10.703 -0.2678  0.0255 -0.3409
  175DOPC  H16S21396   4.273   0.359  10.688  0.8054 -0.0599 -1.0120
  175DOPC  C21721397   4.410   0.227  10.812 -0.0040  0.4370  0.0100
  175DOPC  H17R21398   4.502   0.284  10.791  0.8312 -0.9935 -0.3395
  175DOPC  H17S21399   4.410   0.116  10.815 -2.5861  0.3873  1.4968
  175DOPC  C21821400   4.350   0.263  10.951 -0.2297  0.1547 -0.3257
  175DOPC  H18R21401   4.256   0.212  10.978  0.5345 -1.2584 -0.2085
  175DOPC  H18S21402   4.327   0.371  10.951  1.1259  0.4880  1.3178
  175DOPC  H18T21403   4.432   0.253  11.025  0.9594  2.1277 -1.2912
  175DOPC   C3321404   3.633   0.427   9.674  0.6832  0.3707 -0.5255
  175DOPC   H3X21405   3.579   0.345   9.726 -0.9331  1.4584 -0.4351
  175DOPC   H3Y21406   3.557   0.483   9.616 -1.1306 -1.7182 -0.2646
  175DOPC   C3421407   3.690   0.523   9.777  0.1094  0.0529 -1.0530
  175DOPC   H4X21408   3.713   0.608   9.710  0.0651 -1.8516 -3.6237
  175DOPC   H4Y21409   3.778   0.479   9.829 -1.3265  0.3624  1.8350
  175DOPC   C3521410   3.581   0.548   9.880 -0.1177 -0.5842 -0.0743
  175DOPC   H5X21411   3.485   0.568   9.828 -0.8265 -1.0129  1.0227
  175DOPC   H5Y21412   3.603   0.637   9.942  2.0137  0.2546 -1.9167
  175DOPC   C3621413   3.561   0.441   9.987  0.3416 -0.0451 -0.6139
  175DOPC   H6X21414   3.520   0.346   9.948 -2.1450 -0.1686  2.0775
  175DOPC   H6Y21415   3.661   0.415  10.029 -0.3425 -0.5001  0.7761
  175DOPC   C3721416   3.475   0.476  10.106  0.1946 -0.1756 -0.0365
  175DOPC   H7X21417   3.400   0.554  10.080  0.0073 -0.0275  0.9015
  175DOPC   H7Y21418   3.417   0.388  10.143 -1.6882  1.6892  1.7714
  175DOPC   C3821419   3.559   0.543  10.221  0.0898  0.3401  0.7586
  175DOPC   H8X21420   3.480   0.605  10.269  0.5320  1.6325 -0.1138
  175DOPC   H8Y21421   3.629   0.601  10.157  1.4672 -1.8015  0.2324
  175DOPC   C3921422   3.636   0.447  10.313  0.3602 -0.6297  0.3091
  175DOPC   H9X21423   3.718   0.388  10.270  1.0205  0.4082  0.0918
  175DOPC  C31021424   3.615   0.441  10.446  0.4348 -0.2920 -0.3821
  175DOPC  H10X21425   3.673   0.369  10.505  1.7509  2.6292  2.2053
  175DOPC  C31121426   3.510   0.516  10.528  0.3338  0.2822 -0.5011
  175DOPC  H11X21427   3.434   0.438  10.548  0.8667 -0.3357 -0.8473
  175DOPC  H11Y21428   3.458   0.594  10.470 -1.6194 -0.2960  0.3842
  175DOPC  C31221429   3.567   0.549  10.670 -0.4240  0.1423  0.5542
  175DOPC  H12X21430   3.511   0.635  10.713  1.1934  1.8602 -0.6152
  175DOPC  H12Y21431   3.664   0.603  10.668  0.7932 -1.9433 -0.3567
  175DOPC  C31321432   3.559   0.437  10.771 -0.0624  1.1771 -0.1698
  175DOPC  H13X21433   3.455   0.399  10.768  0.5069 -0.5911  0.7860
  175DOPC  H13Y21434   3.628   0.356  10.739  2.9670  2.1662  3.1972
  175DOPC  C31421435   3.583   0.488  10.916 -0.3475 -0.3216  0.1091
  175DOPC  H14X21436   3.690   0.516  10.906  0.2716 -2.5593 -0.0636
  175DOPC  H14Y21437   3.518   0.575  10.942 -0.7912 -0.8748  0.8941
  175DOPC  C31521438   3.571   0.362  11.004  0.0277  0.0513 -0.6691
  175DOPC  H15X21439   3.642   0.288  10.961  1.7008  0.3101  1.4765
  175DOPC  H15Y21440   3.469   0.319  11.005  0.7925 -1.8689 -0.4043
  175DOPC  C31621441   3.614   0.413  11.142 -0.3647 -0.2013  0.1513
  175DOPC  H16X21442   3.715   0.454  11.118 -0.1719 -1.0976 -0.6614
  175DOPC  H16Y21443   3.534   0.485  11.168 -0.2416  0.9791 -2.3980
  175DOPC  C31721444   3.608   0.314  11.259  0.2724  0.1292 -0.0312
  175DOPC  H17X21445   3.695   0.246  11.245 -0.2000 -0.4073 -0.3654
  175DOPC  H17Y21446   3.619   0.368  11.356 -0.3828  0.4915 -0.1596
  175DOPC  C31821447   3.477   0.237  11.266 -0.3331 -0.0720  0.2359
  175DOPC  H18X21448   3.457   0.169  11.181 -0.0127  0.8629 -0.5965
  175DOPC  H18Y21449   3.478   0.171  11.356 -0.5360 -0.1248  0.1995
  175DOPC  H18Z21450   3.393   0.310  11.270  1.3537  2.1230 -1.4416
  176DOPC     N21451   3.421   2.806   8.758  0.6500  0.7546 -0.0027
  176DOPC   C1221452   3.518   2.880   8.847  0.5671 -0.1453 -0.9699
  176DOPC  H12A21453   3.492   2.985   8.851 -1.8755 -0.7147  0.2658
  176DOPC  H12B21454   3.617   2.881   8.805  1.0857 -1.1355  0.1793
  176DOPC   C1321455   3.282   2.828   8.811 -0.0485 -0.5094 -0.4946
  176DOPC  H13A21456   3.273   2.798   8.915  1.0550  0.3815 -0.1091
  176DOPC  H13B21457   3.244   2.929   8.805  0.6071  0.0118  2.3583
  176DOPC  H13C21458   3.220   2.768   8.747 -0.4715  0.7097 -1.2770
  176DOPC   C1421459   3.456   2.659   8.760 -0.5567 -0.0006 -0.5297
  176DOPC  H14A21460   3.551   2.628   8.718 -0.1879  0.2754  0.0836
  176DOPC  H14B21461   3.455   2.628   8.864  2.0587  1.6421  0.0748
  176DOPC  H14C21462   3.378   2.602   8.712  0.6663 -0.6967 -1.7556
  176DOPC   C1521463   3.434   2.859   8.612 -0.5254  0.3469 -0.0170
  176DOPC  H15A21464   3.537   2.865   8.580 -0.1887 -1.2971  0.6046
  176DOPC  H15B21465   3.386   2.955   8.609 -0.8979  0.2122  1.1244
  176DOPC  H15C21466   3.386   2.797   8.538 -1.6891  2.5729 -1.2165
  176DOPC   C1121467   3.535   2.831   8.998 -0.4820  0.2620  0.0609
  176DOPC  H11A21468   3.579   2.919   9.049 -2.1180  1.7814 -1.0508
  176DOPC  H11B21469   3.438   2.810   9.049  0.6462 -2.8690  1.1857
  176DOPC     P21470   3.761   2.692   8.985 -0.3055  0.3275 -0.0550
  176DOPC   O1321471   3.817   2.810   8.914 -0.0249 -0.1377  0.1554
  176DOPC   O1421472   3.775   2.559   8.922 -0.4658 -0.2684 -0.6348
  176DOPC   O1221473   3.604   2.707   9.006 -1.0138  0.4521  0.0531
  176DOPC   O1121474   3.828   2.683   9.130  0.4851  0.2240 -0.7931
  176DOPC    C121475   3.743   2.640   9.241 -0.1752 -0.7823 -0.0435
  176DOPC    HA21476   3.809   2.593   9.317  0.4638  1.2262  0.7306
  176DOPC    HB21477   3.662   2.571   9.209 -0.5796 -0.8296  1.0423
  176DOPC    C221478   3.668   2.748   9.317  0.1090 -0.3668  0.8454
  176DOPC    HS21479   3.604   2.804   9.245  1.5679  0.9701  0.5361
  176DOPC   O2121480   3.767   2.840   9.368  0.3390 -0.2603 -0.0845
  176DOPC   C2121481   3.721   2.961   9.396  0.2436  0.1562  0.8796
  176DOPC   O2221482   3.605   2.999   9.375  0.1016  0.4590  0.5238
  176DOPC   C2221483   3.831   3.035   9.458  0.1922 -0.1192 -0.2000
  176DOPC   H2R21484   3.886   3.096   9.383  0.6097 -1.6117 -1.1394
  176DOPC   H2S21485   3.909   2.973   9.507  0.8366  2.9316  3.0982
  176DOPC    C321486   3.587   2.693   9.434  0.5105 -0.1272 -0.0350
  176DOPC    HX21487   3.499   2.643   9.389  1.5789 -1.0347 -1.1891
  176DOPC    HY21488   3.544   2.777   9.493  2.8351  0.8027  0.4304
  176DOPC   O3121489   3.649   2.580   9.509 -0.3044  0.3074  0.1366
  176DOPC   C3121490   3.730   2.607   9.615  0.1553 -0.3390  0.0280
  176DOPC   O3221491   3.729   2.718   9.669 -0.0318 -0.2862  0.4055
  176DOPC   C3221492   3.807   2.484   9.647  0.0038  0.3689  0.0354
  176DOPC   H2X21493   3.744   2.420   9.713  1.4423 -2.1065 -0.8373
  176DOPC   H2Y21494   3.827   2.420   9.558 -1.4567 -0.8333  0.5228
  176DOPC   C2321495   3.784   3.129   9.569 -0.1026 -0.5358 -0.5070
  176DOPC   H3R21496   3.703   3.195   9.532 -1.0774 -0.5903  1.4060
  176DOPC   H3S21497   3.865   3.203   9.590  0.8851 -1.7099 -0.0800
  176DOPC   C2421498   3.733   3.065   9.702  0.0388  0.8957  0.6342
  176DOPC   H4R21499   3.800   2.980   9.726 -0.0036 -0.3097 -2.9153
  176DOPC   H4S21500   3.638   3.011   9.683  1.9374 -2.1943 -0.7942
  176DOPC   C2521501   3.722   3.165   9.813 -0.0225  0.1390 -0.8529
  176DOPC   H5R21502   3.635   3.228   9.786  1.0145  1.7747 -0.4955
  176DOPC   H5S21503   3.808   3.233   9.832  1.8591 -1.9026 -1.6155
  176DOPC   C2621504   3.688   3.098   9.945  0.1935  0.4962 -0.5307
  176DOPC   H6R21505   3.598   3.034   9.936  2.0469 -2.3000 -0.3814
  176DOPC   H6S21506   3.658   3.178  10.016 -2.0130  0.6045 -1.5177
  176DOPC   C2721507   3.807   3.014  10.001  0.7111  0.1479 -0.2955
  176DOPC   H7R21508   3.894   3.082  10.008  1.9240 -1.4258  0.8230
  176DOPC   H7S21509   3.825   2.928   9.934  0.1914 -0.7282  0.6546
  176DOPC   C2821510   3.775   2.955  10.140 -0.3892 -0.1928 -0.0104
  176DOPC   H8R21511   3.854   2.881  10.164  0.2843  1.2451  2.5439
  176DOPC   H8S21512   3.677   2.906  10.119 -0.8625  0.4590  0.6260
  176DOPC   C2921513   3.760   3.050  10.262 -0.4155  0.4976 -0.4789
  176DOPC   H9R21514   3.801   3.152  10.258  1.2831 -0.0395  1.4408
  176DOPC  C21021515   3.692   3.020  10.373 -0.1417 -0.2525 -0.0174
  176DOPC  H10R21516   3.710   3.088  10.458 -0.4869 -1.0275  0.6839
  176DOPC  C21121517   3.621   2.896  10.412  0.4542  0.4192  0.7574
  176DOPC  H11R21518   3.611   2.833  10.321 -2.8655  0.9468  0.6231
  176DOPC  H11S21519   3.514   2.907  10.441  0.4731  1.7801  0.3591
  176DOPC  C21221520   3.702   2.814  10.518 -0.8897 -0.1600 -0.1429
  176DOPC  H12R21521   3.812   2.823  10.504 -0.7388  0.0497  1.0278
  176DOPC  H12S21522   3.673   2.707  10.523 -0.3951 -0.2597  0.9742
  176DOPC  C21321523   3.676   2.867  10.658  0.0628  0.2699 -0.4816
  176DOPC  H13R21524   3.719   2.970  10.663 -0.0299  0.3059 -0.4276
  176DOPC  H13S21525   3.748   2.818  10.726  1.0943  0.8107 -1.1629
  176DOPC  C21421526   3.533   2.859  10.713  0.6666  0.0435 -0.2669
  176DOPC  H14R21527   3.483   2.769  10.670  2.1856 -1.7225  1.4642
  176DOPC  H14S21528   3.486   2.948  10.666 -1.1067 -1.2842 -1.1297
  176DOPC  C21521529   3.531   2.860  10.867 -0.3306  0.6054 -0.2734
  176DOPC  H15R21530   3.580   2.956  10.893 -2.9971  2.4850 -1.6829
  176DOPC  H15S21531   3.590   2.775  10.908 -0.1926  0.6929 -0.2904
  176DOPC  C21621532   3.386   2.855  10.922 -0.4349 -0.2060 -0.7378
  176DOPC  H16R21533   3.403   2.867  11.031 -3.0980  3.0775 -0.5396
  176DOPC  H16S21534   3.351   2.752  10.897 -0.8913  0.0017 -0.9640
  176DOPC  C21721535   3.293   2.965  10.878  0.8382 -0.1701  0.2328
  176DOPC  H17R21536   3.195   2.958  10.929  0.4263 -0.8800 -0.6474
  176DOPC  H17S21537   3.278   2.960  10.769  0.5515  0.2089  0.2536
  176DOPC  C21821538   3.351   3.099  10.917 -0.0940  1.1640 -0.0796
  176DOPC  H18R21539   3.267   3.172  10.922 -0.5282  0.7771 -1.3124
  176DOPC  H18S21540   3.425   3.146  10.848  2.1458 -0.2112  1.2785
  176DOPC  H18T21541   3.402   3.088  11.015 -0.0915  0.8576 -0.1166
  176DOPC   C3321542   3.946   2.512   9.715  0.6336  0.0732 -0.0717
  176DOPC   H3X21543   4.003   2.578   9.646  0.2452  0.4835 -0.0131
  176DOPC   H3Y21544   4.011   2.423   9.712 -0.3144 -0.7027  1.3565
  176DOPC   C3421545   3.934   2.560   9.861  0.3676 -0.5799 -0.2190
  176DOPC   H4X21546   3.865   2.647   9.858  1.4120  0.2556 -0.4128
  176DOPC   H4Y21547   4.032   2.598   9.895 -0.0427 -0.6164  1.0533
  176DOPC   C3521548   3.894   2.452   9.962 -0.8946 -0.2578 -0.7165
  176DOPC   H5X21549   3.980   2.382   9.965  1.7007  2.7601  1.0272
  176DOPC   H5Y21550   3.801   2.399   9.932 -0.9463 -0.3690 -0.3545
  176DOPC   C3621551   3.866   2.508  10.104 -0.1891 -0.3788  0.6430
  176DOPC   H6X21552   3.942   2.588  10.119 -1.1453  0.4448  1.2495
  176DOPC   H6Y21553   3.766   2.557  10.106 -1.3638 -2.6533  0.0869
  176DOPC   C3721554   3.875   2.392  10.199  0.5556  0.2591  0.4302
  176DOPC   H7X21555   3.809   2.313  10.156  0.1774  1.7708 -1.9201
  176DOPC   H7Y21556   3.978   2.351  10.202  0.1685 -0.8038 -0.1889
  176DOPC   C3821557   3.832   2.427  10.344 -0.1717 -0.5511 -0.1237
  176DOPC   H8X21558   3.831   2.333  10.403  0.5949 -0.1982  0.4739
  176DOPC   H8Y21559   3.728   2.464  10.327  0.4077 -0.1282 -3.4527
  176DOPC   C3921560   3.916   2.533  10.415  0.2048 -0.3565 -0.3950
  176DOPC   H9X21561   3.954   2.605  10.340 -0.1439 -2.8164 -3.0876
  176DOPC  C31021562   3.937   2.546  10.545 -0.8083  0.0603 -0.7780
  176DOPC  H10X21563   3.982   2.639  10.582 -1.7338  0.5501 -0.8403
  176DOPC  C31121564   3.875   2.460  10.656 -0.0149  0.0755 -0.3377
  176DOPC  H11X21565   3.835   2.369  10.606  2.8241 -1.9174  0.7069
  176DOPC  H11Y21566   3.791   2.508  10.711 -0.7012 -1.1032 -0.3168
  176DOPC  C31221567   3.993   2.419  10.759  0.0220 -0.0255 -0.3758
  176DOPC  H12X21568   4.060   2.347  10.706 -0.1187 -0.3159 -0.1640
  176DOPC  H12Y21569   3.935   2.360  10.834  0.8152 -0.4561 -0.0913
  176DOPC  C31321570   4.082   2.524  10.829 -0.4809  0.4736  0.1139
  176DOPC  H13X21571   4.119   2.594  10.751 -1.0330 -1.1488 -1.6783
  176DOPC  H13Y21572   4.027   2.581  10.906  0.0163  0.9823  0.1032
  176DOPC  C31421573   4.201   2.445  10.891  0.4200 -0.5495  0.2511
  176DOPC  H14X21574   4.248   2.400  10.801 -4.0781 -2.6707 -1.3506
  176DOPC  H14Y21575   4.259   2.522  10.944 -0.3526  1.8096 -2.1034
  176DOPC  C31521576   4.167   2.332  10.991 -0.0407  1.0996 -0.4104
  176DOPC  H15X21577   4.089   2.264  10.953  0.0549 -0.3541  1.7907
  176DOPC  H15Y21578   4.134   2.386  11.083  0.8994  3.1723 -1.2171
  176DOPC  C31621579   4.298   2.247  11.032 -0.5151  0.3303 -0.0920
  176DOPC  H16X21580   4.334   2.192  10.943  2.3015  0.5241  0.8370
  176DOPC  H16Y21581   4.374   2.320  11.068 -0.0549 -0.1229 -0.1391
  176DOPC  C31721582   4.264   2.136  11.133 -0.4167  0.0942  0.5158
  176DOPC  H17X21583   4.259   2.183  11.234  0.0047 -0.4691  0.8031
  176DOPC  H17Y21584   4.171   2.085  11.099 -2.1206  4.1756 -1.6726
  176DOPC  C31821585   4.366   2.026  11.151 -0.1260  0.2673 -0.2713
  176DOPC  H18X21586   4.342   1.935  11.210  1.0623 -0.6059 -1.1013
  176DOPC  H18Y21587   4.389   1.983  11.051  2.1040  0.4977  0.0947
  176DOPC  H18Z21588   4.464   2.061  11.191  0.3523 -1.6877  0.3436
  177DOPC     N21589   5.177   6.398   8.566 -0.1895  0.5018 -0.2744
  177DOPC   C1221590   5.229   6.346   8.703 -0.3740 -0.1669 -0.1778
  177DOPC  H12A21591   5.336   6.329   8.704 -0.2311  0.5500  2.1978
  177DOPC  H12B21592   5.189   6.248   8.725  1.6747 -0.9055  0.5096
  177DOPC   C1321593   5.220   6.310   8.456 -0.2977 -0.3513  0.9828
  177DOPC  H13A21594   5.157   6.329   8.370 -0.7232  0.9395  1.5433
  177DOPC  H13B21595   5.326   6.328   8.444 -0.4980  3.4793  3.0142
  177DOPC  H13C21596   5.202   6.207   8.481  0.5977 -0.9316 -0.6653
  177DOPC   C1421597   5.228   6.537   8.540  0.2004  0.8929  0.5715
  177DOPC  H14A21598   5.334   6.525   8.556  0.1586  1.3610  1.2365
  177DOPC  H14B21599   5.214   6.569   8.438 -0.5149  1.3263  0.7987
  177DOPC  H14C21600   5.196   6.608   8.615 -1.4882  0.3452  0.3996
  177DOPC   C1521601   5.032   6.412   8.566  0.2678  0.5354 -0.3767
  177DOPC  H15A21602   4.989   6.473   8.645 -1.5553 -0.4169 -0.5743
  177DOPC  H15B21603   4.983   6.318   8.589  2.6663 -0.6058  0.3248
  177DOPC  H15C21604   4.999   6.451   8.470 -0.9793 -0.6726 -0.4684
  177DOPC   C1121605   5.210   6.438   8.825  0.8231  0.4129  0.1047
  177DOPC  H11A21606   5.285   6.429   8.906 -0.8622  1.4900  1.8652
  177DOPC  H11B21607   5.217   6.545   8.794 -1.4012  0.2744 -1.0648
  177DOPC     P21608   5.034   6.285   8.947 -0.2069  0.4465 -0.1500
  177DOPC   O1321609   5.105   6.171   8.884  0.6316  0.8476 -0.7493
  177DOPC   O1421610   4.888   6.274   8.955  0.1537 -0.0040 -0.7777
  177DOPC   O1221611   5.078   6.424   8.875  0.8534  0.1915  0.0621
  177DOPC   O1121612   5.100   6.311   9.089  0.5680 -0.7128  0.2676
  177DOPC    C121613   5.120   6.440   9.150  0.3518 -0.0813  0.1304
  177DOPC    HA21614   5.047   6.514   9.110  0.3008 -0.2618 -0.1090
  177DOPC    HB21615   5.219   6.485   9.127 -0.6337  2.5845  0.7230
  177DOPC    C221616   5.086   6.427   9.297 -0.3030  0.0798 -1.2381
  177DOPC    HS21617   5.113   6.520   9.352  1.5129 -1.5232  0.7489
  177DOPC   O2121618   5.141   6.318   9.366 -0.1638  0.5119  0.7706
  177DOPC   C2121619   5.276   6.340   9.385 -0.3902  0.0329 -0.1707
  177DOPC   O2221620   5.335   6.435   9.348 -0.2779 -0.5177 -0.2538
  177DOPC   C2221621   5.334   6.227   9.475 -0.4284 -0.1376 -0.7269
  177DOPC   H2R21622   5.420   6.178   9.425  1.2133  1.6008  0.2921
  177DOPC   H2S21623   5.259   6.146   9.490 -0.8960  0.3096 -0.6069
  177DOPC    C321624   4.935   6.412   9.300  0.2883 -0.0043 -0.4830
  177DOPC    HX21625   4.902   6.317   9.253 -1.8282  0.7292 -0.5515
  177DOPC    HY21626   4.881   6.496   9.252 -1.7390 -0.4173  0.9643
  177DOPC   O3121627   4.898   6.408   9.436  0.2098  0.1071  0.1169
  177DOPC   C3121628   4.846   6.297   9.490 -0.0828  0.1659  0.0944
  177DOPC   O3221629   4.807   6.199   9.431 -0.4703  0.2334  1.0970
  177DOPC   C3221630   4.854   6.297   9.638 -0.2712  0.1434 -0.3280
  177DOPC   H2X21631   4.904   6.199   9.653 -1.1489 -0.1424  0.8592
  177DOPC   H2Y21632   4.920   6.377   9.679  1.5755 -1.1363 -0.6810
  177DOPC   C2321633   5.372   6.278   9.618  0.0761  0.0561 -0.7167
  177DOPC   H3R21634   5.417   6.379   9.605  0.3207  0.3069  1.6576
  177DOPC   H3S21635   5.443   6.211   9.671 -2.3268 -0.1495  2.5533
  177DOPC   C2421636   5.249   6.301   9.710 -0.0282 -0.1550  0.3100
  177DOPC   H4R21637   5.223   6.206   9.762 -0.1940  0.0725  0.6412
  177DOPC   H4S21638   5.170   6.342   9.645 -1.1670  0.1697  1.8579
  177DOPC   C2521639   5.276   6.406   9.819  0.4073 -0.2261 -0.8163
  177DOPC   H5R21640   5.184   6.430   9.876  0.3982 -1.6964 -0.1679
  177DOPC   H5S21641   5.301   6.501   9.767 -1.4961  0.5531 -0.4144
  177DOPC   C2621642   5.389   6.379   9.919 -0.1382 -0.1304  0.1943
  177DOPC   H6R21643   5.479   6.337   9.870 -0.4675  1.0139 -1.4854
  177DOPC   H6S21644   5.357   6.301   9.991  3.1966 -1.3625  0.4759
  177DOPC   C2721645   5.435   6.497  10.015 -0.0356  0.2842  0.7620
  177DOPC   H7R21646   5.347   6.528  10.075 -0.2409  2.2988 -0.4889
  177DOPC   H7S21647   5.468   6.584   9.954 -0.4618 -0.1711 -0.1325
  177DOPC   C2821648   5.545   6.456  10.118 -0.1222 -0.0882  0.1229
  177DOPC   H8R21649   5.642   6.438  10.067  2.0679  2.1064  3.1861
  177DOPC   H8S21650   5.511   6.357  10.155 -1.2259  0.0224 -0.5270
  177DOPC   C2921651   5.556   6.554  10.233 -0.9857  0.1402 -0.1545
  177DOPC   H9R21652   5.644   6.621  10.236 -1.0788  0.2812  2.9701
  177DOPC  C21021653   5.475   6.548  10.341 -0.2321 -0.0782  0.5799
  177DOPC  H10R21654   5.482   6.630  10.414  0.3482  2.5115 -2.1692
  177DOPC  C21121655   5.370   6.444  10.365  0.0562  0.0407 -0.3615
  177DOPC  H11R21656   5.413   6.343  10.380 -1.2287 -1.0470 -3.2011
  177DOPC  H11S21657   5.308   6.437  10.273  0.7988  1.0822 -0.9673
  177DOPC  C21221658   5.286   6.465  10.500 -0.3487  0.5283  0.1214
  177DOPC  H12R21659   5.181   6.439  10.477  0.2982 -1.5314 -0.7286
  177DOPC  H12S21660   5.290   6.573  10.527  0.9490  1.0051 -1.7440
  177DOPC  C21321661   5.332   6.376  10.612 -0.0478  0.1074 -0.0619
  177DOPC  H13R21662   5.438   6.392  10.641 -0.7698  2.5841  1.5585
  177DOPC  H13S21663   5.321   6.270  10.582 -1.0125 -0.8338  3.2410
  177DOPC  C21421664   5.259   6.398  10.738  0.4907  0.3707  0.1911
  177DOPC  H14R21665   5.259   6.307  10.803  1.5637 -1.2278 -1.9291
  177DOPC  H14S21666   5.153   6.406  10.706  0.0668  2.0355  1.7907
  177DOPC  C21521667   5.305   6.522  10.816 -0.1081  0.0641  0.1177
  177DOPC  H15R21668   5.322   6.604  10.743  0.0952 -0.6916 -0.7051
  177DOPC  H15S21669   5.399   6.499  10.870  0.0518  1.6198  0.5359
  177DOPC  C21621670   5.210   6.582  10.917 -0.0949  0.0617  0.7951
  177DOPC  H16R21671   5.107   6.600  10.877 -0.3359 -0.3356  1.2372
  177DOPC  H16S21672   5.246   6.685  10.940  1.1115  0.1097 -1.1195
  177DOPC  C21721673   5.219   6.495  11.043 -0.1496  0.1981  0.6587
  177DOPC  H17R21674   5.325   6.483  11.073  0.3446  0.5630 -0.8904
  177DOPC  H17S21675   5.184   6.393  11.018 -0.2054  0.2453  0.5468
  177DOPC  C21821676   5.129   6.553  11.157 -0.2552  0.1216 -0.1448
  177DOPC  H18R21677   5.167   6.650  11.195  0.2273  0.2782 -0.9878
  177DOPC  H18S21678   5.126   6.484  11.244 -1.5191 -0.5889 -0.7292
  177DOPC  H18T21679   5.028   6.565  11.112 -0.0225 -1.3012 -1.1452
  177DOPC   C3321680   4.725   6.297   9.720 -0.0865 -0.5093  0.1751
  177DOPC   H3X21681   4.682   6.197   9.698  3.2738 -2.2623  0.9875
  177DOPC   H3Y21682   4.652   6.378   9.699  0.9648  0.3618 -0.2274
  177DOPC   C3421683   4.763   6.297   9.870  0.9828  0.4691 -0.4001
  177DOPC   H4X21684   4.837   6.379   9.888  1.1034  0.3545 -0.3703
  177DOPC   H4Y21685   4.807   6.199   9.898  0.0685  0.2448  0.3058
  177DOPC   C3521686   4.642   6.328   9.958 -0.1108 -0.2155  0.4157
  177DOPC   H5X21687   4.568   6.245   9.955 -3.4006  2.5133 -0.8417
  177DOPC   H5Y21688   4.585   6.417   9.923 -3.7804 -1.6225  2.3107
  177DOPC   C3621689   4.680   6.349  10.106 -0.0052 -0.3925 -0.1665
  177DOPC   H6X21690   4.694   6.457  10.125 -0.7727  0.1958 -2.5562
  177DOPC   H6Y21691   4.596   6.320  10.172  0.0074 -0.8478 -0.3456
  177DOPC   C3721692   4.804   6.275  10.156 -0.1088 -0.9751  0.0375
  177DOPC   H7X21693   4.791   6.165  10.141  0.4376 -1.0364 -0.0272
  177DOPC   H7Y21694   4.889   6.300  10.089  0.8785 -0.7505  1.3426
  177DOPC   C3821695   4.823   6.301  10.300 -0.2752  0.1221  0.0757
  177DOPC   H8X21696   4.739   6.273  10.367 -1.2297 -1.1369 -1.5623
  177DOPC   H8Y21697   4.804   6.410  10.295 -1.8906 -0.0799  1.2554
  177DOPC   C3921698   4.961   6.269  10.352  0.0530  1.2263 -0.3782
  177DOPC   H9X21699   5.047   6.307  10.295  1.4946 -0.2754  0.6908
  177DOPC  C31021700   4.986   6.189  10.461 -0.2374 -0.0801 -0.0650
  177DOPC  H10X21701   5.089   6.170  10.495 -0.6644 -0.6421  0.9373
  177DOPC  C31121702   4.887   6.133  10.565  0.4620 -0.4587  0.3651
  177DOPC  H11X21703   4.907   6.033  10.608  0.5654 -1.5436 -2.0048
  177DOPC  H11Y21704   4.785   6.124  10.522  0.3221  0.2440  0.5388
  177DOPC  C31221705   4.885   6.231  10.683  0.5601 -0.2784 -0.6685
  177DOPC  H12X21706   4.878   6.335  10.646 -0.7347 -0.2166 -0.2792
  177DOPC  H12Y21707   4.984   6.233  10.734 -0.0735  1.8251  0.5990
  177DOPC  C31321708   4.787   6.207  10.799 -0.0818 -0.6353 -0.3363
  177DOPC  H13X21709   4.685   6.227  10.761  0.2168 -0.2536 -0.9450
  177DOPC  H13Y21710   4.799   6.102  10.832  3.1701 -0.0401  0.7581
  177DOPC  C31421711   4.812   6.299  10.924 -0.0915  0.0016  0.0051
  177DOPC  H14X21712   4.922   6.298  10.935 -0.1133 -3.1077  0.8432
  177DOPC  H14Y21713   4.780   6.405  10.909 -0.0073 -0.2767 -2.5250
  177DOPC  C31521714   4.742   6.234  11.041 -0.2373 -0.0484  0.0987
  177DOPC  H15X21715   4.777   6.129  11.038 -0.7798 -0.2576  0.9916
  177DOPC  H15Y21716   4.633   6.231  11.024 -0.6220 -0.7334  2.3125
  177DOPC  C31621717   4.770   6.293  11.184  0.3643  0.5924  0.2725
  177DOPC  H16X21718   4.879   6.291  11.203  0.3651  1.5195  0.3748
  177DOPC  H16Y21719   4.743   6.401  11.183  1.1166  0.8022  1.3568
  177DOPC  C31721720   4.701   6.213  11.295  0.4826 -0.0085 -0.3259
  177DOPC  H17X21721   4.722   6.273  11.386  0.9237  2.4679 -1.9708
  177DOPC  H17Y21722   4.591   6.204  11.283  0.4082  0.0297  0.3175
  177DOPC  C31821723   4.753   6.070  11.311  0.7816  0.8752 -0.0883
  177DOPC  H18X21724   4.863   6.072  11.328  0.6267 -0.3833  1.3370
  177DOPC  H18Y21725   4.721   6.007  11.397  1.5223 -0.1823 -0.5544
  177DOPC  H18Z21726   4.734   6.008  11.221  1.6899  0.5729 -0.0816
  178DOPC     N21727   2.499   6.257   8.870 -0.2158 -0.4344  0.8374
  178DOPC   C1221728   2.638   6.306   8.827 -0.7245  0.0797 -0.0493
  178DOPC  H12A21729   2.691   6.212   8.824 -0.6379  0.1235  0.1247
  178DOPC  H12B21730   2.672   6.372   8.905  1.3448  1.0294 -1.6640
  178DOPC   C1321731   2.404   6.373   8.866 -0.4334 -0.4395  0.4361
  178DOPC  H13A21732   2.419   6.425   8.960 -0.4500 -1.3062  0.9302
  178DOPC  H13B21733   2.426   6.437   8.782 -1.7110 -0.9690 -0.3308
  178DOPC  H13C21734   2.300   6.345   8.861 -0.4617 -0.1598 -1.2986
  178DOPC   C1421735   2.503   6.197   9.004 -0.1218  0.1118 -0.1878
  178DOPC  H14A21736   2.527   6.269   9.081  0.9294 -2.2090  1.7974
  178DOPC  H14B21737   2.404   6.155   9.017 -0.5448  0.7482 -1.2264
  178DOPC  H14C21738   2.568   6.111   9.018 -2.2059 -1.2474  2.0678
  178DOPC   C1521739   2.461   6.154   8.769  0.4459 -0.0943 -0.4680
  178DOPC  H15A21740   2.360   6.120   8.786  1.3737 -2.0170  1.8744
  178DOPC  H15B21741   2.524   6.066   8.776  0.6830  0.0777 -0.4502
  178DOPC  H15C21742   2.477   6.195   8.670  0.8965 -0.4078 -0.5283
  178DOPC   C1121743   2.655   6.378   8.694  0.1717 -0.1764  0.4663
  178DOPC  H11A21744   2.759   6.355   8.663 -0.0296 -0.6200  0.1159
  178DOPC  H11B21745   2.600   6.330   8.610  1.8187 -1.3964  0.0405
  178DOPC     P21746   2.660   6.621   8.592 -0.6918  0.3170  0.6540
  178DOPC   O1321747   2.595   6.602   8.462 -0.3405  0.4263 -0.3823
  178DOPC   O1421748   2.806   6.628   8.585 -0.2529 -0.0087  0.1403
  178DOPC   O1221749   2.616   6.515   8.706 -0.2152  0.1515 -0.3083
  178DOPC   O1121750   2.607   6.753   8.650 -0.9609  0.6035 -0.4075
  178DOPC    C121751   2.466   6.775   8.669 -0.4790  0.0420 -0.3828
  178DOPC    HA21752   2.410   6.680   8.662 -0.3897 -0.0296 -0.1286
  178DOPC    HB21753   2.431   6.851   8.595  2.4494  1.8832 -0.0808
  178DOPC    C221754   2.418   6.827   8.812 -0.4954  0.5240 -0.0813
  178DOPC    HS21755   2.311   6.856   8.819 -0.2533  1.0341  3.0251
  178DOPC   O2121756   2.502   6.940   8.847 -0.2124  0.0345 -0.2685
  178DOPC   C2121757   2.481   7.047   8.782  0.1558 -0.7137 -0.4309
  178DOPC   O2221758   2.385   7.062   8.704  0.3474  0.1570 -0.4747
  178DOPC   C2221759   2.553   7.160   8.856 -0.4442  0.2722 -0.2051
  178DOPC   H2R21760   2.558   7.248   8.788 -1.4251 -0.8801 -1.8309
  178DOPC   H2S21761   2.657   7.126   8.878 -1.0465 -0.5584  1.5760
  178DOPC    C321762   2.442   6.725   8.925  0.0481 -0.2329 -0.2094
  178DOPC    HX21763   2.552   6.708   8.928  0.3566  1.6563  1.6122
  178DOPC    HY21764   2.393   6.630   8.899  0.7024 -0.9281  1.0176
  178DOPC   O3121765   2.397   6.767   9.055  0.2526  0.0079  0.9868
  178DOPC   C3121766   2.376   6.668   9.139 -0.2055 -0.1746 -0.4649
  178DOPC   O3221767   2.408   6.553   9.121 -0.0775 -0.2442 -0.4714
  178DOPC   C3221768   2.309   6.724   9.265 -0.5009  0.2682 -0.9799
  178DOPC   H2X21769   2.284   6.832   9.252  1.3764  0.4599 -3.8129
  178DOPC   H2Y21770   2.215   6.668   9.282 -1.0119  1.2324 -0.5096
  178DOPC   C2321771   2.488   7.205   8.989  1.0509 -0.1518  0.4202
  178DOPC   H3R21772   2.377   7.203   8.986  1.0620  0.0990 -1.1382
  178DOPC   H3S21773   2.506   7.314   9.003  0.2746  0.0065  0.2383
  178DOPC   C2421774   2.530   7.141   9.117 -0.2141 -0.1038  0.6394
  178DOPC   H4R21775   2.641   7.136   9.118 -0.0640  0.0577 -2.7470
  178DOPC   H4S21776   2.484   7.040   9.128 -0.8365 -0.1716 -2.0193
  178DOPC   C2521777   2.491   7.234   9.233 -0.3509  0.7781  0.2915
  178DOPC   H5R21778   2.381   7.251   9.227 -0.5012  0.0212  0.8158
  178DOPC   H5S21779   2.536   7.334   9.216 -0.6099  0.8036 -0.3104
  178DOPC   C2621780   2.545   7.184   9.368 -0.3952  0.2884 -0.4943
  178DOPC   H6R21781   2.656   7.180   9.367 -0.2705  2.3596  0.7575
  178DOPC   H6S21782   2.521   7.076   9.379  0.9978 -0.1023 -1.0739
  178DOPC   C2721783   2.495   7.273   9.484 -1.0434  0.5796  0.7115
  178DOPC   H7R21784   2.387   7.250   9.496 -0.6064 -1.5156  1.1615
  178DOPC   H7S21785   2.506   7.379   9.454 -0.9019  1.3391  3.2272
  178DOPC   C2821786   2.565   7.248   9.618 -0.5227  0.1670 -0.0897
  178DOPC   H8R21787   2.560   7.140   9.643 -0.3887  0.5150  1.5441
  178DOPC   H8S21788   2.516   7.285   9.711  1.8953 -0.6129  1.6064
  178DOPC   C2921789   2.714   7.285   9.627 -0.2147 -0.1247 -0.2400
  178DOPC   H9R21790   2.772   7.277   9.533  1.8139 -0.0443  0.9581
  178DOPC  C21021791   2.795   7.308   9.737  0.1522 -0.8084 -0.4353
  178DOPC  H10R21792   2.897   7.346   9.719  0.2846 -0.8579  0.1826
  178DOPC  C21121793   2.749   7.299   9.882  0.0673  0.6835  0.5096
  178DOPC  H11R21794   2.651   7.350   9.891 -0.5954 -0.6758  1.4098
  178DOPC  H11S21795   2.807   7.359   9.956  0.4523  0.5614  0.3064
  178DOPC  C21221796   2.724   7.159   9.934  0.0949  0.6143  0.0721
  178DOPC  H12R21797   2.822   7.109   9.931 -0.4537 -0.4546 -1.3481
  178DOPC  H12S21798   2.661   7.114   9.854  0.5248  0.9872 -0.4836
  178DOPC  C21321799   2.653   7.139  10.062  0.7327  0.0356  0.4725
  178DOPC  H13R21800   2.597   7.043  10.052  1.1649 -0.0003 -2.1344
  178DOPC  H13S21801   2.574   7.218  10.065  0.9399  0.4586 -2.7270
  178DOPC  C21421802   2.748   7.148  10.184  0.0716  0.2680 -1.0525
  178DOPC  H14R21803   2.833   7.219  10.179 -1.9934  3.3166  2.6078
  178DOPC  H14S21804   2.788   7.045  10.199  1.0791  0.8277  0.2122
  178DOPC  C21521805   2.674   7.192  10.307 -0.1328 -0.2576 -1.1490
  178DOPC  H15R21806   2.605   7.109  10.334  0.3642 -0.1699  0.5289
  178DOPC  H15S21807   2.613   7.284  10.296  0.0024  0.2043  1.2431
  178DOPC  C21621808   2.768   7.218  10.430 -0.3380 -0.5585 -0.1775
  178DOPC  H16R21809   2.809   7.321  10.438 -0.5472 -0.5713  1.2901
  178DOPC  H16S21810   2.848   7.141  10.428  1.5166  1.1712  1.7307
  178DOPC  C21721811   2.680   7.209  10.558  0.4011 -0.0537 -0.1350
  178DOPC  H17R21812   2.638   7.106  10.559  1.2242 -0.4003 -0.5099
  178DOPC  H17S21813   2.598   7.282  10.540  0.0771 -0.1671  0.8159
  178DOPC  C21821814   2.756   7.254  10.687  0.5590  0.3359  0.3436
  178DOPC  H18R21815   2.789   7.359  10.668  0.6295  0.6309  1.9855
  178DOPC  H18S21816   2.848   7.200  10.714  1.7858  2.4930  0.7344
  178DOPC  H18T21817   2.681   7.244  10.769 -1.6806 -2.2670 -1.8198
  178DOPC   C3321818   2.409   6.722   9.382  0.5610 -0.2791 -0.1394
  178DOPC   H3X21819   2.494   6.791   9.364  0.2836 -0.5627 -2.9003
  178DOPC   H3Y21820   2.458   6.623   9.382  0.6002 -0.2688 -1.1405
  178DOPC   C3421821   2.338   6.757   9.517 -0.4151 -0.3026  0.6876
  178DOPC   H4X21822   2.245   6.703   9.546 -0.4055 -0.7360 -0.0672
  178DOPC   H4Y21823   2.303   6.863   9.515  1.2646  0.3110  1.7720
  178DOPC   C3521824   2.432   6.740   9.639 -0.5656  0.5424 -0.1641
  178DOPC   H5X21825   2.521   6.807   9.637 -0.5886  0.5710 -0.2502
  178DOPC   H5Y21826   2.471   6.636   9.635 -1.4303 -0.0136  2.8935
  178DOPC   C3621827   2.353   6.753   9.773 -0.3648  0.8298 -0.3828
  178DOPC   H6X21828   2.260   6.693   9.760 -0.8363  1.7250 -1.2784
  178DOPC   H6Y21829   2.419   6.718   9.855 -0.2458 -0.3631 -0.9604
  178DOPC   C3721830   2.332   6.896   9.815  0.1978 -0.3290 -0.0609
  178DOPC   H7X21831   2.424   6.957   9.816  0.1224 -0.2239  0.5343
  178DOPC   H7Y21832   2.262   6.950   9.747  0.4063 -2.2026 -1.8735
  178DOPC   C3821833   2.276   6.911   9.957  0.2743 -0.7561 -0.5590
  178DOPC   H8X21834   2.358   6.888  10.027  0.1329 -1.4055 -0.5962
  178DOPC   H8Y21835   2.204   6.828   9.975  1.1576 -1.2122  0.9871
  178DOPC   C3921836   2.220   7.043   9.979 -0.6997  0.1413  0.6033
  178DOPC   H9X21837   2.222   7.100   9.885 -0.9646  0.9391  1.0701
  178DOPC  C31021838   2.186   7.100  10.095 -0.3107 -0.8846  0.2669
  178DOPC  H10X21839   2.152   7.205  10.089 -0.4827 -0.9951 -1.2227
  178DOPC  C31121840   2.196   7.035  10.233  0.1222  0.2150  0.5271
  178DOPC  H11X21841   2.233   6.931  10.230  0.6359  0.3967  0.4686
  178DOPC  H11Y21842   2.093   7.031  10.276  0.0973 -3.2848  0.3809
  178DOPC  C31221843   2.281   7.117  10.338  0.3058 -0.3988  0.6578
  178DOPC  H12X21844   2.210   7.202  10.348 -3.9536 -3.6508  0.9348
  178DOPC  H12Y21845   2.381   7.151  10.305 -0.2975  0.8431  0.0361
  178DOPC  C31321846   2.295   7.054  10.478 -0.5022  0.3504  0.2710
  178DOPC  H13X21847   2.195   7.010  10.497 -0.4156 -0.6851 -1.4546
  178DOPC  H13Y21848   2.384   6.986  10.479  1.1454  2.3126 -1.6452
  178DOPC  C31421849   2.313   7.163  10.584  0.6663 -0.1424  0.5650
  178DOPC  H14X21850   2.414   7.209  10.570  0.5514  0.3771  1.3863
  178DOPC  H14Y21851   2.239   7.242  10.558 -0.3370 -1.0977  0.4660
  178DOPC  C31521852   2.312   7.110  10.728  0.4850  0.7022  0.8986
  178DOPC  H15X21853   2.408   7.061  10.758  0.8769  1.2438  0.5433
  178DOPC  H15Y21854   2.219   7.054  10.750 -2.4558  4.2618 -1.4966
  178DOPC  C31621855   2.326   7.228  10.825  0.1399 -0.3548 -0.6973
  178DOPC  H16X21856   2.423   7.275  10.797  0.6985 -1.1514 -0.1288
  178DOPC  H16Y21857   2.247   7.306  10.822  0.4635 -0.0376 -0.9494
  178DOPC  C31721858   2.325   7.177  10.978  0.2421  0.2678  1.0955
  178DOPC  H17X21859   2.379   7.080  10.986 -1.3630 -0.8777 -0.7475
  178DOPC  H17Y21860   2.372   7.262  11.032  2.3287 -0.0784 -0.0835
  178DOPC  C31821861   2.180   7.153  11.032 -0.0616  0.6137  0.5949
  178DOPC  H18X21862   2.128   7.069  10.982  3.3895 -0.6403 -1.2084
  178DOPC  H18Y21863   2.189   7.127  11.140  0.6668 -0.8341  0.2079
  178DOPC  H18Z21864   2.116   7.244  11.024  0.5049  0.9843  0.1819
  179DOPC     N21865   5.698   5.268   9.152 -0.0453  0.7838 -0.2667
  179DOPC   C1221866   5.609   5.333   9.267  0.5411  0.2143  0.2908
  179DOPC  H12A21867   5.556   5.255   9.319  1.0142 -0.8937 -0.8149
  179DOPC  H12B21868   5.534   5.396   9.221  0.0462 -1.1593 -0.8883
  179DOPC   C1321869   5.609   5.191   9.061 -0.2545 -0.8861  0.3346
  179DOPC  H13A21870   5.543   5.257   9.008 -1.1617 -1.2774  0.9492
  179DOPC  H13B21871   5.672   5.146   8.986  1.2758 -0.7206  1.4730
  179DOPC  H13C21872   5.553   5.121   9.121 -2.6353 -0.1256 -0.9039
  179DOPC   C1421873   5.808   5.181   9.219  0.4024 -0.0938 -0.7680
  179DOPC  H14A21874   5.861   5.241   9.292 -2.6204  1.8794 -0.0376
  179DOPC  H14B21875   5.773   5.097   9.278 -0.7964 -0.7926 -2.4117
  179DOPC  H14C21876   5.867   5.141   9.138 -0.1590  0.4078 -1.4261
  179DOPC   C1521877   5.767   5.378   9.073 -0.4001  0.2635  0.1461
  179DOPC  H15A21878   5.824   5.442   9.139  0.2309 -0.2994  0.1599
  179DOPC  H15B21879   5.687   5.432   9.025  0.3682 -0.9130 -2.6383
  179DOPC  H15C21880   5.833   5.341   8.997  1.4375 -2.0127  2.6524
  179DOPC   C1121881   5.672   5.435   9.373 -0.8421  0.0615  0.2586
  179DOPC  H11A21882   5.721   5.512   9.309 -0.5088  0.4341  0.9544
  179DOPC  H11B21883   5.600   5.496   9.432  1.0910  1.1493  1.5949
  179DOPC     P21884   5.912   5.437   9.485 -0.1639  0.3120  0.6558
  179DOPC   O1321885   5.898   5.572   9.430  0.0352 -0.6465  0.2105
  179DOPC   O1421886   6.019   5.349   9.434  0.2203 -0.4082  0.4267
  179DOPC   O1221887   5.766   5.367   9.463  0.1239  0.2974 -0.0836
  179DOPC   O1121888   5.906   5.451   9.635 -0.9935 -0.1167 -0.1257
  179DOPC    C121889   6.012   5.534   9.703  0.3675 -0.1619  0.8313
  179DOPC    HA21890   5.975   5.544   9.808  2.3324  0.6095  1.4939
  179DOPC    HB21891   6.041   5.635   9.671  0.1372  0.3511  2.1687
  179DOPC    C221892   6.145   5.444   9.708  0.2544  0.8544 -0.1898
  179DOPC    HS21893   6.171   5.432   9.601 -0.4659 -0.9315 -0.2116
  179DOPC   O2121894   6.121   5.315   9.768 -0.3148  1.0000 -0.3730
  179DOPC   C2121895   6.192   5.213   9.733  0.3540 -0.1634  1.0744
  179DOPC   O2221896   6.281   5.221   9.648  0.2951  0.6591 -0.6628
  179DOPC   C2221897   6.156   5.090   9.810  0.4896  0.3659 -0.2747
  179DOPC   H2R21898   6.048   5.067   9.810  0.9483 -2.0163  0.0218
  179DOPC   H2S21899   6.176   5.117   9.916 -0.3285 -0.8435  0.2154
  179DOPC    C321900   6.267   5.516   9.762 -0.5074  0.0950 -0.1310
  179DOPC    HX21901   6.279   5.611   9.706 -0.3618  0.3259  0.2892
  179DOPC    HY21902   6.362   5.462   9.742 -1.8492 -2.7418  0.6517
  179DOPC   O3121903   6.248   5.546   9.897 -0.3815 -0.3284 -0.3852
  179DOPC   C3121904   6.314   5.471   9.989 -0.0713 -0.1254 -0.2440
  179DOPC   O3221905   6.407   5.398   9.970 -0.8201  0.3430  0.4646
  179DOPC   C3221906   6.258   5.505  10.125 -0.0188  0.3795 -0.7426
  179DOPC   H2X21907   6.166   5.566  10.119  0.2087  0.8153  0.0017
  179DOPC   H2Y21908   6.240   5.405  10.170 -1.5564  1.4759  1.2224
  179DOPC   C2321909   6.233   4.961   9.770  0.3056 -0.1134  0.3803
  179DOPC   H3R21910   6.223   4.947   9.661 -1.9368  3.0473  0.0387
  179DOPC   H3S21911   6.175   4.878   9.816 -1.6412  2.3370  2.7393
  179DOPC   C2421912   6.379   4.957   9.821  0.1630 -0.4772  0.1308
  179DOPC   H4R21913   6.440   5.025   9.758 -0.7562  0.3949  0.1800
  179DOPC   H4S21914   6.416   4.852   9.810 -3.7378 -1.9980  0.1476
  179DOPC   C2521915   6.399   4.984   9.970  0.5440  0.3660  0.2793
  179DOPC   H5R21916   6.370   5.091   9.983 -0.6715 -0.0358  1.0078
  179DOPC   H5S21917   6.504   4.961   9.996  0.8207  2.1272  0.8305
  179DOPC   C2621918   6.310   4.886  10.056 -0.4571 -0.0828 -0.4412
  179DOPC   H6R21919   6.350   4.783  10.044  0.3155  0.3655 -1.9703
  179DOPC   H6S21920   6.204   4.880  10.025 -0.5768 -1.2482  0.1723
  179DOPC   C2721921   6.322   4.913  10.210 -0.2502  0.2526  0.2330
  179DOPC   H7R21922   6.276   5.007  10.247 -1.0710 -0.5398  1.2898
  179DOPC   H7S21923   6.430   4.928  10.233 -0.9010  1.8612  2.5261
  179DOPC   C2821924   6.259   4.811  10.304 -1.6863  0.3479 -0.7817
  179DOPC   H8R21925   6.285   4.841  10.408  0.4778 -0.9966 -0.8740
  179DOPC   H8S21926   6.315   4.716  10.294 -0.0871  1.2649 -0.8456
  179DOPC   C2921927   6.105   4.802  10.282  0.4367  0.1792 -0.2529
  179DOPC   H9R21928   6.074   4.816  10.177 -0.9533 -0.4286  0.0585
  179DOPC  C21021929   6.013   4.784  10.379  0.2474 -0.3565  1.2301
  179DOPC  H10R21930   5.910   4.775  10.342  1.1062  0.9750 -1.8095
  179DOPC  C21121931   6.038   4.780  10.524  0.1364  0.4303 -0.6854
  179DOPC  H11R21932   6.137   4.822  10.550  0.7092 -1.8765  1.2624
  179DOPC  H11S21933   6.039   4.678  10.569 -0.4044  0.7000 -0.0408
  179DOPC  C21221934   5.941   4.874  10.596 -0.0844  0.6505 -0.3850
  179DOPC  H12R21935   5.959   4.876  10.705  0.7190  1.7826 -0.5141
  179DOPC  H12S21936   5.842   4.825  10.582 -0.0149  0.0680  1.0463
  179DOPC  C21321937   5.936   5.019  10.546  0.3032 -0.3094  0.0664
  179DOPC  H13R21938   5.878   5.088  10.611  1.9616  1.9501 -0.7273
  179DOPC  H13S21939   5.886   5.007  10.447 -0.2522  1.5447  0.0911
  179DOPC  C21421940   6.070   5.095  10.525  0.5668 -0.2854  0.1270
  179DOPC  H14R21941   6.146   5.034  10.472 -0.2620  0.2720 -1.7893
  179DOPC  H14S21942   6.119   5.115  10.622  1.9341 -0.4235 -0.5105
  179DOPC  C21521943   6.034   5.225  10.450  0.0551 -0.7804 -0.3030
  179DOPC  H15R21944   6.118   5.295  10.466  0.8209 -2.2913  3.5809
  179DOPC  H15S21945   5.956   5.283  10.504  1.1394 -0.0433  0.5339
  179DOPC  C21621946   6.013   5.205  10.300 -0.3672 -0.3047  0.1698
  179DOPC  H16R21947   5.949   5.116  10.282  3.3280 -3.0613 -0.4598
  179DOPC  H16S21948   6.112   5.186  10.254  0.4663  2.1366  0.7925
  179DOPC  C21721949   5.952   5.331  10.226 -0.4469 -0.1849 -0.5668
  179DOPC  H17R21950   6.016   5.417  10.253 -0.1881 -0.1585 -1.2389
  179DOPC  H17S21951   5.860   5.361  10.279  0.6174  3.0879 -0.3761
  179DOPC  C21821952   5.928   5.315  10.077 -0.5825 -0.3716  0.0630
  179DOPC  H18R21953   5.887   5.409  10.035 -1.6010 -0.8339 -0.0203
  179DOPC  H18S21954   5.859   5.228  10.069  1.7452 -2.3516  0.1966
  179DOPC  H18T21955   6.022   5.285  10.026  0.2445 -1.1507  1.9353
  179DOPC   C3321956   6.362   5.575  10.217 -0.2178  0.5175 -0.5972
  179DOPC   H3X21957   6.382   5.674  10.171 -0.6143  0.1829 -1.5035
  179DOPC   H3Y21958   6.462   5.527  10.212 -1.2721 -1.7728 -0.6219
  179DOPC   C3421959   6.317   5.583  10.357 -0.3283  0.1287  0.1610
  179DOPC   H4X21960   6.304   5.481  10.399 -2.8675  1.0405  1.8342
  179DOPC   H4Y21961   6.220   5.636  10.360  1.3271  3.4978 -1.1286
  179DOPC   C3521962   6.417   5.654  10.450 -0.4706  0.2198  0.1192
  179DOPC   H5X21963   6.430   5.757  10.411 -1.0909  0.9730  1.7731
  179DOPC   H5Y21964   6.514   5.600  10.463 -1.3755 -1.4577  0.1284
  179DOPC   C3621965   6.364   5.667  10.591 -0.1595  0.1978 -0.5987
  179DOPC   H6X21966   6.261   5.707  10.586 -1.2457 -2.6043 -2.8335
  179DOPC   H6Y21967   6.360   5.565  10.634  2.4918  1.0373  1.9998
  179DOPC   C3721968   6.463   5.761  10.661 -0.5884  0.2967 -0.5328
  179DOPC   H7X21969   6.531   5.711  10.733 -0.5170  0.0310 -0.7797
  179DOPC   H7Y21970   6.521   5.821  10.588  0.2663 -1.8260 -1.6917
  179DOPC   C3821971   6.385   5.863  10.750  0.1342 -0.0232  0.1108
  179DOPC   H8X21972   6.307   5.919  10.694  1.0565  0.2156 -0.9704
  179DOPC   H8Y21973   6.456   5.945  10.774 -0.9267  1.2636 -1.0214
  179DOPC   C3921974   6.340   5.799  10.885 -0.0697 -0.1168 -0.4124
  179DOPC   H9X21975   6.245   5.743  10.887 -0.5463  0.7015  0.4228
  179DOPC  C31021976   6.418   5.815  10.997  0.6856  0.0267 -0.3076
  179DOPC  H10X21977   6.381   5.759  11.084  0.2685  0.5828 -0.1247
  179DOPC  C31121978   6.556   5.883  11.014 -0.3588  0.5668  0.6293
  179DOPC  H11X21979   6.571   5.918  11.119 -1.2411  0.9420  0.6322
  179DOPC  H11Y21980   6.568   5.972  10.949  0.8352 -1.4772 -2.1508
  179DOPC  C31221981   6.684   5.788  10.994  0.2208  0.1162  0.3892
  179DOPC  H12X21982   6.783   5.839  10.992  0.9644 -1.2801  0.6927
  179DOPC  H12Y21983   6.676   5.745  10.891  0.2302  2.0422 -0.4684
  179DOPC  C31321984   6.707   5.683  11.111 -0.5634  0.0745 -0.3852
  179DOPC  H13X21985   6.610   5.629  11.110 -1.4200  1.4044 -3.2217
  179DOPC  H13Y21986   6.779   5.609  11.069  2.2762  1.3901  1.8513
  179DOPC  C31421987   6.759   5.736  11.250 -0.4868  0.0291 -0.4786
  179DOPC  H14X21988   6.855   5.789  11.230 -1.1063  1.2349 -0.3426
  179DOPC  H14Y21989   6.690   5.805  11.303 -0.1983  0.7863 -1.0754
  179DOPC  C31521990   6.779   5.614  11.343 -0.3033 -0.7580 -0.2670
  179DOPC  H15X21991   6.808   5.525  11.283  0.0832 -1.4233  0.8844
  179DOPC  H15Y21992   6.688   5.579  11.396 -0.7488  2.2936  1.2433
  179DOPC  C31621993   6.871   5.651  11.459 -0.5979 -0.1933 -0.4679
  179DOPC  H16X21994   6.959   5.705  11.417  0.9273 -0.0601  2.5561
  179DOPC  H16Y21995   6.818   5.722  11.526  1.2983  0.8857 -0.0044
  179DOPC  C31721996   6.931   5.537  11.545 -0.2860 -0.3048  0.1780
  179DOPC  H17X21997   6.866   5.460  11.591 -1.1730 -0.3782 -1.1232
  179DOPC  H17Y21998   6.987   5.477  11.470  1.1531  0.7822  0.3568
  179DOPC  C31821999   7.046   5.579  11.645 -0.0815  0.4498  0.7777
  179DOPC  H18X22000   7.128   5.603  11.574 -1.6896 -0.2127 -1.4350
  179DOPC  H18Y22001   7.020   5.670  11.702  1.5061  1.6893 -0.3956
  179DOPC  H18Z22002   7.089   5.491  11.699  0.1347 -0.9070 -1.4627
  180DOPC     N22003   6.567   3.315   8.699  0.5991 -0.3985 -0.0818
  180DOPC   C1222004   6.608   3.428   8.790  0.6813 -0.6238  0.0217
  180DOPC  H12A22005   6.715   3.442   8.784  0.2162  3.6372 -1.1548
  180DOPC  H12B22006   6.574   3.416   8.892 -0.8108 -0.3853 -0.4200
  180DOPC   C1322007   6.589   3.192   8.763  0.3939 -0.5274  0.5352
  180DOPC  H13A22008   6.558   3.106   8.706  0.1703  0.5024 -0.9545
  180DOPC  H13B22009   6.691   3.188   8.797  0.8339  1.0556 -0.4670
  180DOPC  H13C22010   6.529   3.197   8.853 -1.0367 -0.4417 -0.3879
  180DOPC   C1422011   6.654   3.320   8.575  0.8632 -0.0301 -0.3318
  180DOPC  H14A22012   6.758   3.296   8.593  1.2552  1.3694 -0.6461
  180DOPC  H14B22013   6.613   3.243   8.511  1.1334  0.2191 -0.8042
  180DOPC  H14C22014   6.638   3.413   8.524  0.1361  0.4644  0.7782
  180DOPC   C1522015   6.414   3.326   8.670  0.1982 -0.5303  0.1008
  180DOPC  H15A22016   6.384   3.243   8.607  1.4442 -0.2237 -0.9509
  180DOPC  H15B22017   6.405   3.422   8.622 -1.1845  0.2758  1.9037
  180DOPC  H15C22018   6.357   3.344   8.759  2.5477  1.1380  1.3632
  180DOPC   C1122019   6.550   3.568   8.751  0.7173 -0.1254 -0.7017
  180DOPC  H11A22020   6.440   3.567   8.767  0.8182  1.7453  0.3766
  180DOPC  H11B22021   6.602   3.636   8.821  1.9302 -0.0298 -1.6600
  180DOPC     P22022   6.521   3.731   8.561  0.2048  0.3140 -0.1810
  180DOPC   O1322023   6.416   3.673   8.470  0.8228 -0.3959  0.6215
  180DOPC   O1422024   6.616   3.827   8.496  0.0114  0.3084  0.2945
  180DOPC   O1222025   6.591   3.605   8.619 -0.3751 -0.1038 -0.5773
  180DOPC   O1122026   6.442   3.804   8.676 -0.2130 -0.4576  0.0664
  180DOPC    C122027   6.408   3.945   8.679 -1.1593  0.0774  0.1413
  180DOPC    HA22028   6.300   3.959   8.654 -1.0616 -0.1043 -0.3962
  180DOPC    HB22029   6.462   4.006   8.604  0.9744  0.4288  1.8660
  180DOPC    C222030   6.440   4.007   8.814  0.2105 -0.0881 -0.4013
  180DOPC    HS22031   6.549   4.020   8.830  0.4897 -3.1524  1.0553
  180DOPC   O2122032   6.391   3.923   8.916 -0.1237  0.2173  0.2148
  180DOPC   C2122033   6.471   3.846   8.981 -0.1573 -0.3185 -0.2922
  180DOPC   O2222034   6.593   3.841   8.970  0.1761 -0.0526 -0.0018
  180DOPC   C2222035   6.382   3.752   9.073 -0.1821 -0.3583  0.0834
  180DOPC   H2R22036   6.341   3.677   9.002  0.3772 -0.2830 -0.3307
  180DOPC   H2S22037   6.298   3.813   9.110  2.0119  1.0778  3.0678
  180DOPC    C322038   6.372   4.144   8.820 -0.2723  0.4212  0.3471
  180DOPC    HX22039   6.276   4.142   8.765  0.2278 -0.7976 -0.5321
  180DOPC    HY22040   6.431   4.222   8.767 -0.2893  0.8809  0.9807
  180DOPC   O3122041   6.364   4.197   8.954  0.5234 -0.4781 -0.6907
  180DOPC   C3122042   6.247   4.168   9.025 -0.4038 -0.3729  0.1889
  180DOPC   O3222043   6.147   4.107   8.979 -0.2783 -0.1427  0.4515
  180DOPC   C3222044   6.255   4.226   9.172  0.2698 -0.0051  0.2201
  180DOPC   H2X22045   6.320   4.314   9.153 -0.4347  0.2200 -1.2912
  180DOPC   H2Y22046   6.156   4.264   9.205  0.8215  1.5433  0.1932
  180DOPC   C2322047   6.461   3.694   9.194 -0.5009 -0.3336  0.0601
  180DOPC   H3R22048   6.518   3.776   9.242  0.2699 -0.8361  0.0178
  180DOPC   H3S22049   6.536   3.624   9.153 -0.7544 -0.1202 -0.8035
  180DOPC   C2422050   6.376   3.622   9.295  0.5239  0.3021 -0.1276
  180DOPC   H4R22051   6.341   3.527   9.250 -1.8915  0.1857  1.8031
  180DOPC   H4S22052   6.290   3.679   9.337  1.7088  1.4940  0.7561
  180DOPC   C2522053   6.463   3.579   9.408 -0.4919  0.0027  0.1240
  180DOPC   H5R22054   6.512   3.668   9.452  0.4761 -0.6949  0.5027
  180DOPC   H5S22055   6.547   3.523   9.360  1.2919  1.9341  0.8612
  180DOPC   C2622056   6.393   3.488   9.510 -0.0578  0.8329 -0.3551
  180DOPC   H6R22057   6.346   3.397   9.467  0.8062 -0.3615  1.1235
  180DOPC   H6S22058   6.312   3.549   9.555  2.3918  2.2617  2.4881
  180DOPC   C2722059   6.493   3.431   9.615  0.2828 -0.2048  0.1582
  180DOPC   H7R22060   6.552   3.512   9.661  1.1418 -1.4432  1.3134
  180DOPC   H7S22061   6.564   3.363   9.564  1.1387  0.3868  0.5538
  180DOPC   C2822062   6.420   3.362   9.736 -0.6228 -0.3171 -0.1748
  180DOPC   H8R22063   6.355   3.275   9.710 -0.8007 -0.3040  0.2139
  180DOPC   H8S22064   6.352   3.443   9.771  0.3967  1.3278 -1.8591
  180DOPC   C2922065   6.511   3.314   9.844  0.9703  0.6406 -0.2904
  180DOPC   H9R22066   6.608   3.282   9.803 -0.1609 -2.2784 -0.8763
  180DOPC  C21022067   6.495   3.315   9.977 -0.0937  0.0811 -0.4842
  180DOPC  H10R22068   6.570   3.271  10.045 -0.6893 -0.2060  0.0006
  180DOPC  C21122069   6.373   3.361  10.046 -0.5967  0.1457  0.3457
  180DOPC  H11R22070   6.282   3.319   9.999  0.1894 -1.0034 -0.2047
  180DOPC  H11S22071   6.365   3.471  10.038  2.3935  0.4572  0.3313
  180DOPC  C21222072   6.357   3.340  10.196  0.0774  0.3959 -0.9377
  180DOPC  H12R22073   6.366   3.232  10.222 -1.7141  0.3865 -0.2389
  180DOPC  H12S22074   6.253   3.362  10.229  0.2549 -0.5873  0.3369
  180DOPC  C21322075   6.459   3.411  10.281  0.5192  1.1551 -0.7132
  180DOPC  H13R22076   6.471   3.516  10.249  1.6415  1.3916  0.4079
  180DOPC  H13S22077   6.556   3.363  10.255 -0.4246 -0.5032 -1.3282
  180DOPC  C21422078   6.425   3.398  10.429 -0.0445 -0.1531 -0.1781
  180DOPC  H14R22079   6.341   3.464  10.457  1.1542  1.3351  0.0876
  180DOPC  H14S22080   6.518   3.427  10.483 -1.1046 -1.3528  2.5027
  180DOPC  C21522081   6.400   3.257  10.491  0.1622  0.6884  0.1063
  180DOPC  H15R22082   6.466   3.182  10.440  1.0098  1.6894 -0.3055
  180DOPC  H15S22083   6.291   3.247  10.470  0.3131  0.4657 -0.6143
  180DOPC  C21622084   6.423   3.273  10.640  0.2089  0.0758  0.1202
  180DOPC  H16R22085   6.524   3.315  10.658  0.1844  0.0392  0.3446
  180DOPC  H16S22086   6.422   3.172  10.686  0.4966  0.1035  0.1910
  180DOPC  C21722087   6.317   3.340  10.715 -0.0518  0.5413 -0.3727
  180DOPC  H17R22088   6.222   3.283  10.705 -0.2703  0.8709 -0.1930
  180DOPC  H17S22089   6.314   3.438  10.663  0.5242  0.5767 -0.3509
  180DOPC  C21822090   6.345   3.354  10.862 -0.4108 -0.4290 -0.3715
  180DOPC  H18R22091   6.287   3.440  10.901 -2.7440 -0.9605 -2.3819
  180DOPC  H18S22092   6.450   3.370  10.895 -0.4180  0.2068 -0.6320
  180DOPC  H18T22093   6.316   3.265  10.922  1.5775 -1.2567 -0.5395
  180DOPC   C3322094   6.314   4.125   9.271 -0.2528  0.2120  0.0903
  180DOPC   H3X22095   6.372   4.184   9.346  0.2930 -1.5773  1.1366
  180DOPC   H3Y22096   6.385   4.058   9.218  1.1322  1.6290  0.0805
  180DOPC   C3422097   6.204   4.052   9.336 -0.2791 -0.8270 -0.3502
  180DOPC   H4X22098   6.163   3.991   9.252  0.4474 -0.3635 -1.0652
  180DOPC   H4Y22099   6.134   4.130   9.372  3.7022  2.7520  0.4431
  180DOPC   C3522100   6.243   3.971   9.459  0.0905  0.0329  0.4127
  180DOPC   H5X22101   6.288   4.033   9.539 -0.6413  1.1134  0.0080
  180DOPC   H5Y22102   6.321   3.899   9.425  0.4494 -0.1183  1.5196
  180DOPC   C3622103   6.124   3.902   9.532 -0.2439 -0.4861  0.1087
  180DOPC   H6X22104   6.063   3.991   9.560  0.5274 -0.6379  2.5319
  180DOPC   H6Y22105   6.065   3.841   9.460 -0.2132 -0.7884  0.3384
  180DOPC   C3722106   6.175   3.809   9.640 -0.0551 -0.0955 -0.3802
  180DOPC   H7X22107   6.258   3.753   9.593  0.0010  0.7579 -1.3161
  180DOPC   H7Y22108   6.216   3.872   9.721  1.2642  0.3241 -1.3466
  180DOPC   C3822109   6.056   3.721   9.695 -0.8585  0.0107  0.8889
  180DOPC   H8X22110   6.002   3.664   9.617  0.7132 -1.1841  0.6169
  180DOPC   H8Y22111   5.987   3.794   9.741 -1.4883  0.4622 -0.7044
  180DOPC   C3922112   6.112   3.618   9.788  0.4254 -0.2773 -0.7369
  180DOPC   H9X22113   6.178   3.549   9.733  0.9823 -0.6299  0.3424
  180DOPC  C31022114   6.081   3.612   9.921 -0.2188 -0.0820  0.0999
  180DOPC  H10X22115   6.132   3.546   9.994 -0.0429 -0.5359 -0.4298
  180DOPC  C31122116   5.992   3.706   9.999 -0.6310 -0.4686 -0.4678
  180DOPC  H11X22117   5.884   3.688   9.981 -0.9925 -0.5205  1.4980
  180DOPC  H11Y22118   6.017   3.809   9.966  0.5117 -0.0435  1.5125
  180DOPC  C31222119   6.024   3.683  10.152 -0.2178 -0.5883  0.2665
  180DOPC  H12X22120   5.984   3.774  10.202  0.2343 -0.7289  0.8900
  180DOPC  H12Y22121   6.133   3.665  10.164  0.0781  1.2189  0.5773
  180DOPC  C31322122   5.954   3.563  10.212 -0.3645  0.4852  1.2673
  180DOPC  H13X22123   5.844   3.569  10.208 -0.3215  1.0858 -2.7947
  180DOPC  H13Y22124   5.975   3.475  10.147  0.1958  2.3993 -1.2856
  180DOPC  C31422125   6.010   3.509  10.347 -0.3287  0.3342  0.9452
  180DOPC  H14X22126   5.960   3.411  10.364  0.8899 -0.2845  1.0880
  180DOPC  H14Y22127   6.118   3.483  10.342 -0.9407 -2.3369 -0.7013
  180DOPC  C31522128   5.973   3.601  10.460  0.4080  0.8615 -0.1789
  180DOPC  H15X22129   5.864   3.622  10.453 -0.0375 -1.6769 -1.8636
  180DOPC  H15Y22130   6.027   3.698  10.452 -0.3118  1.2630 -0.2421
  180DOPC  C31622131   6.006   3.541  10.605  0.5515  0.4565  0.1384
  180DOPC  H16X22132   5.957   3.441  10.608  1.3339  0.0264 -0.8685
  180DOPC  H16Y22133   6.117   3.535  10.610  0.5115 -1.4984 -0.4740
  180DOPC  C31722134   5.960   3.629  10.719 -0.1974 -0.2519 -0.9385
  180DOPC  H17X22135   6.003   3.588  10.814 -1.2890  0.6878 -0.0105
  180DOPC  H17Y22136   5.995   3.733  10.702 -1.6624  0.5741  0.7446
  180DOPC  C31822137   5.805   3.629  10.722 -0.8551 -0.4835  0.4472
  180DOPC  H18X22138   5.764   3.545  10.781  0.6546 -0.1210  2.1029
  180DOPC  H18Y22139   5.770   3.723  10.771  2.4990  1.1132  0.0191
  180DOPC  H18Z22140   5.763   3.641  10.620 -1.4555 -3.1966  0.2987
  181DOPC     N22141   1.675   5.229   8.778 -0.5029 -0.7102 -0.2791
  181DOPC   C1222142   1.781   5.333   8.743  0.9125  0.0177  0.3379
  181DOPC  H12A22143   1.774   5.420   8.806  0.2854  0.8087 -0.7769
  181DOPC  H12B22144   1.743   5.375   8.651  1.0364  0.4735  0.4920
  181DOPC   C1322145   1.666   5.145   8.652 -1.2648 -0.2320 -0.1955
  181DOPC  H13A22146   1.622   5.199   8.570 -0.0441  0.8199 -0.1839
  181DOPC  H13B22147   1.765   5.107   8.632 -0.2656  2.1834 -0.0869
  181DOPC  H13C22148   1.592   5.068   8.669 -1.6492  0.3538  0.8176
  181DOPC   C1422149   1.547   5.295   8.803  0.3145 -0.4613 -0.0687
  181DOPC  H14A22150   1.549   5.361   8.889  0.4964  3.0689 -2.5826
  181DOPC  H14B22151   1.521   5.356   8.718 -0.7182 -0.6482  0.0988
  181DOPC  H14C22152   1.477   5.216   8.825 -0.3206  0.2694  0.6497
  181DOPC   C1522153   1.711   5.149   8.894  0.0411 -0.5157  0.2996
  181DOPC  H15A22154   1.812   5.112   8.881  0.8717  1.6707  0.0107
  181DOPC  H15B22155   1.639   5.070   8.912  0.2234 -0.5556  0.9009
  181DOPC  H15C22156   1.711   5.215   8.980 -1.3613 -0.2710  0.1329
  181DOPC   C1122157   1.928   5.295   8.713  0.4039 -0.9857 -0.3172
  181DOPC  H11A22158   1.921   5.204   8.650  0.0788 -1.3324  0.2133
  181DOPC  H11B22159   1.978   5.378   8.660  4.0104 -0.6352  3.1684
  181DOPC     P22160   2.074   5.359   8.923  0.1675 -0.0253 -0.2764
  181DOPC   O1322161   1.968   5.454   8.974 -0.1796  0.3440 -0.4758
  181DOPC   O1422162   2.190   5.408   8.843 -0.2218  0.2142  1.1152
  181DOPC   O1222163   2.004   5.251   8.829 -0.5194  1.1882 -0.2422
  181DOPC   O1122164   2.121   5.274   9.048 -0.1302 -0.3170  0.3852
  181DOPC    C122165   2.031   5.182   9.123  0.2019 -1.0588  0.5934
  181DOPC    HA22166   2.073   5.080   9.127 -1.1850 -1.6696  0.2637
  181DOPC    HB22167   1.937   5.169   9.065  0.0598 -4.1511  1.3605
  181DOPC    C222168   1.996   5.232   9.260  0.5069  0.8594 -0.7694
  181DOPC    HS22169   1.980   5.342   9.250  0.0570  0.6695 -2.4144
  181DOPC   O2122170   2.108   5.190   9.342  0.1366 -0.3729  0.4391
  181DOPC   C2122171   2.136   5.271   9.440  0.3587  0.6070  0.2946
  181DOPC   O2222172   2.113   5.391   9.447  0.1015 -0.0838 -0.5748
  181DOPC   C2222173   2.232   5.204   9.536 -1.2298  0.1089  0.0702
  181DOPC   H2R22174   2.325   5.266   9.538 -1.7627  1.0632 -1.7534
  181DOPC   H2S22175   2.252   5.106   9.488 -1.4660  1.2682 -2.6109
  181DOPC    C322176   1.862   5.177   9.322 -0.1590  0.0300 -0.1571
  181DOPC    HX22177   1.864   5.067   9.307  1.0688 -0.0802  0.6752
  181DOPC    HY22178   1.774   5.212   9.264  0.0639 -2.2901 -2.0631
  181DOPC   O3122179   1.867   5.201   9.467 -0.3637  0.1914 -0.0136
  181DOPC   C3122180   1.798   5.299   9.514  0.1405  0.1764 -0.2847
  181DOPC   O3222181   1.726   5.373   9.450  0.2882 -0.3236 -0.5613
  181DOPC   C3222182   1.838   5.309   9.664 -1.1900  0.0563 -0.2159
  181DOPC   H2X22183   1.805   5.219   9.720  1.6353 -0.4885  0.7380
  181DOPC   H2Y22184   1.947   5.308   9.683 -1.6651  4.3481  5.7106
  181DOPC   C2322185   2.196   5.197   9.679  0.3954  0.0301 -0.2315
  181DOPC   H3R22186   2.103   5.137   9.685 -0.7407  1.8052  1.0984
  181DOPC   H3S22187   2.161   5.296   9.716 -0.6693  1.0336 -3.6153
  181DOPC   C2422188   2.309   5.147   9.765  0.0502 -0.8562  0.1399
  181DOPC   H4R22189   2.395   5.217   9.755 -0.1190 -0.4495  1.3590
  181DOPC   H4S22190   2.341   5.050   9.722  0.9016 -1.0429  1.1608
  181DOPC   C2522191   2.271   5.112   9.899 -1.1388 -0.5355 -0.2749
  181DOPC   H5R22192   2.203   5.025   9.888 -1.4346 -0.5692  1.5206
  181DOPC   H5S22193   2.217   5.196   9.946 -2.3673 -0.0771 -2.3586
  181DOPC   C2622194   2.388   5.058   9.989  0.3957  0.3562 -0.1808
  181DOPC   H6R22195   2.445   5.149  10.016 -1.0954  1.7077 -1.3386
  181DOPC   H6S22196   2.442   4.982   9.929 -1.3532 -2.0520  1.1317
  181DOPC   C2722197   2.326   5.003  10.120  0.7363  0.0722 -0.3059
  181DOPC   H7R22198   2.271   4.909  10.098 -2.6632  1.6960  0.6409
  181DOPC   H7S22199   2.255   5.075  10.166  0.6377 -0.1276 -0.1420
  181DOPC   C2822200   2.435   4.981  10.228 -0.0387  0.2732  0.7717
  181DOPC   H8R22201   2.473   5.083  10.247 -0.8349  1.1857 -2.0521
  181DOPC   H8S22202   2.523   4.920  10.196  0.7293  0.4760  2.4184
  181DOPC   C2922203   2.401   4.908  10.347 -0.4493  0.5916  0.2240
  181DOPC   H9R22204   2.425   4.801  10.351  0.7558  0.8647  0.9611
  181DOPC  C21022205   2.333   4.954  10.455 -0.8033 -0.5984  0.1969
  181DOPC  H10R22206   2.318   4.879  10.534  2.8286 -0.7815  0.8486
  181DOPC  C21122207   2.290   5.099  10.473 -0.0133  0.0891 -0.1535
  181DOPC  H11R22208   2.253   5.154  10.385 -1.2497  0.5910  0.6552
  181DOPC  H11S22209   2.379   5.152  10.514  2.8397 -2.7933 -2.1541
  181DOPC  C21222210   2.182   5.112  10.588 -0.0130 -0.6733 -0.2603
  181DOPC  H12R22211   2.089   5.053  10.568 -0.2575 -0.7925  1.1412
  181DOPC  H12S22212   2.153   5.219  10.596 -3.8154 -1.5297 -0.5294
  181DOPC  C21322213   2.241   5.083  10.729  0.6671 -0.8506 -0.2782
  181DOPC  H13R22214   2.336   5.141  10.730  0.7319 -0.9610  0.0460
  181DOPC  H13S22215   2.265   4.975  10.717  1.1535 -0.6122 -1.7609
  181DOPC  C21422216   2.148   5.110  10.850  0.2462  0.4164 -0.3574
  181DOPC  H14R22217   2.191   5.076  10.946 -2.2394 -0.5874  0.4603
  181DOPC  H14S22218   2.053   5.057  10.825  0.6670 -0.6553  0.2523
  181DOPC  C21522219   2.101   5.258  10.866 -0.2769  0.2662 -0.1563
  181DOPC  H15R22220   2.016   5.271  10.796  0.4548  0.0281 -1.1083
  181DOPC  H15S22221   2.186   5.326  10.843 -0.0459 -0.1639 -0.5868
  181DOPC  C21622222   2.048   5.287  11.010 -0.1915  0.0319  0.6411
  181DOPC  H16R22223   2.103   5.240  11.094  0.9706  1.0773  0.4820
  181DOPC  H16S22224   1.941   5.255  11.010 -0.1790 -0.1379  2.6636
  181DOPC  C21722225   2.070   5.435  11.038  0.1407  1.0604 -0.2202
  181DOPC  H17R22226   2.037   5.495  10.951 -1.2529  1.0692  0.2910
  181DOPC  H17S22227   2.181   5.442  11.037  0.2831 -0.3820 -2.8191
  181DOPC  C21822228   2.008   5.487  11.165 -0.2071  0.8691  0.5896
  181DOPC  H18R22229   2.027   5.595  11.180  1.3419  0.6337  0.4663
  181DOPC  H18S22230   2.047   5.434  11.255 -0.8917 -0.4349  0.1505
  181DOPC  H18T22231   1.897   5.481  11.161 -0.3524  1.5632  2.3589
  181DOPC   C3322232   1.785   5.432   9.731 -0.2499 -0.4642 -0.0755
  181DOPC   H3X22233   1.680   5.445   9.697  0.9800  2.2882 -3.4197
  181DOPC   H3Y22234   1.829   5.528   9.697  0.3832 -0.3472  1.0403
  181DOPC   C3422235   1.791   5.427   9.889 -0.3823  0.5753 -0.2379
  181DOPC   H4X22236   1.720   5.345   9.909 -1.1408  1.0981 -0.7113
  181DOPC   H4Y22237   1.751   5.518   9.939  0.5166  1.4737 -1.0966
  181DOPC   C3522238   1.926   5.377   9.952 -0.4600 -0.4341 -0.3874
  181DOPC   H5X22239   2.018   5.435   9.928  0.6638 -0.8458  2.5026
  181DOPC   H5Y22240   1.930   5.272   9.916  2.7041 -1.0050  1.2481
  181DOPC   C3622241   1.904   5.386  10.104 -0.5645  0.3007  0.0223
  181DOPC   H6X22242   1.875   5.492  10.119 -1.2954  0.0423  0.4485
  181DOPC   H6Y22243   1.818   5.319  10.126  0.1592  0.0172  2.1738
  181DOPC   C3722244   2.025   5.336  10.187  0.8785  0.2493 -0.0504
  181DOPC   H7X22245   2.073   5.248  10.139  1.1986 -0.3816  1.3553
  181DOPC   H7Y22246   2.105   5.412  10.189  1.3439 -0.0697 -2.8460
  181DOPC   C3822247   1.972   5.285  10.325 -0.2942  0.0899 -0.7069
  181DOPC   H8X22248   2.056   5.222  10.358  0.5017  0.7714 -1.3677
  181DOPC   H8Y22249   1.881   5.226  10.303 -1.0098 -0.0177  2.1481
  181DOPC   C3922250   1.949   5.389  10.422 -0.3723  0.2456 -0.0121
  181DOPC   H9X22251   2.011   5.476  10.396 -0.0223  0.3421  1.0819
  181DOPC  C31022252   1.869   5.384  10.531 -0.1835 -0.4864  0.0870
  181DOPC  H10X22253   1.876   5.463  10.608  1.8970 -1.3810  0.8806
  181DOPC  C31122254   1.769   5.276  10.559  0.3172 -1.1498 -0.1632
  181DOPC  H11X22255   1.772   5.196  10.482 -1.9174 -0.5314 -0.9733
  181DOPC  H11Y22256   1.672   5.329  10.574  0.2475 -1.8320  2.2260
  181DOPC  C31222257   1.797   5.217  10.690 -0.4753  0.4128  0.2654
  181DOPC  H12X22258   1.786   5.295  10.768 -2.3358  1.0880 -0.6112
  181DOPC  H12Y22259   1.899   5.173  10.692 -0.4095  0.5706  0.3656
  181DOPC  C31322260   1.702   5.096  10.730  0.1233 -0.5377  0.2754
  181DOPC  H13X22261   1.601   5.139  10.747  0.5359  0.6305 -0.0798
  181DOPC  H13Y22262   1.698   5.016  10.653 -3.0076 -0.6265  0.3932
  181DOPC  C31422263   1.734   5.038  10.869 -1.0237  0.2853 -0.7022
  181DOPC  H14X22264   1.838   5.000  10.879 -1.1500  0.2486  0.6449
  181DOPC  H14Y22265   1.726   5.115  10.949  1.1938 -1.1445  1.0153
  181DOPC  C31522266   1.641   4.919  10.887 -0.1090 -0.6148 -0.9724
  181DOPC  H15X22267   1.663   4.837  10.815  0.5282 -1.1415 -0.1942
  181DOPC  H15Y22268   1.536   4.952  10.872  0.0502 -0.1187 -1.0064
  181DOPC  C31622269   1.649   4.849  11.028 -0.3443 -0.0694 -0.2551
  181DOPC  H16X22270   1.605   4.909  11.110  2.1455 -1.6357  2.4291
  181DOPC  H16Y22271   1.588   4.756  11.034 -3.8038  1.8565 -2.4234
  181DOPC  C31722272   1.795   4.802  11.064  0.8285 -0.0202 -0.3523
  181DOPC  H17X22273   1.862   4.889  11.048  1.0999 -0.4402 -1.5899
  181DOPC  H17Y22274   1.795   4.759  11.167 -1.3817 -0.5550 -0.5230
  181DOPC  C31822275   1.849   4.686  10.983 -0.3566 -0.2915  1.2212
  181DOPC  H18X22276   1.959   4.673  10.995 -0.2575  1.1020  2.0388
  181DOPC  H18Y22277   1.802   4.587  11.003 -1.2181 -0.2068 -0.2710
  181DOPC  H18Z22278   1.846   4.714  10.876 -2.8442 -1.5226  0.9056
  182DOPC     N22279   2.853   2.202   8.695 -0.1494  0.5827  0.5352
  182DOPC   C1222280   2.715   2.258   8.656  0.5093  0.0108  0.0105
  182DOPC  H12A22281   2.650   2.179   8.622 -0.6692  1.8558 -2.3532
  182DOPC  H12B22282   2.737   2.324   8.573  0.4018  0.2183  0.1476
  182DOPC   C1322283   2.904   2.109   8.586 -0.9113 -0.6191 -0.1635
  182DOPC  H13A22284   2.910   2.160   8.491 -2.0278 -0.2068 -0.0191
  182DOPC  H13B22285   3.002   2.082   8.623  0.2647  2.9985 -0.2158
  182DOPC  H13C22286   2.844   2.021   8.571  0.5277 -1.5058 -0.9409
  182DOPC   C1422287   2.852   2.129   8.825  0.3149  0.2302 -0.1651
  182DOPC  H14A22288   2.789   2.042   8.824  0.6618 -0.0194 -0.9566
  182DOPC  H14B22289   2.952   2.095   8.844  0.0868  0.4097  1.5249
  182DOPC  H14C22290   2.830   2.205   8.899  1.4104 -0.9055  1.4040
  182DOPC   C1522291   2.963   2.312   8.697  0.0662 -0.1148  0.8874
  182DOPC  H15A22292   2.980   2.356   8.601 -1.7117  0.7818  0.9424
  182DOPC  H15B22293   3.059   2.272   8.726  0.4112 -0.5216 -0.7122
  182DOPC  H15C22294   2.938   2.387   8.771  0.5463  1.8848 -0.9095
  182DOPC   C1122295   2.651   2.349   8.767 -0.1326  0.3716  0.7100
  182DOPC  H11A22296   2.544   2.359   8.736  0.3183  2.0863 -0.4309
  182DOPC  H11B22297   2.651   2.293   8.863 -2.1379 -0.8403  0.0769
  182DOPC     P22298   2.661   2.612   8.732 -0.3335 -0.0157  0.4710
  182DOPC   O1322299   2.529   2.605   8.672 -0.3050 -0.0344 -0.2250
  182DOPC   O1422300   2.770   2.675   8.648 -0.2169 -0.2748 -0.4502
  182DOPC   O1222301   2.717   2.475   8.771 -0.3007 -0.0422 -0.1514
  182DOPC   O1122302   2.645   2.699   8.871  0.0223  0.1657 -0.5405
  182DOPC    C122303   2.732   2.682   8.979  0.1494  0.0161 -0.1610
  182DOPC    HA22304   2.736   2.772   9.045  1.7207 -0.0920 -0.0625
  182DOPC    HB22305   2.836   2.664   8.943  0.6780 -0.9935  1.7437
  182DOPC    C222306   2.685   2.561   9.073 -0.5546 -0.3462 -0.0097
  182DOPC    HS22307   2.677   2.468   9.013  4.3349 -1.6638  0.9559
  182DOPC   O2122308   2.563   2.597   9.146 -0.6044  0.2486 -0.2783
  182DOPC   C2122309   2.486   2.493   9.172  1.1580 -0.0943  0.2309
  182DOPC   O2222310   2.501   2.377   9.142  0.4390  0.5281  0.0419
  182DOPC   C2222311   2.356   2.538   9.242  0.3437  0.6115 -0.4896
  182DOPC   H2R22312   2.284   2.460   9.209  0.6093 -0.3048  1.0009
  182DOPC   H2S22313   2.328   2.637   9.200 -1.6214 -0.8246 -2.8489
  182DOPC    C322314   2.808   2.524   9.167 -0.3145  0.3522  0.0168
  182DOPC    HX22315   2.828   2.623   9.213 -0.3638 -0.1443  1.1496
  182DOPC    HY22316   2.900   2.499   9.110 -0.7586  1.9602 -1.4646
  182DOPC   O3122317   2.772   2.427   9.267 -0.1079  0.2266 -0.0007
  182DOPC   C3122318   2.849   2.446   9.378 -0.7083  0.2952  0.5386
  182DOPC   O3222319   2.947   2.521   9.386 -0.2425  0.2132 -0.2213
  182DOPC   C3222320   2.820   2.335   9.479  0.1542 -0.8030  0.5065
  182DOPC   H2X22321   2.713   2.353   9.505 -0.2602 -0.7119 -1.1244
  182DOPC   H2Y22322   2.826   2.240   9.421  0.8923 -0.5976  0.2360
  182DOPC   C2322323   2.375   2.542   9.403 -0.0289 -0.2276 -0.0427
  182DOPC   H3R22324   2.286   2.580   9.458 -0.7039 -0.9886 -0.5768
  182DOPC   H3S22325   2.458   2.612   9.423 -1.4104  1.2602  0.6780
  182DOPC   C2422326   2.396   2.400   9.464 -0.1245  0.1967  0.0794
  182DOPC   H4R22327   2.485   2.354   9.415 -1.1756 -0.6384 -1.1163
  182DOPC   H4S22328   2.306   2.344   9.433  0.4465 -0.7290  0.0586
  182DOPC   C2522329   2.418   2.394   9.614 -0.0937  0.2124  0.8313
  182DOPC   H5R22330   2.334   2.440   9.670  1.7276  1.6134  2.5445
  182DOPC   H5S22331   2.513   2.448   9.634  0.5661 -0.9595  0.9313
  182DOPC   C2622332   2.432   2.248   9.652 -0.1346  0.1090 -0.6268
  182DOPC   H6R22333   2.508   2.205   9.584  0.0573  0.7327 -0.8073
  182DOPC   H6S22334   2.339   2.194   9.624 -0.8248  1.4460 -0.9768
  182DOPC   C2722335   2.474   2.238   9.801  0.3091 -0.4447  0.1674
  182DOPC   H7R22336   2.388   2.270   9.864  0.5327 -1.9249  1.2733
  182DOPC   H7S22337   2.546   2.321   9.815 -1.9946  1.7522 -0.3641
  182DOPC   C2822338   2.522   2.102   9.840 -0.0277  0.3055  1.0855
  182DOPC   H8R22339   2.587   2.115   9.929  1.4960 -1.0110  0.2121
  182DOPC   H8S22340   2.581   2.061   9.756 -0.8687  0.9025  0.1873
  182DOPC   C2922341   2.405   2.012   9.869  0.2641  0.1123 -0.5195
  182DOPC   H9R22342   2.347   1.992   9.778 -0.6949 -2.8708  0.6557
  182DOPC  C21022343   2.375   1.952   9.982 -0.0187  0.4836 -0.2260
  182DOPC  H10R22344   2.286   1.888   9.990  0.1239  0.3492  0.3349
  182DOPC  C21122345   2.452   1.964  10.116  0.0515 -0.1352 -0.3800
  182DOPC  H11R22346   2.483   2.069  10.138  0.8585 -0.7783  1.7348
  182DOPC  H11S22347   2.551   1.918  10.094  0.3280  0.2739 -0.0028
  182DOPC  C21222348   2.375   1.898  10.229 -0.8633 -0.6711 -0.2785
  182DOPC  H12R22349   2.354   1.789  10.221 -1.2266 -0.6829  0.7134
  182DOPC  H12S22350   2.278   1.952  10.240 -0.6126  0.4757 -2.9843
  182DOPC  C21322351   2.438   1.914  10.371  1.1038 -0.7615  0.6644
  182DOPC  H13R22352   2.446   2.023  10.392 -0.4612 -0.3926 -0.4721
  182DOPC  H13S22353   2.543   1.878  10.366  1.4400  0.2705  0.0323
  182DOPC  C21422354   2.357   1.845  10.478 -0.8277 -0.1582 -0.0902
  182DOPC  H14R22355   2.353   1.738  10.452  1.0451  0.1421 -1.9442
  182DOPC  H14S22356   2.257   1.893  10.489 -0.1386  1.5668 -0.8783
  182DOPC  C21522357   2.427   1.856  10.614  0.0688  0.3403  0.1087
  182DOPC  H15R22358   2.432   1.960  10.652 -1.1189  0.3060  0.3854
  182DOPC  H15S22359   2.532   1.819  10.615  0.7017  2.0339  1.3872
  182DOPC  C21622360   2.359   1.776  10.728  0.6650 -0.5511 -0.6480
  182DOPC  H16R22361   2.352   1.669  10.701  0.9134 -0.7496  0.0730
  182DOPC  H16S22362   2.253   1.806  10.715  0.7904 -0.5639 -1.8516
  182DOPC  C21722363   2.417   1.798  10.868 -0.0112  0.4225  0.0453
  182DOPC  H17R22364   2.346   1.839  10.943 -1.3991 -1.2598 -0.2775
  182DOPC  H17S22365   2.504   1.864  10.852  1.2176 -0.2906  3.0117
  182DOPC  C21822366   2.460   1.663  10.925  0.2002 -0.3651 -0.0728
  182DOPC  H18R22367   2.503   1.604  10.841  1.0767 -1.6271  1.2274
  182DOPC  H18S22368   2.377   1.612  10.978 -1.0889  0.8757 -0.8377
  182DOPC  H18T22369   2.543   1.682  10.997 -0.3726 -0.2503  0.5613
  182DOPC   C3322370   2.898   2.350   9.604 -0.1675  0.7814 -0.5543
  182DOPC   H3X22371   2.886   2.450   9.651  1.5810  1.8208 -2.1845
  182DOPC   H3Y22372   3.006   2.348   9.577 -0.6131  2.2412 -2.6957
  182DOPC   C3422373   2.855   2.233   9.703  1.2559  0.5335  0.1917
  182DOPC   H4X22374   2.854   2.137   9.646  1.0016  0.9594 -0.5278
  182DOPC   H4Y22375   2.756   2.261   9.743  0.3001 -2.9044  0.5327
  182DOPC   C3522376   2.946   2.209   9.822  0.4009 -0.4835 -0.6259
  182DOPC   H5X22377   2.983   2.303   9.870 -2.5728  1.4341 -1.8133
  182DOPC   H5Y22378   3.036   2.150   9.795  0.5215 -0.5499 -0.0943
  182DOPC   C3622379   2.892   2.116   9.936 -0.4752 -0.8283 -0.2061
  182DOPC   H6X22380   2.793   2.163   9.958 -0.7181 -0.7609 -1.3546
  182DOPC   H6Y22381   2.875   2.014   9.896  0.5155 -1.4724  0.9494
  182DOPC   C3722382   2.988   2.116  10.053  0.6455 -0.6968 -0.2993
  182DOPC   H7X22383   3.091   2.087  10.023  1.6539  0.5303  1.7505
  182DOPC   H7Y22384   2.999   2.223  10.081  2.9603 -1.1497  0.8024
  182DOPC   C3822385   2.946   2.034  10.174 -0.5800  0.1268 -0.3037
  182DOPC   H8X22386   3.027   2.033  10.251 -2.1645 -0.9159  1.4512
  182DOPC   H8Y22387   2.926   1.927  10.152 -0.4436 -0.1523  0.8206
  182DOPC   C3922388   2.818   2.091  10.237 -0.1908 -0.1252  0.0133
  182DOPC   H9X22389   2.718   2.068  10.197 -0.6440  1.5271  0.1347
  182DOPC  C31022390   2.814   2.135  10.361  0.3522 -0.1399 -0.7304
  182DOPC  H10X22391   2.716   2.169  10.398  1.1942  2.7818 -0.8916
  182DOPC  C31122392   2.932   2.149  10.453 -0.3480  0.2801 -0.5530
  182DOPC  H11X22393   3.009   2.216  10.410  0.6627  0.2795  1.1561
  182DOPC  H11Y22394   2.990   2.060  10.483  0.9531  1.0348 -0.7756
  182DOPC  C31222395   2.875   2.190  10.593 -0.6057  0.3796 -0.2872
  182DOPC  H12X22396   2.811   2.281  10.599 -0.4314  0.6556 -2.1317
  182DOPC  H12Y22397   2.967   2.203  10.654 -0.3505  0.5458 -0.7093
  182DOPC  C31322398   2.813   2.073  10.662  0.4747  0.5227 -0.2440
  182DOPC  H13X22399   2.741   2.019  10.597  1.3720 -1.2669  0.2148
  182DOPC  H13Y22400   2.892   1.999  10.685  1.6830  1.9615  0.4651
  182DOPC  C31422401   2.737   2.112  10.788 -0.0899 -0.3813 -0.1818
  182DOPC  H14X22402   2.665   2.189  10.753 -0.0430  0.4534  1.4692
  182DOPC  H14Y22403   2.681   2.023  10.825 -0.3319 -0.5666 -0.9750
  182DOPC  C31522404   2.826   2.175  10.902  0.5230 -0.8179 -0.4099
  182DOPC  H15X22405   2.756   2.186  10.988  1.3305  0.0771  0.1546
  182DOPC  H15Y22406   2.864   2.278  10.882  1.5469 -0.9382  0.7817
  182DOPC  C31622407   2.942   2.093  10.953 -0.2665  0.6073 -0.3897
  182DOPC  H16X22408   2.911   1.987  10.964  0.5006  0.4453  0.3692
  182DOPC  H16Y22409   3.021   2.096  10.874  3.3475 -0.9389  2.7927
  182DOPC  C31722410   3.007   2.156  11.079 -0.3139  0.2755 -0.6793
  182DOPC  H17X22411   3.043   2.258  11.057 -1.5401  0.7916 -0.3451
  182DOPC  H17Y22412   2.924   2.169  11.152 -2.1997 -0.5031 -2.5462
  182DOPC  C31822413   3.122   2.063  11.136  0.1361  0.7476 -0.0018
  182DOPC  H18X22414   3.159   2.102  11.233  0.4568  0.3240  0.0494
  182DOPC  H18Y22415   3.090   1.957  11.143 -1.1986  1.0996 -0.5151
  182DOPC  H18Z22416   3.216   2.072  11.076  0.1494 -0.3330 -0.1615
  183DOPC     N22417   0.407   4.505   8.548  0.3298 -0.8632  0.4447
  183DOPC   C1222418   0.454   4.520   8.691  0.1133 -0.5596  0.5207
  183DOPC  H12A22419   0.521   4.605   8.686  2.0599 -1.9604  1.4813
  183DOPC  H12B22420   0.501   4.427   8.720  0.2340 -0.5879  0.2411
  183DOPC   C1322421   0.306   4.388   8.534  0.1411 -0.2641  0.1998
  183DOPC  H13A22422   0.346   4.297   8.576  0.6911 -0.9147 -1.6264
  183DOPC  H13B22423   0.219   4.419   8.590  0.4914 -1.7791  1.6522
  183DOPC  H13C22424   0.286   4.375   8.429  1.0659  0.8054 -0.1302
  183DOPC   C1422425   0.532   4.475   8.466  0.4031 -0.8401 -0.4289
  183DOPC  H14A22426   0.579   4.383   8.498  0.1119 -0.2625  1.8609
  183DOPC  H14B22427   0.523   4.462   8.359 -0.4702 -1.0005 -0.3435
  183DOPC  H14C22428   0.602   4.556   8.481 -0.5404 -0.1665  0.4796
  183DOPC   C1522429   0.346   4.629   8.492 -0.4638  0.0361 -0.2820
  183DOPC  H15A22430   0.248   4.650   8.533 -1.1456 -4.3259  0.8720
  183DOPC  H15B22431   0.341   4.623   8.384  2.5856 -2.1866 -0.4371
  183DOPC  H15C22432   0.414   4.708   8.518 -0.3642  0.1787 -0.9505
  183DOPC   C1122433   0.352   4.554   8.799  0.0936  0.5306 -0.9085
  183DOPC  H11A22434   0.277   4.472   8.797  1.1542 -0.6013  1.5921
  183DOPC  H11B22435   0.392   4.553   8.903 -1.2883  0.5980 -0.3451
  183DOPC     P22436   0.366   4.809   8.810 -0.3786 -0.0985 -0.2810
  183DOPC   O1322437   0.279   4.921   8.770  0.2117  0.0987 -0.0413
  183DOPC   O1422438   0.497   4.816   8.747  0.2603  0.3133 -0.5283
  183DOPC   O1222439   0.295   4.679   8.780  0.2591  0.7010  0.5748
  183DOPC   O1122440   0.390   4.794   8.971 -0.2118  0.1163  0.0131
  183DOPC    C122441   0.275   4.763   9.048 -0.3482 -0.4641  0.2444
  183DOPC    HA22442   0.240   4.657   9.047 -0.6546 -0.3771 -1.4662
  183DOPC    HB22443   0.187   4.830   9.034 -0.8872 -0.4253  3.2332
  183DOPC    C222444   0.300   4.778   9.203  0.1826 -0.2571  0.2886
  183DOPC    HS22445   0.318   4.888   9.212  0.8639 -0.5099  2.6834
  183DOPC   O2122446   0.412   4.697   9.248  0.3717  0.2545 -0.5015
  183DOPC   C2122447   0.493   4.765   9.324  0.2358  0.0816  0.4840
  183DOPC   O2222448   0.498   4.886   9.343  0.1715 -0.2736 -0.1223
  183DOPC   C2222449   0.588   4.675   9.389 -0.6127  0.3339 -0.4467
  183DOPC   H2R22450   0.690   4.700   9.350  0.4960 -1.7607  0.9273
  183DOPC   H2S22451   0.591   4.569   9.354  1.5437  0.2778 -0.2340
  183DOPC    C322452   0.176   4.750   9.288  0.9696  0.1935  0.1913
  183DOPC    HX22453   0.150   4.642   9.294 -0.2815  0.4257 -0.5648
  183DOPC    HY22454   0.086   4.799   9.245 -0.6479 -3.3335 -0.8104
  183DOPC   O3122455   0.205   4.791   9.422  0.2051  0.2511 -0.0209
  183DOPC   C3122456   0.097   4.770   9.498  0.6964 -0.3830  0.4079
  183DOPC   O3222457  -0.005   4.715   9.460 -0.4936 -0.0278 -0.3862
  183DOPC   C3222458   0.124   4.810   9.639  0.2039 -0.6350 -0.7824
  183DOPC   H2X22459   0.222   4.762   9.662 -0.1648 -0.7661  0.6002
  183DOPC   H2Y22460   0.125   4.921   9.636  0.5294 -0.5579  0.9786
  183DOPC   C2322461   0.590   4.676   9.546 -0.2358 -0.0008  1.0707
  183DOPC   H3R22462   0.585   4.783   9.574  1.4289 -0.1412  2.0762
  183DOPC   H3S22463   0.685   4.627   9.578 -0.4382 -1.3435 -0.2741
  183DOPC   C2422464   0.479   4.589   9.604  0.4452  0.0754  0.4131
  183DOPC   H4R22465   0.488   4.489   9.555 -2.8279 -0.0842 -0.1025
  183DOPC   H4S22466   0.379   4.635   9.586 -0.1959 -0.9207  1.3302
  183DOPC   C2522467   0.485   4.579   9.755 -0.8908 -0.2532 -0.1542
  183DOPC   H5R22468   0.463   4.680   9.795 -0.1229 -0.4676  0.8467
  183DOPC   H5S22469   0.587   4.553   9.792 -1.2504  0.1442  1.1511
  183DOPC   C2622470   0.383   4.482   9.806  0.0166  0.7426 -0.1419
  183DOPC   H6R22471   0.354   4.403   9.733  0.5738 -0.3546  0.7977
  183DOPC   H6S22472   0.290   4.539   9.829 -0.0439  0.1855  1.0544
  183DOPC   C2722473   0.412   4.417   9.942  0.0137  0.1448  0.2735
  183DOPC   H7R22474   0.427   4.492  10.022 -0.4283  0.8435 -0.2841
  183DOPC   H7S22475   0.506   4.360   9.948 -0.5961 -0.7284  3.0351
  183DOPC   C2822476   0.311   4.308   9.980  0.6490  0.6719 -0.0764
  183DOPC   H8R22477   0.348   4.244  10.062 -1.5425 -0.2141  0.3025
  183DOPC   H8S22478   0.289   4.239   9.897  2.2780  2.0508 -1.7402
  183DOPC   C2922479   0.196   4.374  10.054 -0.3706 -0.8253 -0.3117
  183DOPC   H9R22480   0.188   4.483  10.044 -1.5818 -0.9485 -0.9222
  183DOPC  C21022481   0.085   4.314  10.111 -0.4109  0.7378 -0.3040
  183DOPC  H10R22482   0.012   4.379  10.162  1.4764  1.8461  1.1481
  183DOPC  C21122483   0.071   4.155  10.133  0.4017 -0.1636  0.2323
  183DOPC  H11R22484   0.146   4.097  10.075  0.0941  1.7372 -2.1954
  183DOPC  H11S22485  -0.030   4.133  10.092 -1.0626  3.9309  1.1743
  183DOPC  C21222486   0.085   4.115  10.285 -0.5207 -0.0320  0.4514
  183DOPC  H12R22487   0.183   4.137  10.333 -0.7878  0.8057  0.6338
  183DOPC  H12S22488   0.067   4.006  10.292  0.8152 -0.3776 -0.9005
  183DOPC  C21322489  -0.020   4.197  10.360 -0.6974 -0.0849 -0.0702
  183DOPC  H13R22490  -0.108   4.204  10.292 -1.1649  1.2166  0.6271
  183DOPC  H13S22491   0.016   4.302  10.372  2.3291 -0.8765 -1.3392
  183DOPC  C21422492  -0.064   4.133  10.496  0.0079 -0.4818 -0.5624
  183DOPC  H14R22493   0.021   4.142  10.567 -1.3782 -0.3910  1.1568
  183DOPC  H14S22494  -0.085   4.026  10.477 -1.4458 -0.1736 -0.8287
  183DOPC  C21522495  -0.178   4.212  10.552 -0.3709  0.2072 -0.1926
  183DOPC  H15R22496  -0.265   4.209  10.483 -0.6528  0.1166  0.1606
  183DOPC  H15S22497  -0.155   4.319  10.571 -1.6270  0.4462  0.1095
  183DOPC  C21622498  -0.223   4.157  10.695  0.4957 -0.5163  0.9355
  183DOPC  H16R22499  -0.257   4.055  10.667  0.7696 -0.0375 -1.4004
  183DOPC  H16S22500  -0.307   4.219  10.732  1.9921  0.9748  1.9605
  183DOPC  C21722501  -0.106   4.152  10.798  1.2174  0.4499  0.9663
  183DOPC  H17R22502  -0.054   4.250  10.810 -0.4526  1.8922 -2.4012
  183DOPC  H17S22503  -0.026   4.079  10.772  1.2479  1.0507 -0.7546
  183DOPC  C21822504  -0.170   4.116  10.932 -0.0867 -0.1661  0.4142
  183DOPC  H18R22505  -0.222   4.018  10.930 -2.3286  0.9037  2.1062
  183DOPC  H18S22506  -0.243   4.190  10.970 -2.3828 -0.7121 -2.5375
  183DOPC  H18T22507  -0.077   4.108  10.992  1.9704 -2.5693 -2.7506
  183DOPC   C3322508   0.017   4.758   9.735  0.0646  0.4564  0.2812
  183DOPC   H3X22509   0.000   4.653   9.704  1.1440 -0.1082  1.4803
  183DOPC   H3Y22510  -0.076   4.818   9.738 -0.8967 -0.9654 -0.3379
  183DOPC   C3422511   0.066   4.750   9.881  0.3997  0.0715 -0.1107
  183DOPC   H4X22512   0.095   4.855   9.904 -0.0318  0.2346 -0.2986
  183DOPC   H4Y22513   0.162   4.694   9.875  0.8954  1.0381 -2.3373
  183DOPC   C3522514  -0.045   4.695   9.972 -0.9604 -0.3096 -0.0177
  183DOPC   H5X22515  -0.063   4.589   9.944  3.7706 -1.7537  1.4158
  183DOPC   H5Y22516  -0.137   4.757   9.963 -1.0128 -0.3948 -0.0664
  183DOPC   C3622517  -0.009   4.693  10.124  0.5546  0.0198 -0.2581
  183DOPC   H6X22518   0.079   4.632  10.152 -0.0541 -0.5380  0.4623
  183DOPC   H6Y22519   0.009   4.799  10.151  1.4237  0.2968 -1.7932
  183DOPC   C3722520  -0.115   4.644  10.220  0.3847 -0.0782  0.0650
  183DOPC   H7X22521  -0.213   4.695  10.207 -0.6599 -2.1821 -0.9403
  183DOPC   H7Y22522  -0.148   4.540  10.200  0.6473 -0.2920  0.7217
  183DOPC   C3822523  -0.065   4.623  10.360 -0.4503 -0.1987 -0.6180
  183DOPC   H8X22524   0.022   4.553  10.362  0.1881  0.5871  0.5263
  183DOPC   H8Y22525  -0.146   4.580  10.423 -0.7007  2.2078  0.8275
  183DOPC   C3922526  -0.020   4.752  10.421 -0.4446  0.1177 -1.1256
  183DOPC   H9X22527   0.072   4.795  10.377 -0.1926  1.3309  0.4821
  183DOPC  C31022528  -0.076   4.817  10.525  0.7388 -0.2421  0.2166
  183DOPC  H10X22529  -0.031   4.912  10.556 -1.2226  1.2898 -1.3363
  183DOPC  C31122530  -0.207   4.775  10.599  0.3890  0.4034  0.1538
  183DOPC  H11X22531  -0.252   4.700  10.530  1.3863 -1.0149  0.9958
  183DOPC  H11Y22532  -0.275   4.863  10.606 -0.3368 -0.0643 -0.7775
  183DOPC  C31222533  -0.179   4.698  10.727 -0.1669  0.0275  0.4519
  183DOPC  H12X22534  -0.118   4.606  10.712  0.3236  0.7101 -2.2368
  183DOPC  H12Y22535  -0.274   4.660  10.772  0.0038 -0.9951 -0.0366
  183DOPC  C31322536  -0.116   4.788  10.839  0.4341  0.2597 -0.4123
  183DOPC  H13X22537  -0.007   4.796  10.815 -0.0640  1.7578 -2.4821
  183DOPC  H13Y22538  -0.151   4.894  10.831 -0.1800 -0.0143 -1.5868
  183DOPC  C31422539  -0.133   4.728  10.977  0.0350 -0.4198 -0.2703
  183DOPC  H14X22540  -0.238   4.728  11.012 -0.1354  1.2110 -0.6677
  183DOPC  H14Y22541  -0.111   4.620  10.972  2.6632 -0.1912  2.9373
  183DOPC  C31522542  -0.023   4.782  11.071  0.1760 -0.3957 -0.0115
  183DOPC  H15X22543  -0.060   4.881  11.105 -0.1257 -0.8352  0.9646
  183DOPC  H15Y22544   0.073   4.796  11.017  2.1436 -4.4460  1.9798
  183DOPC  C31622545   0.015   4.689  11.187 -0.0909  0.3520  0.3842
  183DOPC  H16X22546   0.036   4.754  11.274 -0.8989  0.4777  0.4911
  183DOPC  H16Y22547  -0.076   4.630  11.211 -0.1137 -0.2668 -1.0636
  183DOPC  C31722548   0.133   4.589  11.140  0.4801 -0.4469  0.1253
  183DOPC  H17X22549   0.212   4.650  11.092  0.8938  0.7804  2.2519
  183DOPC  H17Y22550   0.179   4.544  11.231 -1.6146  0.1003  1.5194
  183DOPC  C31822551   0.091   4.470  11.056 -0.0581  0.2599  0.2137
  183DOPC  H18X22552  -0.008   4.430  11.084 -1.1129  2.2681 -0.4079
  183DOPC  H18Y22553   0.070   4.507  10.953 -0.6953 -0.5251  0.0515
  183DOPC  H18Z22554   0.173   4.397  11.040 -0.1764 -0.0529  1.0097
  184DOPC     N22555   6.267   1.864   8.539  0.4972  0.4092  0.2819
  184DOPC   C1222556   6.398   1.835   8.609  0.2049 -0.8880  0.0596
  184DOPC  H12A22557   6.371   1.836   8.714  1.8767  1.1379  0.5328
  184DOPC  H12B22558   6.456   1.925   8.598 -0.6267 -0.2972  0.4498
  184DOPC   C1322559   6.228   2.011   8.544 -0.8071 -0.4235  0.3031
  184DOPC  H13A22560   6.127   2.039   8.518 -0.9308  0.9146  2.0372
  184DOPC  H13B22561   6.242   2.049   8.644  0.3854  1.9914 -0.7027
  184DOPC  H13C22562   6.296   2.069   8.485 -0.6477 -1.1280 -0.2108
  184DOPC   C1422563   6.155   1.794   8.600 -0.3736 -0.2164  0.1486
  184DOPC  H14A22564   6.154   1.686   8.597  1.4130 -0.2425 -0.2163
  184DOPC  H14B22565   6.151   1.830   8.702  0.4375  0.6311 -0.1057
  184DOPC  H14C22566   6.058   1.819   8.559 -0.6259 -1.1858  0.1244
  184DOPC   C1522567   6.277   1.827   8.389  0.0578 -0.3437  0.1313
  184DOPC  H15A22568   6.324   1.730   8.378 -0.4250 -0.4903 -0.6999
  184DOPC  H15B22569   6.336   1.898   8.334 -1.4260  2.2405  1.6725
  184DOPC  H15C22570   6.179   1.836   8.345 -0.2466  1.3437  1.0766
  184DOPC   C1122571   6.475   1.705   8.591 -0.1989  0.5251  0.9844
  184DOPC  H11A22572   6.405   1.620   8.609  0.3995  0.2203  1.9564
  184DOPC  H11B22573   6.524   1.702   8.491 -1.8601  0.9924  0.1158
  184DOPC     P22574   6.557   1.647   8.836 -0.0789 -0.1966 -0.3928
  184DOPC   O1322575   6.683   1.688   8.906  0.1706  0.3716 -0.2301
  184DOPC   O1422576   6.514   1.504   8.832  0.4062  0.0904  0.3321
  184DOPC   O1222577   6.574   1.706   8.687  0.2963 -0.2494 -0.0361
  184DOPC   O1122578   6.439   1.741   8.888 -0.2604 -0.3026  0.0096
  184DOPC    C122579   6.472   1.858   8.946 -0.0076 -0.9617  0.0033
  184DOPC    HA22580   6.385   1.927   8.941 -0.0259 -0.8673  1.2760
  184DOPC    HB22581   6.555   1.912   8.896 -0.5913 -1.4738 -1.5893
  184DOPC    C222582   6.503   1.836   9.095  0.2451 -0.6017 -0.0747
  184DOPC    HS22583   6.539   1.732   9.105  1.1375 -0.4347 -1.3539
  184DOPC   O2122584   6.379   1.865   9.168 -0.0898 -0.8094  0.5338
  184DOPC   C2122585   6.302   1.757   9.188  0.0928  0.6812 -0.3719
  184DOPC   O2222586   6.334   1.641   9.163  0.7257 -0.1124 -0.0364
  184DOPC   C2222587   6.185   1.801   9.284 -0.6635  0.4465 -0.1677
  184DOPC   H2R22588   6.134   1.881   9.227 -0.1550  0.0621 -1.1820
  184DOPC   H2S22589   6.231   1.843   9.376  1.9383 -0.7648 -0.8145
  184DOPC    C322590   6.619   1.926   9.143 -0.8153 -0.0777  0.2464
  184DOPC    HX22591   6.603   2.029   9.104  3.2595 -0.1493 -2.2295
  184DOPC    HY22592   6.712   1.897   9.089 -0.0562 -1.2516  2.0830
  184DOPC   O3122593   6.642   1.906   9.285 -0.3297 -0.3902 -0.3595
  184DOPC   C3122594   6.595   2.006   9.357  0.7498 -0.2603 -0.8205
  184DOPC   O3222595   6.537   2.104   9.312  0.3698 -0.2194  0.2070
  184DOPC   C3222596   6.628   1.989   9.500 -0.7492  0.7285  0.3757
  184DOPC   H2X22597   6.675   1.888   9.498  0.9654  1.5031 -1.5875
  184DOPC   H2Y22598   6.712   2.053   9.534  0.6273 -0.3373 -0.8920
  184DOPC   C2322599   6.079   1.686   9.315  0.2980  0.0734 -0.0903
  184DOPC   H3R22600   6.123   1.584   9.324  0.1555 -0.3144 -2.7572
  184DOPC   H3S22601   6.011   1.678   9.227  2.2039  1.4498 -1.7976
  184DOPC   C2422602   6.007   1.721   9.447 -1.4080  0.2603 -0.2659
  184DOPC   H4R22603   6.090   1.756   9.512  0.7266 -1.6068 -1.7973
  184DOPC   H4S22604   5.975   1.628   9.499  0.2861 -0.2610 -0.0792
  184DOPC   C2522605   5.879   1.807   9.439 -0.3638  0.5211  0.3606
  184DOPC   H5R22606   5.804   1.754   9.377  0.6722 -0.8468  0.2445
  184DOPC   H5S22607   5.912   1.888   9.371 -1.5882 -1.6857 -3.1224
  184DOPC   C2622608   5.818   1.841   9.577 -0.2975 -0.2346  0.7588
  184DOPC   H6R22609   5.779   1.944   9.567  0.5395 -0.0315 -0.6874
  184DOPC   H6S22610   5.896   1.833   9.655  1.0297  2.2438 -0.1992
  184DOPC   C2722611   5.687   1.773   9.604  0.4052 -0.8137  0.7744
  184DOPC   H7R22612   5.694   1.662   9.605  1.0236 -0.8451 -1.7943
  184DOPC   H7S22613   5.624   1.794   9.515  1.5050  5.7083  1.0327
  184DOPC   C2822614   5.609   1.833   9.724  0.4078  0.3763  0.0851
  184DOPC   H8R22615   5.504   1.801   9.708  0.9656 -1.1968 -0.6838
  184DOPC   H8S22616   5.613   1.943   9.709  1.3245  0.3350 -0.0467
  184DOPC   C2922617   5.665   1.787   9.858 -1.0902 -0.0435  0.0769
  184DOPC   H9R22618   5.706   1.686   9.862 -2.7135 -0.8123 -1.2809
  184DOPC  C21022619   5.670   1.850   9.976 -0.3407 -0.2010 -0.2548
  184DOPC  H10R22620   5.695   1.796  10.068 -0.8233 -0.4428 -0.2627
  184DOPC  C21122621   5.598   1.974  10.017 -0.3334 -0.5330  0.8020
  184DOPC  H11R22622   5.536   2.008   9.932  1.0224  0.5298  0.2035
  184DOPC  H11S22623   5.674   2.054  10.034 -1.0934  0.2771  0.4321
  184DOPC  C21222624   5.509   1.949  10.132  0.3234 -0.3494 -0.0505
  184DOPC  H12R22625   5.446   1.859  10.121  0.1604 -0.1144 -1.1819
  184DOPC  H12S22626   5.440   2.036  10.131 -0.3397 -0.8677 -0.3631
  184DOPC  C21322627   5.586   1.959  10.265 -0.1952  0.4332  0.4485
  184DOPC  H13R22628   5.652   2.049  10.267 -0.0021  0.3498 -0.9447
  184DOPC  H13S22629   5.661   1.877  10.271 -0.4773  0.2651  2.5929
  184DOPC  C21422630   5.499   1.941  10.394 -0.0190 -0.0596 -0.4604
  184DOPC  H14R22631   5.453   1.840  10.391 -0.8209  0.1841  1.4914
  184DOPC  H14S22632   5.414   2.012  10.382 -0.7159 -0.5931  0.9730
  184DOPC  C21522633   5.572   1.968  10.526 -0.0034  0.0446  0.2419
  184DOPC  H15R22634   5.637   2.057  10.510 -2.8691  2.1797 -0.2143
  184DOPC  H15S22635   5.632   1.874  10.529 -0.5313 -0.2744  2.1831
  184DOPC  C21622636   5.490   1.979  10.648  0.0445 -0.4389  0.0127
  184DOPC  H16R22637   5.418   1.898  10.673 -1.1061  1.1746  2.2707
  184DOPC  H16S22638   5.425   2.069  10.647 -0.9111 -1.0792  1.3459
  184DOPC  C21722639   5.567   1.994  10.776 -0.4053 -0.0947  0.2462
  184DOPC  H17R22640   5.641   2.077  10.766  1.2310 -1.5776 -0.4029
  184DOPC  H17S22641   5.623   1.899  10.785 -3.7694 -2.6929 -3.2014
  184DOPC  C21822642   5.483   2.007  10.904 -0.3303 -0.2552  0.2080
  184DOPC  H18R22643   5.422   1.916  10.917 -0.9287  0.2590  1.1031
  184DOPC  H18S22644   5.410   2.090  10.902 -0.3300 -0.1883  1.8168
  184DOPC  H18T22645   5.551   2.034  10.988 -1.2710 -0.8345  1.1667
  184DOPC   C3322646   6.502   1.983   9.589  0.1431 -0.0350 -1.1308
  184DOPC   H3X22647   6.423   1.917   9.547  1.0889 -1.7061 -0.3908
  184DOPC   H3Y22648   6.468   2.087   9.605  0.3140  0.0713 -1.4471
  184DOPC   C3422649   6.533   1.925   9.735 -0.5948 -0.1179  0.0248
  184DOPC   H4X22650   6.619   1.983   9.775  0.5176 -2.0695  0.5602
  184DOPC   H4Y22651   6.572   1.822   9.722  1.6032  0.5998  0.5071
  184DOPC   C3522652   6.407   1.933   9.831 -0.1752  0.1612 -0.2939
  184DOPC   H5X22653   6.323   1.881   9.782  0.8434 -0.6201 -1.2508
  184DOPC   H5Y22654   6.380   2.041   9.825 -0.1904  0.1657 -0.1379
  184DOPC   C3622655   6.432   1.888   9.975  0.0860 -0.5918  0.4932
  184DOPC   H6X22656   6.471   1.784   9.984 -1.0953 -1.0570  0.5668
  184DOPC   H6Y22657   6.506   1.955  10.023  0.4105  0.7130 -1.7028
  184DOPC   C3722658   6.307   1.893  10.073  0.3678  0.3877  0.7185
  184DOPC   H7X22659   6.275   1.998  10.089  1.1642  0.6466  0.6371
  184DOPC   H7Y22660   6.228   1.839  10.015 -0.8426  0.8787  1.8624
  184DOPC   C3822661   6.321   1.818  10.204 -0.5057  0.5565 -0.6557
  184DOPC   H8X22662   6.416   1.853  10.251 -1.7103  1.6759  1.0947
  184DOPC   H8Y22663   6.330   1.708  10.192 -0.4349  0.2599  1.5591
  184DOPC   C3922664   6.199   1.846  10.289 -0.2106 -0.1180 -0.5781
  184DOPC   H9X22665   6.140   1.926  10.241 -1.7101 -2.4115 -2.8325
  184DOPC  C31022666   6.171   1.800  10.412 -0.0797 -0.0037 -0.4453
  184DOPC  H10X22667   6.079   1.835  10.461  1.8248  0.8034  2.8717
  184DOPC  C31122668   6.244   1.691  10.489 -0.1873 -0.3495 -1.0421
  184DOPC  H11X22669   6.352   1.687  10.463  0.6291 -0.9838  2.0652
  184DOPC  H11Y22670   6.195   1.595  10.464  0.2854 -0.2975 -2.2404
  184DOPC  C31222671   6.232   1.713  10.640 -0.6785 -0.1818 -0.4047
  184DOPC  H12X22672   6.289   1.804  10.666 -0.5063  0.0715 -1.6138
  184DOPC  H12Y22673   6.289   1.628  10.683 -2.2341 -0.6126  0.9553
  184DOPC  C31322674   6.088   1.720  10.700 -0.7270  0.0556  0.1257
  184DOPC  H13X22675   6.042   1.820  10.687  0.9122  0.8852  0.4752
  184DOPC  H13Y22676   6.030   1.640  10.649 -1.0655 -1.1578  2.3075
  184DOPC  C31422677   6.100   1.676  10.844  0.3692 -0.4174 -0.4075
  184DOPC  H14X22678   5.996   1.669  10.882 -0.3837  1.1786 -2.0478
  184DOPC  H14Y22679   6.156   1.580  10.852  0.7605 -0.0465  2.1383
  184DOPC  C31522680   6.180   1.770  10.936  0.3870  0.9883  0.4851
  184DOPC  H15X22681   6.115   1.860  10.932 -2.1169 -0.7208 -0.0389
  184DOPC  H15Y22682   6.276   1.804  10.892 -0.2382  0.0296 -1.7522
  184DOPC  C31622683   6.180   1.737  11.089 -0.0492  0.0727  0.3864
  184DOPC  H16X22684   6.075   1.733  11.123 -0.0933  3.0471  0.8049
  184DOPC  H16Y22685   6.233   1.641  11.111  1.6171  0.5945 -1.0974
  184DOPC  C31722686   6.247   1.850  11.164 -0.1443  0.1894  0.5270
  184DOPC  H17X22687   6.355   1.843  11.138  0.2052  2.5089  1.1369
  184DOPC  H17Y22688   6.215   1.947  11.122  2.3081  0.1325 -1.7275
  184DOPC  C31822689   6.230   1.841  11.315 -0.2658  0.5801  0.2620
  184DOPC  H18X22690   6.223   1.733  11.338  1.0593  0.3057 -0.5565
  184DOPC  H18Y22691   6.318   1.863  11.378 -1.3463 -0.4246  2.1965
  184DOPC  H18Z22692   6.141   1.896  11.353  0.6022  2.3365 -0.1486
  185DOPC     N22693   6.247   5.329   9.181 -0.6464  0.2949  0.3665
  185DOPC   C1222694   6.277   5.417   9.300  0.6192  0.4162  0.0856
  185DOPC  H12A22695   6.208   5.391   9.379 -0.7029  2.2708 -0.3859
  185DOPC  H12B22696   6.262   5.520   9.271  2.8472  0.1419 -2.4258
  185DOPC   C1322697   6.335   5.374   9.066  0.1164  0.1039 -1.3517
  185DOPC  H13A22698   6.438   5.375   9.097 -0.9718  1.1763  2.9020
  185DOPC  H13B22699   6.313   5.315   8.978  2.4547 -1.7143 -0.8173
  185DOPC  H13C22700   6.309   5.476   9.039 -1.1749  0.3377  0.5524
  185DOPC   C1422701   6.115   5.341   9.133  0.5054  0.6497 -0.0209
  185DOPC  H14A22702   6.087   5.268   9.059 -0.9678 -0.4819  1.5785
  185DOPC  H14B22703   6.044   5.330   9.213 -0.4017 -2.0530 -1.0917
  185DOPC  H14C22704   6.099   5.441   9.093  0.4264 -0.3408 -2.6983
  185DOPC   C1522705   6.266   5.185   9.202 -0.4075  0.4475  0.1222
  185DOPC  H15A22706   6.221   5.128   9.123  0.6687 -1.0474  0.5446
  185DOPC  H15B22707   6.224   5.154   9.297  2.1971  0.9201  1.5276
  185DOPC  H15C22708   6.371   5.161   9.196 -0.2512  1.5303 -2.6495
  185DOPC   C1122709   6.420   5.418   9.350  0.2854  0.1465 -0.0511
  185DOPC  H11A22710   6.426   5.476   9.445 -1.0139  4.1331 -2.1618
  185DOPC  H11B22711   6.452   5.319   9.390 -0.0772  0.3733  0.8358
  185DOPC     P22712   6.574   5.617   9.267  0.2962 -0.0826  0.0485
  185DOPC   O1322713   6.524   5.689   9.148 -0.5471  0.6433 -0.4144
  185DOPC   O1422714   6.719   5.615   9.288  0.2530  0.5237  0.2939
  185DOPC   O1222715   6.512   5.475   9.262 -0.6029  0.0210  0.0312
  185DOPC   O1122716   6.509   5.691   9.389 -0.4934 -0.3813 -0.1221
  185DOPC    C122717   6.544   5.826   9.422  0.0932 -0.6836  0.1566
  185DOPC    HA22718   6.460   5.874   9.477  0.8255 -1.0646  1.6705
  185DOPC    HB22719   6.570   5.888   9.333  0.7803 -0.1774  0.6899
  185DOPC    C222720   6.664   5.833   9.522 -0.2118 -1.1038  0.1428
  185DOPC    HS22721   6.759   5.799   9.475  1.3430  0.3435  2.0574
  185DOPC   O2122722   6.627   5.746   9.628  0.0693 -0.4387  0.7715
  185DOPC   C2122723   6.724   5.693   9.706 -0.4807 -0.0151  0.5306
  185DOPC   O2222724   6.845   5.705   9.682  0.1717  0.1379 -0.6040
  185DOPC   C2222725   6.668   5.603   9.814  0.5223  0.3960 -0.8016
  185DOPC   H2R22726   6.672   5.498   9.777 -1.9193 -0.5036  1.2017
  185DOPC   H2S22727   6.558   5.598   9.825  0.6911 -0.4035  0.8788
  185DOPC    C322728   6.679   5.984   9.567 -0.3079 -0.7309 -0.2242
  185DOPC    HX22729   6.583   6.033   9.593 -0.3760  0.1205 -1.9567
  185DOPC    HY22730   6.705   6.040   9.475  2.4460  0.3573  1.0776
  185DOPC   O3122731   6.765   5.997   9.683  0.1751 -0.0554  0.2051
  185DOPC   C3122732   6.891   6.029   9.668  0.2320 -0.0069 -0.2696
  185DOPC   O3222733   6.943   6.067   9.566 -0.2381  0.6440 -0.0180
  185DOPC   C3222734   6.971   6.001   9.796  0.2503 -0.2064 -0.4741
  185DOPC   H2X22735   7.001   5.894   9.788  0.5310 -0.0811 -1.2100
  185DOPC   H2Y22736   7.055   6.074   9.792 -0.4385  0.5337 -2.8187
  185DOPC   C2322737   6.735   5.619   9.955 -0.3896  0.2506  0.5547
  185DOPC   H3R22738   6.841   5.647   9.936 -0.7208  1.1634 -0.0369
  185DOPC   H3S22739   6.735   5.522  10.009 -1.3511 -0.2811 -0.3613
  185DOPC   C2422740   6.673   5.731  10.046 -0.1382  0.2342  0.3564
  185DOPC   H4R22741   6.571   5.691  10.065  0.7146 -2.0608  0.3883
  185DOPC   H4S22742   6.657   5.829   9.996 -1.2258 -0.4052 -0.6016
  185DOPC   C2522743   6.748   5.755  10.169 -0.4431 -0.8295 -0.0577
  185DOPC   H5R22744   6.683   5.821  10.229  0.8293  2.9796 -2.5408
  185DOPC   H5S22745   6.845   5.800  10.137 -0.9619 -0.2871 -0.9039
  185DOPC   C2622746   6.786   5.635  10.258  0.3827  0.1379  0.1982
  185DOPC   H6R22747   6.844   5.566  10.192 -0.9534  0.9106 -1.8773
  185DOPC   H6S22748   6.695   5.584  10.297  1.2333  0.2117  2.4057
  185DOPC   C2722749   6.881   5.677  10.376  0.3602 -0.2099 -0.0839
  185DOPC   H7R22750   6.829   5.759  10.430  0.2563 -1.3702  1.6376
  185DOPC   H7S22751   6.970   5.728  10.334  1.2231 -0.6347  1.1672
  185DOPC   C2822752   6.917   5.564  10.472 -0.0142 -0.1390  0.5591
  185DOPC   H8R22753   7.022   5.576  10.505  0.0042 -0.5446  0.6494
  185DOPC   H8S22754   6.913   5.472  10.410  2.0781 -1.0188  1.6549
  185DOPC   C2922755   6.812   5.547  10.582  0.2220 -0.0763 -0.5777
  185DOPC   H9R22756   6.714   5.505  10.553  0.9496 -0.1507 -3.1679
  185DOPC  C21022757   6.830   5.567  10.711  0.1511 -0.1712 -0.5987
  185DOPC  H10R22758   6.758   5.530  10.786  0.3115  1.3769  0.3537
  185DOPC  C21122759   6.948   5.639  10.765  0.1816 -0.1497  0.0461
  185DOPC  H11R22760   6.910   5.695  10.853 -3.2955 -0.6025 -1.0186
  185DOPC  H11S22761   6.994   5.708  10.691  3.2599 -2.6939 -0.6219
  185DOPC  C21222762   7.065   5.551  10.809  0.1029  0.6677  0.1206
  185DOPC  H12R22763   7.129   5.624  10.864  2.2704 -1.1358  0.1220
  185DOPC  H12S22764   7.117   5.504  10.723  0.9115  0.9820  0.4281
  185DOPC  C21322765   7.016   5.427  10.894 -0.7311  0.5682 -1.2489
  185DOPC  H13R22766   6.947   5.357  10.843  1.1728 -1.3172 -1.3586
  185DOPC  H13S22767   6.962   5.465  10.985  1.7219 -0.6454  0.8320
  185DOPC  C21422768   7.136   5.346  10.948 -0.9884  0.2826  0.4712
  185DOPC  H14R22769   7.194   5.321  10.856  0.2235 -0.8705  1.4928
  185DOPC  H14S22770   7.117   5.246  10.994  0.4740  0.4240  1.4620
  185DOPC  C21522771   7.221   5.421  11.046 -0.7275  0.8143  0.4834
  185DOPC  H15R22772   7.149   5.462  11.121 -1.9269  1.5794 -1.0272
  185DOPC  H15S22773   7.276   5.504  10.997  0.7136 -1.0133 -1.1249
  185DOPC  C21622774   7.333   5.327  11.098  0.1008  0.4993 -0.0793
  185DOPC  H16R22775   7.391   5.281  11.015  0.6247 -0.9559  1.0547
  185DOPC  H16S22776   7.298   5.240  11.158  0.5305  0.6693  0.4255
  185DOPC  C21722777   7.430   5.409  11.176 -1.1544 -0.1863  0.0104
  185DOPC  H17R22778   7.414   5.513  11.142 -0.3161 -0.1916 -0.4358
  185DOPC  H17S22779   7.529   5.375  11.138 -0.0258  0.7167  1.9540
  185DOPC  C21822780   7.415   5.405  11.332 -0.3963  0.4633  0.3351
  185DOPC  H18R22781   7.320   5.459  11.354  0.0153  0.1923  3.1514
  185DOPC  H18S22782   7.500   5.456  11.382  0.2041  0.9280 -1.1125
  185DOPC  H18T22783   7.403   5.300  11.365 -4.1747  1.0270  1.3176
  185DOPC   C3322784   6.892   6.026   9.924 -0.1603  0.4231 -0.9764
  185DOPC   H3X22785   6.936   5.978  10.014 -1.2113  1.8020  0.3084
  185DOPC   H3Y22786   6.790   5.987   9.903 -0.5855  0.2086  1.2941
  185DOPC   C3422787   6.884   6.172   9.962  0.1676 -0.0409  0.1852
  185DOPC   H4X22788   6.814   6.227   9.895 -1.6112 -2.2193  0.1566
  185DOPC   H4Y22789   6.991   6.203   9.956 -0.2653  1.2516 -1.4490
  185DOPC   C3522790   6.826   6.186  10.104 -0.0720 -0.5456  0.2317
  185DOPC   H5X22791   6.834   6.294  10.130  0.4591  0.2373 -2.7592
  185DOPC   H5Y22792   6.882   6.116  10.169 -1.9227 -1.1247  1.2697
  185DOPC   C3622793   6.677   6.146  10.118  0.6258  0.7836 -0.2689
  185DOPC   H6X22794   6.616   6.199  10.041  1.1240  0.8933 -0.5933
  185DOPC   H6Y22795   6.669   6.038  10.094 -1.1764  0.7032  0.5505
  185DOPC   C3722796   6.615   6.171  10.256 -0.8458 -0.1325  0.0308
  185DOPC   H7X22797   6.627   6.274  10.294 -0.5952 -0.5851  1.2099
  185DOPC   H7Y22798   6.506   6.163  10.240 -0.7612 -1.7873  0.1310
  185DOPC   C3822799   6.659   6.067  10.356 -0.6426  0.0823 -0.3992
  185DOPC   H8X22800   6.769   6.052  10.354 -0.1277  3.1811 -0.9588
  185DOPC   H8Y22801   6.621   5.969  10.323 -0.0866  0.0019 -0.8214
  185DOPC   C3922802   6.604   6.085  10.494 -0.1613 -0.3063  0.1173
  185DOPC   H9X22803   6.495   6.102  10.498 -0.1015  0.6305 -1.4697
  185DOPC  C31022804   6.670   6.106  10.608 -0.6721 -0.4552 -0.3891
  185DOPC  H10X22805   6.621   6.111  10.706  1.6525 -1.9025  0.9635
  185DOPC  C31122806   6.824   6.110  10.632  0.2451  0.1665  0.2903
  185DOPC  H11X22807   6.858   6.216  10.630  1.1525 -0.0766  1.4342
  185DOPC  H11Y22808   6.873   6.064  10.544  0.9199 -0.4925  0.9924
  185DOPC  C31222809   6.866   6.036  10.763  0.0143 -0.9365  0.2923
  185DOPC  H12X22810   6.860   5.926  10.745  1.1691 -1.0971  0.7805
  185DOPC  H12Y22811   6.786   6.061  10.836 -0.5619 -0.0386 -0.6318
  185DOPC  C31322812   7.003   6.068  10.816  0.1551 -0.3327 -0.0910
  185DOPC  H13X22813   7.072   6.053  10.730  0.8352  1.6774  0.0406
  185DOPC  H13Y22814   7.011   6.174  10.848 -0.2574 -0.8109  1.7261
  185DOPC  C31422815   7.049   5.980  10.932  0.5477 -0.3012 -0.2991
  185DOPC  H14X22816   6.971   5.991  11.010  0.0525 -0.3127 -0.7841
  185DOPC  H14Y22817   7.042   5.875  10.896 -1.3421  0.0263 -1.0045
  185DOPC  C31522818   7.193   5.999  10.984  0.1114 -0.8454  0.8332
  185DOPC  H15X22819   7.193   6.101  11.027 -1.2392 -0.1625 -0.7232
  185DOPC  H15Y22820   7.264   6.000  10.899  1.4116 -0.1887  1.8888
  185DOPC  C31622821   7.240   5.884  11.077  0.0107  0.0984  0.3360
  185DOPC  H16X22822   7.212   5.783  11.041  0.8864 -0.0624  0.0827
  185DOPC  H16Y22823   7.349   5.898  11.089  0.1805 -1.1973  0.4228
  185DOPC  C31722824   7.180   5.893  11.221 -0.6618  0.3597  0.0919
  185DOPC  H17X22825   7.173   5.998  11.257 -0.7307  0.0003  1.1518
  185DOPC  H17Y22826   7.078   5.851  11.211  0.0771 -1.5801  0.1767
  185DOPC  C31822827   7.257   5.812  11.325 -0.4443 -0.0375  0.0637
  185DOPC  H18X22828   7.217   5.824  11.428  1.8447  1.9561  0.7879
  185DOPC  H18Y22829   7.266   5.705  11.294 -1.1864 -0.0877 -0.0081
  185DOPC  H18Z22830   7.361   5.848  11.329  0.1429 -1.5787 -0.6424
  186DOPC     N22831   1.446   3.588   8.880 -0.1004 -0.1383  0.6678
  186DOPC   C1222832   1.357   3.627   8.998  0.4289 -0.1285  0.5764
  186DOPC  H12A22833   1.255   3.612   8.968  0.3846  0.5384  0.3727
  186DOPC  H12B22834   1.376   3.731   9.021 -1.3766  0.5058 -0.6135
  186DOPC   C1322835   1.595   3.622   8.902  0.1550 -0.1230 -0.6298
  186DOPC  H13A22836   1.605   3.721   8.944 -0.6580  0.4959 -1.8376
  186DOPC  H13B22837   1.634   3.554   8.977 -1.6032  0.3007  0.7424
  186DOPC  H13C22838   1.646   3.604   8.809  1.4362 -3.1070  0.5133
  186DOPC   C1422839   1.414   3.677   8.755  0.2024 -0.1071 -0.0402
  186DOPC  H14A22840   1.466   3.637   8.669 -1.2028 -2.1074 -0.0457
  186DOPC  H14B22841   1.311   3.672   8.723 -1.3739  2.5129  3.8174
  186DOPC  H14C22842   1.447   3.779   8.759 -0.5602  0.4139 -3.6311
  186DOPC   C1522843   1.431   3.444   8.849 -0.1515 -0.1604 -0.3687
  186DOPC  H15A22844   1.500   3.407   8.775 -0.7819 -1.7056 -0.2066
  186DOPC  H15B22845   1.333   3.416   8.813 -0.4284  0.3669 -0.0573
  186DOPC  H15C22846   1.445   3.391   8.942  0.0414  1.3476  0.4973
  186DOPC   C1122847   1.380   3.549   9.137  0.4733  0.1351 -0.2533
  186DOPC  H11A22848   1.486   3.560   9.167  0.2655 -0.9990  1.0078
  186DOPC  H11B22849   1.320   3.601   9.216 -0.2935  0.5774 -1.1062
  186DOPC     P22850   1.197   3.366   9.135 -0.2371  0.2634  0.4278
  186DOPC   O1322851   1.186   3.220   9.118 -0.8987 -0.0970  0.5738
  186DOPC   O1422852   1.124   3.443   9.035  0.4696  0.1551 -0.1594
  186DOPC   O1222853   1.346   3.411   9.125 -0.2360 -0.3380  0.6369
  186DOPC   O1122854   1.146   3.404   9.287 -0.3763  0.0646 -0.2710
  186DOPC    C122855   1.222   3.367   9.393 -0.2347  0.4732 -0.0775
  186DOPC    HA22856   1.281   3.453   9.430  0.0937 -0.3611  1.4384
  186DOPC    HB22857   1.293   3.284   9.372  1.7466  2.0667  0.1426
  186DOPC    C222858   1.131   3.317   9.509 -0.1848 -0.5919 -0.5838
  186DOPC    HS22859   1.203   3.253   9.565 -1.9086 -0.3231  2.1130
  186DOPC   O2122860   1.013   3.244   9.465  0.3028  0.4245  0.2851
  186DOPC   C2122861   1.038   3.132   9.407 -0.5847  0.0018 -0.1207
  186DOPC   O2222862   1.146   3.077   9.399 -0.1223  0.2327 -0.6567
  186DOPC   C2222863   0.912   3.072   9.342  0.2998  0.1226  0.4923
  186DOPC   H2R22864   0.932   2.964   9.329  0.3529  0.2053 -0.1910
  186DOPC   H2S22865   0.912   3.115   9.239  0.9211  1.0403  0.8690
  186DOPC    C322866   1.080   3.436   9.597  0.0818  0.9048 -0.1984
  186DOPC    HX22867   1.009   3.497   9.538  1.0335  0.9315 -1.3465
  186DOPC    HY22868   1.165   3.499   9.631  0.3405  0.7987 -0.6397
  186DOPC   O3122869   1.010   3.396   9.715  0.0158 -0.1273  0.2351
  186DOPC   C3122870   1.088   3.328   9.794 -0.4413 -0.2053 -0.3300
  186DOPC   O3222871   1.208   3.304   9.782  0.5614  0.2952 -1.0457
  186DOPC   C3222872   0.990   3.260   9.892 -0.2753 -0.4336  0.0195
  186DOPC   H2X22873   0.937   3.341   9.946  2.7417  0.9556  1.1177
  186DOPC   H2Y22874   0.918   3.207   9.826  0.1733  0.1843 -0.9818
  186DOPC   C2322875   0.781   3.100   9.418  0.8878 -0.0250 -0.2423
  186DOPC   H3R22876   0.692   3.073   9.357  0.4930  0.4657  0.1112
  186DOPC   H3S22877   0.774   3.209   9.440 -0.0712  0.2795 -1.8667
  186DOPC   C2422878   0.768   3.021   9.545  0.2896  0.2407 -0.9715
  186DOPC   H4R22879   0.854   3.048   9.611  0.9561 -3.0608 -0.2989
  186DOPC   H4S22880   0.779   2.911   9.529  0.9838  0.1092  0.2002
  186DOPC   C2522881   0.644   3.043   9.622  0.5234  0.1690 -1.0147
  186DOPC   H5R22882   0.557   3.015   9.559 -1.8567  0.5062  1.8718
  186DOPC   H5S22883   0.624   3.149   9.647  1.3198  0.0829  0.0677
  186DOPC   C2622884   0.641   2.972   9.765  0.0529  0.4427  0.0893
  186DOPC   H6R22885   0.733   2.997   9.823  2.3755 -3.3618 -1.6055
  186DOPC   H6S22886   0.653   2.863   9.746  1.9006  0.3537  1.5666
  186DOPC   C2722887   0.532   2.997   9.863  0.0882  0.2407  0.5414
  186DOPC   H7R22888   0.433   3.002   9.812 -0.3575 -1.4767  1.1571
  186DOPC   H7S22889   0.558   3.095   9.907  1.6077 -0.1458  0.5412
  186DOPC   C2822890   0.517   2.895   9.978 -0.8486 -0.8275 -0.5353
  186DOPC   H8R22891   0.495   2.799   9.926 -1.6646  0.1493 -2.0409
  186DOPC   H8S22892   0.432   2.927  10.042 -0.6798  1.6169 -1.4387
  186DOPC   C2922893   0.638   2.861  10.062  0.3590  0.0844 -0.7702
  186DOPC   H9R22894   0.727   2.849   9.997  0.4306  1.3371 -0.9182
  186DOPC  C21022895   0.641   2.842  10.195  0.2282 -0.4406 -0.9290
  186DOPC  H10R22896   0.738   2.817  10.239 -0.0345  1.5392  0.9796
  186DOPC  C21122897   0.515   2.839  10.287 -0.0403 -0.4550  0.3734
  186DOPC  H11R22898   0.489   2.735  10.316  2.1009 -0.6426  1.7722
  186DOPC  H11S22899   0.425   2.883  10.237  0.9663  0.5675 -0.5868
  186DOPC  C21222900   0.541   2.923  10.412  0.1024 -0.1424 -0.2103
  186DOPC  H12R22901   0.449   2.939  10.472  0.7591 -0.1183  0.8337
  186DOPC  H12S22902   0.586   3.023  10.392  2.0208 -0.7324  0.8766
  186DOPC  C21322903   0.635   2.858  10.517 -0.6427  0.1445 -0.1021
  186DOPC  H13R22904   0.741   2.873  10.486 -1.2526 -1.0284 -3.0667
  186DOPC  H13S22905   0.629   2.750  10.495 -0.2501  0.5793 -2.5928
  186DOPC  C21422906   0.616   2.902  10.657 -0.3008  0.3665 -0.1976
  186DOPC  H14R22907   0.522   2.854  10.692 -0.9943  1.5921 -0.3074
  186DOPC  H14S22908   0.605   3.012  10.663 -1.8436  0.4234 -2.8207
  186DOPC  C21522909   0.714   2.847  10.764  0.6784 -0.1994 -0.0736
  186DOPC  H15R22910   0.819   2.882  10.752  0.1677  1.0915 -1.0462
  186DOPC  H15S22911   0.708   2.737  10.779  2.5493  0.0047  3.1376
  186DOPC  C21622912   0.671   2.895  10.900 -0.2325  0.8734 -0.1547
  186DOPC  H16R22913   0.573   2.847  10.921  0.1453 -0.4593 -1.2742
  186DOPC  H16S22914   0.669   3.006  10.899  0.5301  0.8994 -2.2802
  186DOPC  C21722915   0.770   2.838  11.004 -0.2490 -0.3670  0.1151
  186DOPC  H17R22916   0.872   2.868  10.972 -0.3223 -0.8181 -0.5761
  186DOPC  H17S22917   0.762   2.728  11.018  0.5482 -0.4017  0.3205
  186DOPC  C21822918   0.741   2.905  11.136 -0.2680 -0.1790  0.3914
  186DOPC  H18R22919   0.807   2.864  11.215 -2.0554 -2.1695  0.9386
  186DOPC  H18S22920   0.637   2.910  11.175  0.0904  0.6766  1.2834
  186DOPC  H18T22921   0.760   3.014  11.123  0.8509 -0.0879  2.3228
  186DOPC   C3322922   1.046   3.157   9.989 -0.5236  0.6180 -0.4903
  186DOPC   H3X22923   1.152   3.180  10.011 -1.2049  1.9632  1.7136
  186DOPC   H3Y22924   1.034   3.061   9.935  0.2337  1.0970 -1.5463
  186DOPC   C3422925   0.959   3.155  10.121 -0.1040  0.3674 -0.6504
  186DOPC   H4X22926   0.970   3.056  10.171  0.2439  0.5741 -0.3135
  186DOPC   H4Y22927   0.854   3.185  10.100 -0.4006 -0.1952 -0.0305
  186DOPC   C3522928   1.004   3.248  10.236  0.3671 -0.3588  0.6249
  186DOPC   H5X22929   0.944   3.341  10.231  0.3423 -0.3271  1.3693
  186DOPC   H5Y22930   1.109   3.271  10.206  1.0353 -1.8231  1.6988
  186DOPC   C3622931   1.002   3.185  10.370 -0.6039 -0.4072  0.0415
  186DOPC   H6X22932   0.898   3.151  10.388 -0.9153  0.0874 -0.7759
  186DOPC   H6Y22933   1.065   3.093  10.367  0.7533  0.5051 -0.0281
  186DOPC   C3722934   1.039   3.290  10.482  0.1784 -0.0979  0.4090
  186DOPC   H7X22935   1.148   3.312  10.471 -0.6159  3.6204 -1.4284
  186DOPC   H7Y22936   0.982   3.379  10.448 -1.8701 -1.3342  0.4415
  186DOPC   C3822937   1.005   3.240  10.626  0.0054  1.1601  0.3123
  186DOPC   H8X22938   0.894   3.233  10.628  0.0150 -2.0732 -2.1236
  186DOPC   H8Y22939   1.030   3.319  10.700  0.9933 -0.9085  2.3232
  186DOPC   C3922940   1.073   3.114  10.663 -0.2381  0.6469 -0.3211
  186DOPC   H9X22941   1.093   3.046  10.578 -0.1600 -0.9406  0.9220
  186DOPC  C31022942   1.136   3.087  10.778 -0.9660  0.8908  0.2681
  186DOPC  H10X22943   1.189   2.991  10.786 -0.4236  1.0067 -1.5660
  186DOPC  C31122944   1.133   3.172  10.903  0.2945  0.1314 -0.3405
  186DOPC  H11X22945   1.056   3.251  10.890  0.0699 -0.0460 -0.1076
  186DOPC  H11Y22946   1.226   3.230  10.921  1.2820 -1.2995 -0.6565
  186DOPC  C31222947   1.093   3.098  11.033 -1.0198  0.1541 -0.1494
  186DOPC  H12X22948   1.019   3.019  11.012 -0.0550 -0.8946  0.3107
  186DOPC  H12Y22949   1.037   3.169  11.098 -0.3650  0.9066 -0.3812
  186DOPC  C31322950   1.215   3.042  11.108  0.0139 -0.0482  0.2206
  186DOPC  H13X22951   1.272   2.974  11.042  2.1498  0.2554  1.6220
  186DOPC  H13Y22952   1.287   3.125  11.130  1.3813 -0.6744 -1.6480
  186DOPC  C31422953   1.196   2.962  11.232 -0.1618 -0.9034 -0.3003
  186DOPC  H14X22954   1.159   2.866  11.190  0.0690 -0.9570 -0.3828
  186DOPC  H14Y22955   1.292   2.940  11.284 -0.5382  1.4918  1.5832
  186DOPC  C31522956   1.103   3.033  11.332  1.2163  0.5364  0.6887
  186DOPC  H15X22957   1.096   2.973  11.426  0.3990 -0.1482  0.2016
  186DOPC  H15Y22958   1.005   3.040  11.281  1.4282  0.3943  0.2587
  186DOPC  C31622959   1.157   3.170  11.374  0.1201 -0.0227  0.0515
  186DOPC  H16X22960   1.256   3.143  11.417 -0.3121  0.0087  1.0908
  186DOPC  H16Y22961   1.155   3.230  11.281 -2.8980 -0.8198 -0.5009
  186DOPC  C31722962   1.072   3.240  11.479  0.2836 -0.0541 -0.8871
  186DOPC  H17X22963   0.971   3.254  11.437 -0.1257  0.0000  0.0938
  186DOPC  H17Y22964   1.068   3.170  11.565 -1.0624  1.4383  0.3184
  186DOPC  C31822965   1.122   3.378  11.515 -0.1051 -0.0303 -0.1952
  186DOPC  H18X22966   1.116   3.441  11.423  1.5218  0.3133 -0.0964
  186DOPC  H18Y22967   1.059   3.409  11.601  0.8829 -0.6501  0.7708
  186DOPC  H18Z22968   1.225   3.380  11.555  0.4290 -1.1408 -1.4481
  187DOPC     N22969   0.996   2.319   8.752 -0.7084  0.5809  0.4107
  187DOPC   C1222970   0.907   2.282   8.862  0.2289  0.5356 -0.3239
  187DOPC  H12A22971   0.805   2.274   8.830  0.1402 -1.1107  0.2585
  187DOPC  H12B22972   0.921   2.355   8.940  1.6034  0.2088 -0.2333
  187DOPC   C1322973   1.141   2.307   8.806 -0.7416 -0.0921 -0.2636
  187DOPC  H13A22974   1.156   2.370   8.892 -0.6176 -0.6754  0.1504
  187DOPC  H13B22975   1.154   2.206   8.843  0.2719 -0.1967 -0.8517
  187DOPC  H13C22976   1.215   2.320   8.728 -0.2982  1.0193  0.3295
  187DOPC   C1422977   0.970   2.451   8.696  0.1153  0.1278  0.1252
  187DOPC  H14A22978   1.055   2.487   8.640 -0.6973 -0.0580 -1.2487
  187DOPC  H14B22979   0.876   2.456   8.644  1.6799 -0.1029 -2.9193
  187DOPC  H14C22980   0.966   2.528   8.772 -0.3006  1.0692 -0.8345
  187DOPC   C1522981   0.987   2.218   8.639 -0.1946 -0.6850  0.1468
  187DOPC  H15A22982   1.069   2.237   8.572 -0.2837  0.9774  0.4694
  187DOPC  H15B22983   0.892   2.213   8.588  0.8255 -3.4737 -1.7055
  187DOPC  H15C22984   0.995   2.122   8.688 -1.1846 -0.7693  0.1623
  187DOPC   C1122985   0.922   2.143   8.923  0.6585  0.1868  0.0169
  187DOPC  H11A22986   1.029   2.125   8.950 -0.0257 -1.6702  1.7166
  187DOPC  H11B22987   0.876   2.129   9.023 -3.3990 -1.6319 -1.9130
  187DOPC     P22988   0.710   2.013   8.827 -0.2475 -0.0544 -0.2257
  187DOPC   O1322989   0.693   1.879   8.783  0.5574 -0.4343  0.5500
  187DOPC   O1422990   0.645   2.120   8.750  0.1427  0.5874 -0.0205
  187DOPC   O1222991   0.863   2.046   8.833 -0.7299 -0.0025 -0.6899
  187DOPC   O1122992   0.659   2.036   8.971  0.1598 -0.2792 -0.1270
  187DOPC    C122993   0.637   1.927   9.058  0.1334  0.0396 -0.3353
  187DOPC    HA22994   0.685   1.961   9.152  1.2017 -2.5061  0.1316
  187DOPC    HB22995   0.694   1.835   9.034  0.3286  0.1736 -0.3892
  187DOPC    C222996   0.485   1.892   9.079  0.3694  0.3708  0.1658
  187DOPC    HS22997   0.452   1.834   8.990  1.0717 -0.7016  0.5870
  187DOPC   O2122998   0.403   2.008   9.101 -0.4464 -0.7676  0.2056
  187DOPC   C2122999   0.275   1.997   9.096 -0.6949  0.1937 -0.1343
  187DOPC   O2223000   0.205   1.909   9.058 -0.1063  0.1405 -0.3905
  187DOPC   C2223001   0.208   2.113   9.159 -0.6053 -0.1288  0.1339
  187DOPC   H2R23002   0.101   2.092   9.143 -0.5437  0.0880 -0.6142
  187DOPC   H2S23003   0.236   2.210   9.112  1.5914  0.4337  2.3694
  187DOPC    C323004   0.474   1.783   9.191  0.0614 -0.1463  0.0965
  187DOPC    HX23005   0.535   1.698   9.154 -1.3749 -1.7616  1.2668
  187DOPC    HY23006   0.369   1.746   9.195  0.4129 -1.1528  0.1584
  187DOPC   O3123007   0.525   1.831   9.319 -0.6146  0.0139 -0.9294
  187DOPC   C3123008   0.445   1.829   9.426  0.6305 -0.0012 -1.1310
  187DOPC   O3223009   0.330   1.789   9.424  0.1734 -0.1213  0.0787
  187DOPC   C3223010   0.520   1.892   9.548 -0.2720  0.4174 -0.4366
  187DOPC   H2X23011   0.448   1.953   9.605  0.5469  0.8416  0.1677
  187DOPC   H2Y23012   0.547   1.804   9.610  3.1953  1.1586 -0.6691
  187DOPC   C2323013   0.232   2.117   9.315  0.3073  0.1198 -0.1988
  187DOPC   H3R23014   0.341   2.136   9.328  0.6481 -1.2298 -0.9908
  187DOPC   H3S23015   0.188   2.030   9.368  0.4141 -0.4794 -1.0839
  187DOPC   C2423016   0.160   2.241   9.368  0.4783 -0.6164 -0.3408
  187DOPC   H4R23017   0.058   2.233   9.325 -0.2128  2.5380  0.4837
  187DOPC   H4S23018   0.193   2.334   9.315 -0.3403  0.5399  1.1089
  187DOPC   C2523019   0.157   2.253   9.515  0.2325 -0.0787  0.4561
  187DOPC   H5R23020   0.138   2.160   9.571 -0.1113  0.6036  1.5086
  187DOPC   H5S23021   0.070   2.320   9.535 -0.2925 -0.9255  1.0736
  187DOPC   C2623022   0.282   2.317   9.566  0.3788  0.3994  0.1209
  187DOPC   H6R23023   0.305   2.406   9.504 -2.3735 -0.2614 -2.0115
  187DOPC   H6S23024   0.372   2.251   9.555 -0.0565  0.1564 -2.6505
  187DOPC   C2723025   0.276   2.345   9.716  0.1501 -0.3408  0.9191
  187DOPC   H7R23026   0.180   2.385   9.756 -0.9293 -2.5950  0.7299
  187DOPC   H7S23027   0.361   2.416   9.728 -0.4113  0.6241 -0.5495
  187DOPC   C2823028   0.325   2.227   9.811  0.2111  0.0780 -0.1895
  187DOPC   H8R23029   0.393   2.264   9.891  1.0964 -0.9404 -0.4416
  187DOPC   H8S23030   0.384   2.164   9.740  1.3542  0.6323  0.2423
  187DOPC   C2923031   0.207   2.148   9.871  0.6169  0.1354  0.0649
  187DOPC   H9R23032   0.159   2.074   9.806  1.4226 -1.7090  1.4959
  187DOPC  C21023033   0.159   2.166   9.993 -0.0183  1.7856 -0.2754
  187DOPC  H10R23034   0.076   2.102  10.028  1.7944 -1.3665 -1.3521
  187DOPC  C21123035   0.197   2.268  10.099  0.5951  0.2426 -0.2671
  187DOPC  H11R23036   0.098   2.315  10.118 -0.1413 -1.1482 -0.5500
  187DOPC  H11S23037   0.261   2.349  10.058 -0.9321  1.8916  0.4614
  187DOPC  C21223038   0.243   2.182  10.220 -0.2324  0.1685 -0.4534
  187DOPC  H12R23039   0.343   2.141  10.191  0.3157  1.2451 -0.1225
  187DOPC  H12S23040   0.173   2.096  10.229 -0.3184  0.2498 -0.3496
  187DOPC  C21323041   0.243   2.268  10.343 -0.5947 -0.0129  0.2233
  187DOPC  H13R23042   0.144   2.318  10.343 -0.5783  0.0884 -1.3711
  187DOPC  H13S23043   0.311   2.353  10.320 -2.3510  1.0296 -1.4666
  187DOPC  C21423044   0.276   2.191  10.466  0.1020  0.2480  0.0887
  187DOPC  H14R23045   0.378   2.151  10.452  1.1595  3.0776 -1.0835
  187DOPC  H14S23046   0.222   2.094  10.464  0.3880  0.0790  0.3882
  187DOPC  C21523047   0.249   2.260  10.602 -0.0891  0.3947 -0.5215
  187DOPC  H15R23048   0.158   2.323  10.604 -2.2235 -2.5299  0.5102
  187DOPC  H15S23049   0.334   2.329  10.622  0.3430 -0.1765 -0.3591
  187DOPC  C21623050   0.244   2.150  10.702  0.3713 -0.1646 -0.0533
  187DOPC  H16R23051   0.330   2.081  10.690 -0.3234 -0.9852 -0.3890
  187DOPC  H16S23052   0.161   2.077  10.697  1.1462 -1.1719  1.1104
  187DOPC  C21723053   0.243   2.195  10.847  0.4112  0.0938  0.0929
  187DOPC  H17R23054   0.141   2.225  10.880  1.0540  0.8852  1.4668
  187DOPC  H17S23055   0.303   2.287  10.859 -0.4111  0.5769  0.6178
  187DOPC  C21823056   0.300   2.093  10.952 -0.2834 -0.2121 -0.0770
  187DOPC  H18R23057   0.241   1.999  10.955  0.8431 -0.9472 -0.2860
  187DOPC  H18S23058   0.309   2.130  11.056 -0.0969 -1.8827  0.5308
  187DOPC  H18T23059   0.407   2.073  10.930 -0.6455 -1.2175 -1.0272
  187DOPC   C3323060   0.649   1.961   9.519  0.2772 -0.1593  0.5234
  187DOPC   H3X23061   0.632   2.035   9.438 -1.4682 -0.3906  0.6498
  187DOPC   H3Y23062   0.723   1.888   9.477 -0.1778 -0.2809 -0.0842
  187DOPC   C3423063   0.708   2.037   9.645  0.5050 -0.3892 -0.2491
  187DOPC   H4X23064   0.635   2.120   9.658  0.7926 -0.0599 -0.7236
  187DOPC   H4Y23065   0.804   2.084   9.617  0.9344 -1.5019 -0.6673
  187DOPC   C3523066   0.729   1.952   9.767 -0.0918  0.7027 -0.6662
  187DOPC   H5X23067   0.772   1.855   9.735  0.4451 -1.5936  5.6796
  187DOPC   H5Y23068   0.631   1.922   9.809  0.4706 -0.4142 -0.0969
  187DOPC   C3623069   0.809   2.029   9.876  0.0355 -0.1700 -0.1878
  187DOPC   H6X23070   0.909   2.050   9.832  0.4394 -1.2291  0.1845
  187DOPC   H6Y23071   0.767   2.131   9.884 -2.3101 -0.8930 -2.1911
  187DOPC   C3723072   0.823   1.942  10.006  0.3397 -0.2117 -0.7190
  187DOPC   H7X23073   0.874   1.845   9.987 -0.5738 -0.8846  0.1371
  187DOPC   H7Y23074   0.892   1.998  10.073  1.6978 -1.4013 -1.0656
  187DOPC   C3823075   0.697   1.917  10.093  0.8109 -0.4129 -0.1765
  187DOPC   H8X23076   0.626   1.875  10.018  1.4072  0.0749 -1.0270
  187DOPC   H8Y23077   0.646   2.010  10.126 -0.8743 -1.9753  1.8999
  187DOPC   C3923078   0.711   1.814  10.208 -0.2888  0.0207 -0.2698
  187DOPC   H9X23079   0.738   1.712  10.178  0.1601 -1.2888  3.8777
  187DOPC  C31023080   0.677   1.831  10.338 -0.1102 -0.2877 -1.0499
  187DOPC  H10X23081   0.704   1.748  10.405 -0.1660  0.2070 -0.4049
  187DOPC  C31123082   0.637   1.963  10.394 -0.3593  0.6679  0.8061
  187DOPC  H11X23083   0.526   1.963  10.402 -0.5041  0.6251 -0.8293
  187DOPC  H11Y23084   0.671   2.043  10.325  0.1161 -0.1183  0.1015
  187DOPC  C31223085   0.700   1.995  10.529 -1.2622 -0.5367 -0.1888
  187DOPC  H12X23086   0.676   2.101  10.550 -0.3881 -0.1010 -1.2732
  187DOPC  H12Y23087   0.810   1.979  10.518 -1.4206 -1.7214 -0.2434
  187DOPC  C31323088   0.650   1.901  10.639 -0.5419  0.4030  0.5258
  187DOPC  H13X23089   0.540   1.888  10.626  0.0571 -3.0081 -2.9483
  187DOPC  H13Y23090   0.699   1.804  10.618 -1.5423 -0.1942  0.8926
  187DOPC  C31423091   0.690   1.935  10.783  0.0818  0.3155  0.3396
  187DOPC  H14X23092   0.801   1.926  10.790 -0.0003 -0.3624  0.8588
  187DOPC  H14Y23093   0.674   2.043  10.804  1.5975  0.3025  1.7401
  187DOPC  C31523094   0.612   1.862  10.891 -0.6198  0.2141  0.0228
  187DOPC  H15X23095   0.626   1.753  10.875 -0.6175 -0.0907  1.9120
  187DOPC  H15Y23096   0.502   1.872  10.876 -0.6492  1.8711  1.1280
  187DOPC  C31623097   0.648   1.903  11.035  0.4607  0.3806 -0.0756
  187DOPC  H16X23098   0.753   1.871  11.046  0.0124 -1.1414 -0.0811
  187DOPC  H16Y23099   0.643   2.014  11.043 -2.5379  0.6683 -3.2155
  187DOPC  C31723100   0.587   1.816  11.152 -0.2366 -0.3816 -0.1835
  187DOPC  H17X23101   0.479   1.843  11.142  0.1050  0.7082 -1.0776
  187DOPC  H17Y23102   0.609   1.712  11.121  2.4425  0.0798 -0.0608
  187DOPC  C31823103   0.638   1.845  11.291  0.4757 -0.1984 -0.8751
  187DOPC  H18X23104   0.578   1.914  11.354 -1.5719 -1.0264 -1.8092
  187DOPC  H18Y23105   0.636   1.745  11.341 -0.0479 -0.9263 -2.2822
  187DOPC  H18Z23106   0.745   1.874  11.289  0.2768  0.8702  1.5623
  188DOPC     N23107   3.669   1.162   8.526  0.5622  0.3057 -0.0139
  188DOPC   C1223108   3.625   1.187   8.671 -0.2668 -0.3997 -0.1287
  188DOPC  H12A23109   3.558   1.271   8.676 -2.0527 -1.4505 -3.4138
  188DOPC  H12B23110   3.714   1.204   8.730 -0.6468  0.1026  0.3087
  188DOPC   C1323111   3.751   1.033   8.516  0.9982 -0.5885 -0.0735
  188DOPC  H13A23112   3.776   1.015   8.412 -0.4572  0.2447 -0.6086
  188DOPC  H13B23113   3.838   1.042   8.578  0.6110 -0.2429  0.4267
  188DOPC  H13C23114   3.693   0.949   8.551  2.4388 -0.8204  1.8669
  188DOPC   C1423115   3.754   1.267   8.471 -0.6506  0.3579 -0.1991
  188DOPC  H14A23116   3.855   1.261   8.507  0.1907  2.9085 -1.7991
  188DOPC  H14B23117   3.758   1.254   8.363  0.1898 -2.0713  0.0705
  188DOPC  H14C23118   3.716   1.367   8.487 -0.3338  0.2710  1.1599
  188DOPC   C1523119   3.549   1.162   8.424 -0.4894 -0.2168 -0.0817
  188DOPC  H15A23120   3.484   1.248   8.434  0.0817  0.0487  1.5155
  188DOPC  H15B23121   3.495   1.069   8.431 -2.4789  0.8344 -0.4504
  188DOPC  H15C23122   3.593   1.165   8.325 -0.0148  1.4503  0.1543
  188DOPC   C1123123   3.538   1.082   8.742  0.2443  0.2803 -0.5455
  188DOPC  H11A23124   3.587   0.983   8.730  0.8803  0.6480 -1.0035
  188DOPC  H11B23125   3.541   1.095   8.853  0.5314 -1.0545 -0.3702
  188DOPC     P23126   3.304   1.165   8.754 -0.0260 -0.3419  0.0733
  188DOPC   O1323127   3.176   1.130   8.686 -0.4868 -0.0763 -0.1630
  188DOPC   O1423128   3.347   1.307   8.751  0.1739  0.0134 -0.7567
  188DOPC   O1223129   3.414   1.072   8.685  0.6102  0.0406 -0.3432
  188DOPC   O1123130   3.306   1.113   8.905  0.0217  0.1616 -0.2839
  188DOPC    C123131   3.197   1.029   8.949 -0.7527  0.0263 -0.5312
  188DOPC    HA23132   3.167   0.947   8.880  1.4343 -0.2643 -1.2031
  188DOPC    HB23133   3.108   1.093   8.966 -0.1770  0.1160  2.7319
  188DOPC    C223134   3.232   0.957   9.078 -0.7816 -0.4005  0.3461
  188DOPC    HS23135   3.140   0.904   9.111 -0.7464 -0.9318 -0.3844
  188DOPC   O2123136   3.255   1.053   9.184 -0.0626 -0.2323 -0.0566
  188DOPC   C2123137   3.161   1.123   9.228  0.6026 -0.0634 -0.2903
  188DOPC   O2223138   3.039   1.102   9.212 -0.3684  0.0269 -0.0594
  188DOPC   C2223139   3.216   1.231   9.314  0.3848 -0.1515 -0.4305
  188DOPC   H2R23140   3.316   1.266   9.280  1.5968 -0.2928  2.5847
  188DOPC   H2S23141   3.234   1.183   9.413  1.1506 -1.4782 -1.1870
  188DOPC    C323142   3.357   0.862   9.071  0.1571 -0.1594 -0.3597
  188DOPC    HX23143   3.445   0.930   9.065 -0.0176  0.3521  1.8084
  188DOPC    HY23144   3.362   0.791   8.986 -0.7535 -0.6303 -0.0359
  188DOPC   O3123145   3.382   0.790   9.197  0.1075 -0.2753 -0.3794
  188DOPC   C3123146   3.312   0.685   9.215  0.5758 -0.3478  0.0606
  188DOPC   O3223147   3.214   0.653   9.144 -0.1663 -0.2604 -0.5398
  188DOPC   C3223148   3.367   0.595   9.323  0.4565  0.3469 -0.5728
  188DOPC   H2X23149   3.414   0.507   9.273 -0.4102  0.6963 -2.0694
  188DOPC   H2Y23150   3.442   0.644   9.388 -1.6425  1.4404  1.1481
  188DOPC   C2323151   3.114   1.350   9.315 -0.4897  0.1570 -0.7117
  188DOPC   H3R23152   3.016   1.306   9.343 -0.5913  0.4749 -0.5624
  188DOPC   H3S23153   3.096   1.394   9.214 -1.4642 -1.1427 -1.1343
  188DOPC   C2423154   3.149   1.444   9.426  0.4876  0.3840 -0.2481
  188DOPC   H4R23155   3.095   1.537   9.397 -1.8711 -0.6171  0.6742
  188DOPC   H4S23156   3.256   1.468   9.441  0.0812  2.7176 -0.7735
  188DOPC   C2523157   3.108   1.381   9.564 -0.0894  0.1839 -0.2576
  188DOPC   H5R23158   3.117   1.271   9.555 -0.8125  0.1376 -0.5080
  188DOPC   H5S23159   3.003   1.411   9.586  0.6521  2.5719  0.3683
  188DOPC   C2623160   3.194   1.431   9.682 -0.6782  0.6344  0.2660
  188DOPC   H6R23161   3.236   1.532   9.665  0.0576  0.0063 -2.0908
  188DOPC   H6S23162   3.284   1.366   9.687 -2.8270 -2.7489 -1.0665
  188DOPC   C2723163   3.139   1.409   9.825  0.1309  0.4898  0.7901
  188DOPC   H7R23164   3.128   1.300   9.839  0.5088  0.4918  1.1051
  188DOPC   H7S23165   3.035   1.450   9.825 -0.3145 -0.4185 -2.0607
  188DOPC   C2823166   3.234   1.456   9.940  0.9375 -0.1394  0.0878
  188DOPC   H8R23167   3.270   1.553   9.899 -0.5355 -0.2236 -1.5160
  188DOPC   H8S23168   3.320   1.386   9.930  1.1948  0.5299 -4.6280
  188DOPC   C2923169   3.166   1.484  10.074  0.6379  0.3586  0.0428
  188DOPC   H9R23170   3.128   1.587  10.085  2.5933  1.1659 -0.3777
  188DOPC  C21023171   3.170   1.396  10.176 -0.8129 -0.4938 -0.2667
  188DOPC  H10R23172   3.138   1.438  10.272 -1.8967  0.9165 -1.1933
  188DOPC  C21123173   3.221   1.255  10.173 -0.2809 -0.3860  0.0061
  188DOPC  H11R23174   3.307   1.240  10.104 -0.7365  0.7563 -0.8473
  188DOPC  H11S23175   3.135   1.194  10.138 -2.2133  1.5031  1.1962
  188DOPC  C21223176   3.266   1.206  10.312  0.0857 -0.3737 -0.2214
  188DOPC  H12R23177   3.318   1.109  10.294 -1.3848 -1.2770  0.1460
  188DOPC  H12S23178   3.175   1.202  10.376  0.2937  1.1343  0.1960
  188DOPC  C21323179   3.378   1.288  10.374 -0.3892 -0.7962 -0.8075
  188DOPC  H13R23180   3.370   1.397  10.351  1.2443 -0.5758 -0.4601
  188DOPC  H13S23181   3.471   1.257  10.322 -0.6743 -0.4166 -1.5523
  188DOPC  C21423182   3.390   1.258  10.529 -0.2815  0.8458 -0.0080
  188DOPC  H14R23183   3.495   1.288  10.554  0.2579 -0.8503 -0.1553
  188DOPC  H14S23184   3.399   1.149  10.548  1.8327  1.2286  1.5978
  188DOPC  C21523185   3.271   1.315  10.611  0.1719  0.0118  0.0823
  188DOPC  H15R23186   3.169   1.276  10.592  0.4000 -0.7912  0.4462
  188DOPC  H15S23187   3.270   1.423  10.589 -2.9146 -0.0246 -0.3635
  188DOPC  C21623188   3.297   1.285  10.760  0.0672  0.3300 -0.7807
  188DOPC  H16R23189   3.366   1.358  10.807  0.2559 -0.6839  0.5969
  188DOPC  H16S23190   3.335   1.182  10.778 -2.8853 -0.7301 -0.1263
  188DOPC  C21723191   3.169   1.293  10.839 -0.4127  1.0210 -0.1342
  188DOPC  H17R23192   3.086   1.232  10.799 -0.2977  1.0242 -0.3785
  188DOPC  H17S23193   3.126   1.396  10.838  2.9335  2.6428  2.1542
  188DOPC  C21823194   3.190   1.252  10.987 -0.3074 -0.6844 -0.0049
  188DOPC  H18R23195   3.159   1.146  10.982 -2.3537 -0.0976 -1.1026
  188DOPC  H18S23196   3.122   1.301  11.060  2.4873 -0.0954  2.3846
  188DOPC  H18T23197   3.297   1.262  11.016 -0.2207 -1.2050 -0.1409
  188DOPC   C3323198   3.262   0.536   9.411 -0.4032  0.8505 -0.3575
  188DOPC   H3X23199   3.313   0.471   9.484 -0.2206 -0.2880 -1.4661
  188DOPC   H3Y23200   3.190   0.473   9.356 -0.6488  2.4797 -2.0196
  188DOPC   C3423201   3.177   0.637   9.493 -0.1422 -0.4066  0.1153
  188DOPC   H4X23202   3.091   0.581   9.537  0.7969 -1.3424  0.8025
  188DOPC   H4Y23203   3.130   0.708   9.421  0.1890 -1.1755 -0.8927
  188DOPC   C3523204   3.242   0.718   9.616 -0.0912 -0.4535 -0.2183
  188DOPC   H5X23205   3.318   0.783   9.567 -0.9118  1.1870  0.5696
  188DOPC   H5Y23206   3.296   0.648   9.682 -0.6967  0.7886  1.6695
  188DOPC   C3623207   3.139   0.790   9.697 -0.5950 -0.1849 -0.1906
  188DOPC   H6X23208   3.076   0.848   9.626 -0.6182 -0.5288 -0.4594
  188DOPC   H6Y23209   3.072   0.712   9.740  1.5271 -1.9616  0.0625
  188DOPC   C3723210   3.183   0.889   9.813  0.2801  0.5537  0.2998
  188DOPC   H7X23211   3.291   0.872   9.834  0.0601 -0.0902  0.9665
  188DOPC   H7Y23212   3.174   0.985   9.757 -1.3976 -0.6618 -1.6479
  188DOPC   C3823213   3.096   0.876   9.942  0.3300  0.1848  0.7446
  188DOPC   H8X23214   2.994   0.886   9.899  0.2254 -0.4354  0.8375
  188DOPC   H8Y23215   3.131   0.965   9.999  1.9738 -0.0058  0.0909
  188DOPC   C3923216   3.127   0.756  10.022 -0.2587 -0.1721 -0.1955
  188DOPC   H9X23217   3.139   0.665   9.962  0.7230  0.1665 -0.5311
  188DOPC  C31023218   3.133   0.750  10.155  0.0318 -0.5848  0.0108
  188DOPC  H10X23219   3.148   0.648  10.196  0.8442 -0.3359  0.3512
  188DOPC  C31123220   3.121   0.852  10.263  0.4445  0.2903  0.5230
  188DOPC  H11X23221   3.035   0.821  10.325  0.6376 -1.9682 -0.2647
  188DOPC  H11Y23222   3.104   0.956  10.227  1.5955  0.4645  0.4279
  188DOPC  C31223223   3.241   0.849  10.354 -0.2963  0.0431  0.1365
  188DOPC  H12X23224   3.329   0.900  10.308  0.3780  0.9063  2.2742
  188DOPC  H12Y23225   3.273   0.747  10.383  0.2888  0.3976  0.7616
  188DOPC  C31323226   3.216   0.915  10.487 -0.1825 -0.3052  0.8892
  188DOPC  H13X23227   3.316   0.945  10.524  0.6596 -1.0311 -0.7386
  188DOPC  H13Y23228   3.167   1.010  10.460 -0.3623 -0.9999 -1.4052
  188DOPC  C31423229   3.129   0.837  10.589  0.6733  0.1994 -0.0077
  188DOPC  H14X23230   3.030   0.804  10.552  0.2096  1.0753  0.4097
  188DOPC  H14Y23231   3.179   0.742  10.617  1.4002  0.6616  0.2672
  188DOPC  C31523232   3.111   0.921  10.716 -0.2315  0.7463 -0.4873
  188DOPC  H15X23233   3.044   1.004  10.686  0.3352  1.6699  0.6825
  188DOPC  H15Y23234   3.209   0.966  10.743  0.8517 -1.3413 -0.7303
  188DOPC  C31623235   3.057   0.851  10.845  0.7006  0.1462 -0.6846
  188DOPC  H16X23236   3.028   0.914  10.931  1.7181  0.2689 -0.4194
  188DOPC  H16Y23237   2.963   0.798  10.820 -0.7851  0.7389  3.0831
  188DOPC  C31723238   3.156   0.743  10.909  0.4891  0.2936 -0.0125
  188DOPC  H17X23239   3.094   0.678  10.974 -1.8151  1.0063 -1.3972
  188DOPC  H17Y23240   3.181   0.678  10.823  0.2127  0.7807 -0.4660
  188DOPC  C31823241   3.276   0.803  10.985  0.0843  0.6385  0.1669
  188DOPC  H18X23242   3.241   0.864  11.072  0.8963  0.1365  0.8623
  188DOPC  H18Y23243   3.346   0.726  11.024 -0.6381 -0.3751 -0.5004
  188DOPC  H18Z23244   3.335   0.861  10.911  1.7577 -1.2287 -0.0541
  189DOPC     N23245   4.338   1.446   8.914  0.3826  0.2061  0.0503
  189DOPC   C1223246   4.447   1.549   8.912 -0.1286  0.0422 -0.0401
  189DOPC  H12A23247   4.534   1.506   8.961 -1.2548 -1.1466  0.9796
  189DOPC  H12B23248   4.426   1.630   8.981  2.1894  1.0913 -0.4560
  189DOPC   C1323249   4.297   1.399   9.056 -0.2254  0.6951  0.8648
  189DOPC  H13A23250   4.384   1.358   9.106 -1.1479 -1.4658  0.7643
  189DOPC  H13B23251   4.278   1.494   9.105 -0.2100  0.3498  1.5483
  189DOPC  H13C23252   4.213   1.332   9.067 -1.1263  1.8280  1.0809
  189DOPC   C1423253   4.380   1.321   8.845  0.7127 -0.1410 -0.0571
  189DOPC  H14A23254   4.458   1.266   8.894 -1.4090 -3.5303 -0.2157
  189DOPC  H14B23255   4.293   1.258   8.839  0.2538  0.5731 -1.3636
  189DOPC  H14C23256   4.408   1.345   8.743  0.7399 -1.5049 -0.3828
  189DOPC   C1523257   4.224   1.495   8.850  0.0069 -0.4475  0.6321
  189DOPC  H15A23258   4.249   1.528   8.750  0.5369 -0.5210  0.7369
  189DOPC  H15B23259   4.195   1.582   8.907  0.3521  0.3562 -0.3736
  189DOPC  H15C23260   4.135   1.435   8.845 -1.5094  1.3748  3.1391
  189DOPC   C1123261   4.497   1.596   8.773  0.2051  0.0655  0.0520
  189DOPC  H11A23262   4.590   1.657   8.778 -0.0653  0.3754  2.4001
  189DOPC  H11B23263   4.523   1.506   8.712  0.2075  0.4634 -0.5397
  189DOPC     P23264   4.367   1.818   8.749 -0.5183  0.2876 -0.0826
  189DOPC   O1323265   4.226   1.845   8.703 -0.9502 -0.3205 -0.2543
  189DOPC   O1423266   4.469   1.901   8.687 -0.2822  0.3443  0.9790
  189DOPC   O1223267   4.398   1.669   8.706  0.3669 -0.1632 -0.4726
  189DOPC   O1123268   4.377   1.821   8.903  0.5187 -0.6570 -0.2619
  189DOPC    C123269   4.393   1.948   8.972  0.3153  0.1409  0.0217
  189DOPC    HA23270   4.319   2.026   8.946  0.1154  0.3637  1.2016
  189DOPC    HB23271   4.496   1.987   8.956  0.7034 -0.5663  0.7166
  189DOPC    C223272   4.381   1.929   9.121 -0.3263 -0.5157  0.2312
  189DOPC    HS23273   4.468   1.866   9.150 -0.0273 -0.9108 -1.4339
  189DOPC   O2123274   4.255   1.880   9.146  0.0248 -0.3145  0.1741
  189DOPC   C2123275   4.239   1.750   9.171 -0.0491 -0.1600  0.1102
  189DOPC   O2223276   4.330   1.668   9.172  0.1383 -0.6312  0.1438
  189DOPC   C2223277   4.099   1.707   9.197 -0.2343 -0.4645  0.2623
  189DOPC   H2R23278   4.070   1.647   9.108  2.7214  0.7894 -1.7273
  189DOPC   H2S23279   4.028   1.791   9.210 -1.3822 -1.2976 -0.3818
  189DOPC    C323280   4.387   2.060   9.189 -0.3462 -0.8341  0.1394
  189DOPC    HX23281   4.310   2.126   9.144 -0.0067  0.3931  1.2975
  189DOPC    HY23282   4.477   2.119   9.159 -0.2256 -1.3704 -0.5897
  189DOPC   O3123283   4.378   2.042   9.330 -0.3862  0.5409 -0.6339
  189DOPC   C3123284   4.486   2.057   9.402 -0.4190 -0.1298  0.7169
  189DOPC   O3223285   4.594   2.089   9.352 -0.5512  0.6732  0.2120
  189DOPC   C3223286   4.447   2.042   9.545 -0.2286 -0.5679 -0.1008
  189DOPC   H2X23287   4.383   2.130   9.566  0.6902  0.6055 -1.9750
  189DOPC   H2Y23288   4.387   1.949   9.553  1.2595 -1.6238 -0.6688
  189DOPC   C2323289   4.095   1.628   9.327 -0.4541  0.2019 -0.0709
  189DOPC   H3R23290   4.180   1.555   9.337 -1.8003 -1.4145  0.0557
  189DOPC   H3S23291   4.013   1.554   9.322 -1.5664  1.2811  1.3938
  189DOPC   C2423292   4.075   1.698   9.461 -0.1073 -0.5324 -0.2008
  189DOPC   H4R23293   3.973   1.741   9.461  0.6185  1.3894  1.4186
  189DOPC   H4S23294   4.147   1.783   9.463 -0.5925 -0.1153 -0.4187
  189DOPC   C2523295   4.095   1.615   9.588  0.0098 -0.3893  0.4685
  189DOPC   H5R23296   4.201   1.581   9.592  0.3880  0.8518  3.2388
  189DOPC   H5S23297   4.029   1.525   9.582 -0.4000 -0.2538  2.3723
  189DOPC   C2623298   4.054   1.684   9.720 -0.2333  0.1883 -0.2735
  189DOPC   H6R23299   3.949   1.719   9.709 -0.4317  0.6954  2.5374
  189DOPC   H6S23300   4.123   1.771   9.733  0.5205 -0.5056  0.4694
  189DOPC   C2723301   4.067   1.586   9.838  0.3774 -0.7113 -0.1159
  189DOPC   H7R23302   4.168   1.539   9.838  1.0676  0.7377 -0.0905
  189DOPC   H7S23303   4.003   1.498   9.813  2.8433 -2.0550 -2.2655
  189DOPC   C2823304   4.041   1.658   9.969  0.1108 -0.5791  0.1411
  189DOPC   H8R23305   4.041   1.579  10.047  0.9239 -1.1420 -0.4223
  189DOPC   H8S23306   3.944   1.711   9.982  1.3748  2.0637 -0.3969
  189DOPC   C2923307   4.158   1.749  10.006 -0.7280 -0.0611  0.5016
  189DOPC   H9R23308   4.163   1.828   9.930  1.5468  1.3320  1.9666
  189DOPC  C21023309   4.239   1.762  10.107 -0.4825 -0.4740 -0.2880
  189DOPC  H10R23310   4.310   1.846  10.105 -1.3226  0.2440 -1.4964
  189DOPC  C21123311   4.247   1.671  10.229 -0.2384  0.2827  0.2726
  189DOPC  H11R23312   4.339   1.609  10.231 -0.5171 -0.1657 -0.5776
  189DOPC  H11S23313   4.161   1.601  10.237 -1.3954  1.7211  0.7124
  189DOPC  C21223314   4.266   1.741  10.364 -0.1108  0.3103 -0.2760
  189DOPC  H12R23315   4.193   1.825  10.370  0.2361  0.5499  0.9836
  189DOPC  H12S23316   4.370   1.772  10.385  0.6067 -0.9556 -1.8309
  189DOPC  C21323317   4.233   1.651  10.483 -0.4815  0.5157  0.0935
  189DOPC  H13R23318   4.325   1.598  10.519  0.7306  3.3958  1.5340
  189DOPC  H13S23319   4.169   1.565  10.452  1.1344 -0.5475 -0.4468
  189DOPC  C21423320   4.183   1.731  10.604 -0.3991  0.3567 -0.1037
  189DOPC  H14R23321   4.091   1.786  10.574 -1.2950  0.2306  2.2038
  189DOPC  H14S23322   4.271   1.792  10.636 -0.3502 -0.4957  1.4741
  189DOPC  C21523323   4.145   1.626  10.718 -0.3810  0.0643  0.2726
  189DOPC  H15R23324   4.232   1.564  10.750 -0.2865 -0.6452 -1.2475
  189DOPC  H15S23325   4.068   1.550  10.690  1.1457 -2.0660  1.5066
  189DOPC  C21623326   4.107   1.704  10.845 -0.6339  0.2578 -1.0385
  189DOPC  H16R23327   4.013   1.762  10.833 -0.3718  0.7150 -0.9480
  189DOPC  H16S23328   4.187   1.777  10.870 -0.9417  0.3336 -0.2368
  189DOPC  C21723329   4.080   1.618  10.974 -0.4095  0.3157 -0.0557
  189DOPC  H17R23330   4.164   1.544  10.978 -0.7275 -0.1142 -0.9708
  189DOPC  H17S23331   3.983   1.568  10.957 -1.1226  1.1897  1.3229
  189DOPC  C21823332   4.075   1.695  11.106  1.0495 -0.4143 -0.5412
  189DOPC  H18R23333   4.005   1.781  11.108  0.0490 -1.2141 -0.3211
  189DOPC  H18S23334   4.172   1.742  11.129 -0.4475  2.9073 -0.4779
  189DOPC  H18T23335   4.055   1.620  11.186 -0.2520  0.1120 -0.3431
  189DOPC   C3323336   4.564   2.050   9.646  0.0561 -0.0308 -0.5569
  189DOPC   H3X23337   4.525   2.069   9.749 -1.4962 -1.3775 -0.8615
  189DOPC   H3Y23338   4.624   2.142   9.626 -2.0801  1.8483  1.0653
  189DOPC   C3423339   4.652   1.926   9.634 -0.4860  0.5220  0.0030
  189DOPC   H4X23340   4.731   1.923   9.557 -0.1772  1.4757  0.2721
  189DOPC   H4Y23341   4.594   1.833   9.613  2.4033 -1.2215 -0.7424
  189DOPC   C3523342   4.732   1.905   9.767  0.3115 -0.2718  0.1005
  189DOPC   H5X23343   4.776   1.996   9.813  0.5110  0.2751 -1.1414
  189DOPC   H5Y23344   4.822   1.840   9.763 -1.1263 -2.3303 -0.1651
  189DOPC   C3623345   4.638   1.829   9.867 -0.0861 -0.3022  0.3298
  189DOPC   H6X23346   4.555   1.902   9.882 -0.4506 -0.4781 -0.7594
  189DOPC   H6Y23347   4.603   1.735   9.819  0.5916  0.7534 -2.4377
  189DOPC   C3723348   4.702   1.804  10.008 -0.6043  0.2857  0.0198
  189DOPC   H7X23349   4.647   1.724  10.062 -0.0137  0.3656  0.7581
  189DOPC   H7Y23350   4.793   1.746   9.983 -0.7188  0.0606  0.1212
  189DOPC   C3823351   4.751   1.919  10.096  0.2432  0.4285  0.5052
  189DOPC   H8X23352   4.811   2.000  10.048  1.5062  1.5032  3.6467
  189DOPC   H8Y23353   4.818   1.862  10.164  0.4295 -2.9618 -2.2406
  189DOPC   C3923354   4.635   1.994  10.152 -0.4186  0.4422  0.7078
  189DOPC   H9X23355   4.569   2.029  10.072  1.7143 -2.8190 -2.8384
  189DOPC  C31023356   4.588   2.003  10.276 -0.2732  0.1672 -0.0312
  189DOPC  H10X23357   4.511   2.079  10.295 -0.9495 -0.3384 -0.6890
  189DOPC  C31123358   4.651   1.952  10.401  0.5762  0.0196 -0.1276
  189DOPC  H11X23359   4.686   1.850  10.374 -3.4672 -1.6696  0.3777
  189DOPC  H11Y23360   4.576   1.943  10.482  1.1459 -1.4944  0.2689
  189DOPC  C31223361   4.776   2.032  10.452 -0.1374  0.4373 -0.0754
  189DOPC  H12X23362   4.750   2.136  10.479 -0.8026  0.6460 -1.4196
  189DOPC  H12Y23363   4.837   2.031  10.359 -0.4745  1.8079 -0.3296
  189DOPC  C31323364   4.861   1.951  10.555  0.3284 -0.4623 -0.6835
  189DOPC  H13X23365   4.814   1.962  10.655  2.3612 -1.5643  0.4702
  189DOPC  H13Y23366   4.868   1.842  10.533  0.1573 -0.5131 -0.4823
  189DOPC  C31423367   4.996   2.022  10.558 -0.0881 -0.3263 -0.7132
  189DOPC  H14X23368   5.050   2.010  10.462  0.6202  1.1473 -0.5136
  189DOPC  H14Y23369   4.974   2.129  10.574  2.4940  0.5015 -2.2191
  189DOPC  C31523370   5.083   1.972  10.670 -0.8782 -0.2110  0.6918
  189DOPC  H15X23371   5.165   2.047  10.671 -1.1567  0.0985  0.9890
  189DOPC  H15Y23372   5.129   1.875  10.643 -2.6848 -0.8317 -0.3435
  189DOPC  C31623373   5.021   1.962  10.809  0.3219 -0.7995  0.1786
  189DOPC  H16X23374   4.982   2.058  10.850 -2.7555 -1.5009 -0.8785
  189DOPC  H16Y23375   4.938   1.890  10.801  1.1428 -1.6677 -0.9045
  189DOPC  C31723376   5.132   1.916  10.910 -0.0819  0.1278  0.2708
  189DOPC  H17X23377   5.185   1.820  10.894 -2.0617 -1.1810  1.1151
  189DOPC  H17Y23378   5.207   1.997  10.922 -0.7976  0.9206 -0.4736
  189DOPC  C31823379   5.076   1.907  11.056  0.0469 -0.1583 -0.4382
  189DOPC  H18X23380   5.012   1.817  11.074  1.0192 -0.4949  1.6247
  189DOPC  H18Y23381   5.161   1.912  11.127  1.5769 -1.9835 -2.0537
  189DOPC  H18Z23382   5.011   1.993  11.084  1.7213  0.9279  0.2479
  190DOPC     N23383   1.943   0.476   8.139 -0.6614 -0.2602  0.5144
  190DOPC   C1223384   1.898   0.559   8.256  0.3135 -0.3748  0.2152
  190DOPC  H12A23385   1.814   0.507   8.301  0.9724 -0.2100  1.7252
  190DOPC  H12B23386   1.864   0.656   8.225  1.8969  0.2261  0.2460
  190DOPC   C1323387   1.963   0.330   8.178  0.3586  0.0733  0.2757
  190DOPC  H13A23388   2.013   0.326   8.273  2.1209  0.9717 -0.5573
  190DOPC  H13B23389   1.869   0.278   8.192 -0.6556  1.1247 -1.9895
  190DOPC  H13C23390   2.025   0.281   8.104 -0.3671  0.6116 -0.7234
  190DOPC   C1423391   2.075   0.513   8.082 -0.2531 -0.1746 -0.3878
  190DOPC  H14A23392   2.083   0.620   8.073  0.8884 -0.2084  0.1300
  190DOPC  H14B23393   2.153   0.481   8.149  1.9735  0.2741 -2.6316
  190DOPC  H14C23394   2.095   0.475   7.983  0.5536  1.8744 -1.0522
  190DOPC   C1523395   1.845   0.483   8.028  0.2883  0.3435  0.3808
  190DOPC  H15A23396   1.748   0.452   8.061  0.3546  0.8388  1.0658
  190DOPC  H15B23397   1.881   0.414   7.953  0.8389 -0.8839  1.7046
  190DOPC  H15C23398   1.834   0.579   7.980 -0.2023 -0.2517 -0.7153
  190DOPC   C1123399   1.992   0.584   8.378 -0.2294  0.1476  0.2146
  190DOPC  H11A23400   2.088   0.625   8.339 -0.6058  1.3855  0.5308
  190DOPC  H11B23401   1.953   0.669   8.439 -1.1328 -0.5069  0.5552
  190DOPC     P23402   1.910   0.438   8.578  0.5100 -0.5422  0.1417
  190DOPC   O1323403   1.895   0.292   8.581  0.2064 -0.1106 -0.2633
  190DOPC   O1423404   1.792   0.523   8.560  0.5134  0.5525  0.3286
  190DOPC   O1223405   2.013   0.466   8.458  0.7609  0.2726  0.1945
  190DOPC   O1123406   1.987   0.491   8.705  0.0393  0.2964 -0.3685
  190DOPC    C123407   2.080   0.603   8.713  0.6408  0.3653 -0.3272
  190DOPC    HA23408   2.024   0.699   8.711  0.4133  0.3340  2.0442
  190DOPC    HB23409   2.150   0.603   8.626 -0.4033 -0.2500 -1.1860
  190DOPC    C223410   2.182   0.599   8.830  0.2920  0.3922  0.0144
  190DOPC    HS23411   2.262   0.526   8.808 -1.4404 -2.4850  2.4485
  190DOPC   O2123412   2.116   0.555   8.950 -0.2391 -0.0172 -0.4592
  190DOPC   C2123413   2.098   0.418   8.973  0.2373  0.4009  0.0351
  190DOPC   O2223414   2.135   0.329   8.899 -0.0943 -0.4255 -0.3571
  190DOPC   C2223415   2.016   0.414   9.105 -0.1860  0.1667 -0.1459
  190DOPC   H2R23416   1.909   0.412   9.075 -0.0330  1.4123 -0.8251
  190DOPC   H2S23417   2.046   0.510   9.151 -0.1672 -0.1225  0.4588
  190DOPC    C323418   2.262   0.734   8.847 -0.7025 -0.0447 -0.6562
  190DOPC    HX23419   2.200   0.824   8.829 -2.4984 -1.2105 -0.6416
  190DOPC    HY23420   2.351   0.736   8.780 -0.1502 -2.2851 -0.0816
  190DOPC   O3123421   2.317   0.735   8.981  0.0117  0.4163  0.5069
  190DOPC   C3123422   2.251   0.810   9.074 -0.2176  0.0379  0.3406
  190DOPC   O3223423   2.132   0.832   9.067  0.2089  0.1930  0.0004
  190DOPC   C3223424   2.343   0.843   9.191  0.9900 -0.0675  0.4060
  190DOPC   H2X23425   2.422   0.766   9.203  0.5243 -0.3673  1.6683
  190DOPC   H2Y23426   2.398   0.937   9.168 -0.5059  0.4319 -1.3779
  190DOPC   C2323427   2.068   0.294   9.192 -0.0702  0.6363 -0.2814
  190DOPC   H3R23428   2.166   0.317   9.239 -1.0801  0.4320  2.0342
  190DOPC   H3S23429   2.081   0.202   9.131  0.6478  2.7020 -3.4607
  190DOPC   C2423430   1.983   0.254   9.312 -0.0529  0.5772 -0.1099
  190DOPC   H4R23431   1.901   0.188   9.277  0.2684 -1.0731  2.0840
  190DOPC   H4S23432   1.931   0.338   9.364  0.8496  0.5023  0.9605
  190DOPC   C2523433   2.056   0.181   9.423 -0.0077  0.2618 -0.8519
  190DOPC   H5R23434   2.121   0.252   9.478  0.1894 -1.3829  1.1721
  190DOPC   H5S23435   2.118   0.103   9.374 -1.6927 -1.2659 -0.6689
  190DOPC   C2623436   1.951   0.118   9.524 -0.6846 -0.4549  0.9147
  190DOPC   H6R23437   1.995   0.025   9.566 -2.0473 -1.9713 -0.8638
  190DOPC   H6S23438   1.865   0.087   9.461  1.8895 -1.4597 -2.4717
  190DOPC   C2723439   1.923   0.213   9.643 -0.5661  0.2885 -0.2748
  190DOPC   H7R23440   1.841   0.285   9.622 -0.0596  1.1038  0.4523
  190DOPC   H7S23441   2.012   0.275   9.668  0.5003 -2.0884  2.2196
  190DOPC   C2823442   1.894   0.144   9.783 -0.7040  0.1406 -0.1497
  190DOPC   H8R23443   1.984   0.095   9.824 -2.2128  0.5818  4.1490
  190DOPC   H8S23444   1.834   0.057   9.748  2.3559 -2.3095  0.2575
  190DOPC   C2923445   1.832   0.237   9.887 -0.2575 -0.3803  0.1506
  190DOPC   H9R23446   1.831   0.343   9.859  0.8862 -0.2739  0.4485
  190DOPC  C21023447   1.774   0.194  10.002  0.0673  0.0758  0.2104
  190DOPC  H10R23448   1.744   0.268  10.078 -0.6658 -0.7903  0.7874
  190DOPC  C21123449   1.770   0.051  10.045 -0.2936  0.4323  0.1842
  190DOPC  H11R23450   1.777  -0.021   9.961  0.8202  0.3016  0.3673
  190DOPC  H11S23451   1.668   0.034  10.087 -0.4151  0.8719  0.0771
  190DOPC  C21223452   1.893   0.008  10.135  0.3752  0.8628  0.2813
  190DOPC  H12R23453   1.982   0.048  10.083  0.5648 -0.0217 -0.0965
  190DOPC  H12S23454   1.904  -0.103  10.143 -2.3104  0.4127 -0.9540
  190DOPC  C21323455   1.891   0.063  10.278 -0.1464 -0.2196 -0.1418
  190DOPC  H13R23456   1.909   0.173  10.276  0.3256 -0.3029 -0.7135
  190DOPC  H13S23457   1.987   0.028  10.322  0.1307 -0.3380 -0.8308
  190DOPC  C21423458   1.767   0.023  10.369  0.3555 -0.3498  0.3448
  190DOPC  H14R23459   1.744  -0.086  10.368 -0.3536 -0.1970  0.1639
  190DOPC  H14S23460   1.676   0.061  10.318 -1.4323 -3.2655  1.1110
  190DOPC  C21523461   1.777   0.105  10.505 -0.3011 -0.1422  0.2902
  190DOPC  H15R23462   1.763   0.211  10.477  1.1950 -0.0168 -0.0466
  190DOPC  H15S23463   1.878   0.084  10.547  0.2802  1.2370 -0.3954
  190DOPC  C21623464   1.664   0.064  10.609 -1.0158  0.2345  0.2767
  190DOPC  H16R23465   1.669  -0.042  10.641 -1.7321  0.3997  0.9792
  190DOPC  H16S23466   1.572   0.073  10.548  0.5864 -0.6796 -2.4284
  190DOPC  C21723467   1.661   0.154  10.732  0.1650  0.6099  0.0562
  190DOPC  H17R23468   1.562   0.138  10.779 -0.1792  1.3492 -0.4014
  190DOPC  H17S23469   1.665   0.260  10.698 -3.5289  0.7684 -0.2193
  190DOPC  C21823470   1.762   0.133  10.842  0.5746 -0.3601 -0.0473
  190DOPC  H18R23471   1.728   0.181  10.937 -0.2257 -2.3567  0.7300
  190DOPC  H18S23472   1.858   0.179  10.812  1.3720 -2.2084 -0.4140
  190DOPC  H18T23473   1.768   0.025  10.866 -0.4622 -0.1733  1.1939
  190DOPC   C3323474   2.263   0.857   9.319  0.5118  0.8499  0.3420
  190DOPC   H3X23475   2.214   0.763   9.352  0.8485 -0.2686 -2.1492
  190DOPC   H3Y23476   2.184   0.933   9.299 -0.1040  0.4022  0.9817
  190DOPC   C3423477   2.351   0.906   9.434 -0.0890 -0.6682 -0.0601
  190DOPC   H4X23478   2.363   1.014   9.410  1.5262 -0.7214  0.4369
  190DOPC   H4Y23479   2.447   0.852   9.435 -0.0146 -0.5278  0.8684
  190DOPC   C3523480   2.285   0.897   9.572  0.4373 -0.7777  0.1065
  190DOPC   H5X23481   2.278   0.788   9.593 -1.3727 -0.2453  2.7163
  190DOPC   H5Y23482   2.182   0.939   9.567  0.7426 -0.1128 -1.1682
  190DOPC   C3623483   2.362   0.960   9.686  0.2435 -0.1282 -0.8521
  190DOPC   H6X23484   2.447   1.022   9.651 -0.9093  1.0387 -1.7136
  190DOPC   H6Y23485   2.305   1.035   9.745  3.1399  1.7801 -0.2874
  190DOPC   C3723486   2.421   0.860   9.795 -0.9085 -0.3579 -0.5239
  190DOPC   H7X23487   2.501   0.796   9.752 -0.5170 -0.5180  0.4122
  190DOPC   H7Y23488   2.478   0.928   9.861  3.0635 -1.1604 -2.8005
  190DOPC   C3823489   2.319   0.771   9.869 -0.0744 -0.4481 -0.5566
  190DOPC   H8X23490   2.258   0.712   9.797  0.6931  0.0130 -1.5903
  190DOPC   H8Y23491   2.252   0.843   9.921  2.0143  0.1402  1.4683
  190DOPC   C3923492   2.397   0.679   9.964  0.5376  0.2700 -0.3144
  190DOPC   H9X23493   2.452   0.595   9.918  0.0733 -0.2525  0.0827
  190DOPC  C31023494   2.388   0.684  10.096  0.6845 -0.5239  0.1728
  190DOPC  H10X23495   2.441   0.611  10.159 -0.0986  0.6662  2.3172
  190DOPC  C31123496   2.315   0.795  10.173 -0.7126  0.6556 -0.7429
  190DOPC  H11X23497   2.214   0.763  10.206 -0.4152  0.6269  0.1589
  190DOPC  H11Y23498   2.301   0.890  10.118 -0.5904  1.9121  1.2831
  190DOPC  C31223499   2.383   0.835  10.310  0.0125  0.6132 -0.2822
  190DOPC  H12X23500   2.352   0.942  10.314  1.2997  1.2706 -3.7642
  190DOPC  H12Y23501   2.494   0.845  10.306  0.1732 -0.5303  0.8511
  190DOPC  C31323502   2.323   0.754  10.428 -0.1940 -0.8147 -0.8590
  190DOPC  H13X23503   2.213   0.768  10.431 -0.5785 -3.3630  1.6931
  190DOPC  H13Y23504   2.357   0.650  10.411  2.7262 -0.4525  1.7730
  190DOPC  C31423505   2.372   0.796  10.571  0.1066 -0.3389 -0.3336
  190DOPC  H14X23506   2.303   0.869  10.619 -0.4144 -2.5710  2.6524
  190DOPC  H14Y23507   2.376   0.711  10.642  1.4459  0.5229  0.6935
  190DOPC  C31523508   2.520   0.850  10.576 -0.5147 -0.7749 -0.2485
  190DOPC  H15X23509   2.534   0.939  10.511  2.0144  0.3216  1.6240
  190DOPC  H15Y23510   2.594   0.778  10.535  0.0497 -0.1353 -0.3928
  190DOPC  C31623511   2.564   0.907  10.714 -0.2861 -0.7156  0.8579
  190DOPC  H16X23512   2.488   0.980  10.750  1.4463  0.5870  2.0508
  190DOPC  H16Y23513   2.564   0.815  10.775  0.1739 -0.5091  1.1706
  190DOPC  C31723514   2.698   0.980  10.712  0.4724 -0.0698 -0.8241
  190DOPC  H17X23515   2.774   0.913  10.666  0.7452 -0.6350  0.4038
  190DOPC  H17Y23516   2.687   1.077  10.659 -0.5310  0.8238  0.9446
  190DOPC  C31823517   2.747   1.008  10.856  0.4202 -0.2245  0.4183
  190DOPC  H18X23518   2.832   1.079  10.860 -0.0078  0.2468  1.5997
  190DOPC  H18Y23519   2.662   1.045  10.916  0.1393 -0.1390 -0.0223
  190DOPC  H18Z23520   2.778   0.911  10.900 -0.8347 -0.6120  0.4922
  191DOPC     N23521   5.711   1.192   8.346 -0.0641  0.0446 -0.5606
  191DOPC   C1223522   5.756   1.064   8.407 -0.2823  0.4372 -0.0521
  191DOPC  H12A23523   5.846   1.087   8.463  1.5542 -0.7907 -2.3472
  191DOPC  H12B23524   5.804   1.009   8.327  1.2180 -0.0963  1.1447
  191DOPC   C1323525   5.590   1.161   8.270 -0.3952 -0.2549  0.4388
  191DOPC  H13A23526   5.592   1.072   8.209 -0.1217  0.6802 -0.9849
  191DOPC  H13B23527   5.508   1.147   8.338  0.0347  1.3971  1.3584
  191DOPC  H13C23528   5.568   1.244   8.204  0.0189 -0.2384  0.3167
  191DOPC   C1423529   5.826   1.250   8.270  0.5614 -0.1727 -0.4355
  191DOPC  H14A23530   5.912   1.266   8.333 -1.4248 -0.7837  2.6211
  191DOPC  H14B23531   5.852   1.180   8.192  1.3238  0.2836 -0.6139
  191DOPC  H14C23532   5.790   1.336   8.215 -1.3753 -0.5817  0.1358
  191DOPC   C1523533   5.665   1.290   8.446 -0.2323 -0.3087  0.2987
  191DOPC  H15A23534   5.614   1.230   8.519  0.9277 -2.8002 -0.8262
  191DOPC  H15B23535   5.609   1.378   8.417 -0.1188 -0.6046 -0.8789
  191DOPC  H15C23536   5.753   1.328   8.495  1.0639 -2.6562 -0.0722
  191DOPC   C1123537   5.647   0.987   8.489  0.2799  0.0974  0.0221
  191DOPC  H11A23538   5.575   0.949   8.414  0.6447 -0.8015  0.1148
  191DOPC  H11B23539   5.698   0.894   8.519 -0.0983 -0.5454 -1.2613
  191DOPC     P23540   5.447   1.037   8.642 -0.1583  0.3764 -0.0151
  191DOPC   O1323541   5.420   0.893   8.634 -0.3519  0.4089  0.1240
  191DOPC   O1423542   5.353   1.123   8.570 -0.5797  0.5858 -0.2527
  191DOPC   O1223543   5.589   1.054   8.597 -0.2442  0.5117 -0.2160
  191DOPC   O1123544   5.459   1.078   8.794  0.6855 -0.2913  0.5788
  191DOPC    C123545   5.549   1.186   8.828 -0.7359  0.4634 -0.1187
  191DOPC    HA23546   5.509   1.286   8.799  0.9008  1.1963  0.0525
  191DOPC    HB23547   5.650   1.165   8.788 -0.7147  2.2320 -1.0985
  191DOPC    C223548   5.560   1.218   8.981  0.1913  1.0171 -0.3433
  191DOPC    HS23549   5.601   1.126   9.029 -0.6880  1.4387  1.2760
  191DOPC   O2123550   5.425   1.239   9.041 -0.2509  0.1193  0.2440
  191DOPC   C2123551   5.412   1.196   9.166 -0.1040  0.6098 -0.2224
  191DOPC   O2223552   5.481   1.112   9.222  0.0851  0.5391  0.2608
  191DOPC   C2223553   5.291   1.270   9.217 -0.0878 -0.8318  0.2980
  191DOPC   H2R23554   5.198   1.212   9.201 -2.7163  2.8065  1.2450
  191DOPC   H2S23555   5.277   1.371   9.174  1.4510  1.1961  4.1148
  191DOPC    C323556   5.650   1.335   9.015  0.0706 -0.6622  0.1023
  191DOPC    HX23557   5.591   1.424   8.985 -2.9913 -2.8525 -0.8731
  191DOPC    HY23558   5.743   1.334   8.953  0.0400  3.0070 -0.2595
  191DOPC   O3123559   5.677   1.348   9.158 -0.1425  0.6537 -0.1053
  191DOPC   C3123560   5.774   1.267   9.195 -0.1670 -0.0896  0.1252
  191DOPC   O3223561   5.814   1.166   9.136  0.0694  0.7392  0.5609
  191DOPC   C3223562   5.828   1.313   9.325  0.2209  0.1277 -0.8865
  191DOPC   H2X23563   5.916   1.372   9.291  0.7595 -1.4189 -2.2871
  191DOPC   H2Y23564   5.754   1.373   9.384  2.0500  0.0396  1.6347
  191DOPC   C2323565   5.311   1.286   9.372  0.5587  0.2484  0.7454
  191DOPC   H3R23566   5.344   1.190   9.416  3.4783  0.3479 -0.9478
  191DOPC   H3S23567   5.210   1.311   9.411 -0.2613 -0.8987 -0.5538
  191DOPC   C2423568   5.408   1.395   9.427  0.0082  0.2737 -0.0252
  191DOPC   H4R23569   5.362   1.492   9.401 -2.4986 -0.5263  1.1138
  191DOPC   H4S23570   5.513   1.375   9.396 -0.2264 -0.5170 -0.3531
  191DOPC   C2523571   5.420   1.376   9.576  0.2577 -0.1223  0.3146
  191DOPC   H5R23572   5.322   1.402   9.620  0.5365  3.9897 -1.0382
  191DOPC   H5S23573   5.488   1.457   9.612  0.2063  0.3170 -0.5232
  191DOPC   C2623574   5.482   1.247   9.627 -0.1117 -0.3101  0.3360
  191DOPC   H6R23575   5.575   1.243   9.566 -0.4795 -0.0838 -0.2603
  191DOPC   H6S23576   5.420   1.158   9.605 -0.0738  0.1350 -1.8088
  191DOPC   C2723577   5.507   1.238   9.779  0.8085  0.6879  0.2239
  191DOPC   H7R23578   5.549   1.135   9.788 -3.2652 -1.0120  2.2677
  191DOPC   H7S23579   5.411   1.242   9.834  0.9197 -1.1338  0.6081
  191DOPC   C2823580   5.613   1.339   9.828 -0.2596 -0.0445  0.3454
  191DOPC   H8R23581   5.569   1.439   9.808 -0.8817 -0.5796 -1.1343
  191DOPC   H8S23582   5.693   1.317   9.754 -0.1299  0.4952  0.3248
  191DOPC   C2923583   5.655   1.287   9.962  0.2452  0.2039  0.1753
  191DOPC   H9R23584   5.750   1.233   9.965 -0.2882 -0.7783  0.0038
  191DOPC  C21023585   5.595   1.316  10.078  0.1524 -0.5148 -0.0496
  191DOPC  H10R23586   5.630   1.265  10.169  1.0458 -0.4387 -0.3335
  191DOPC  C21123587   5.486   1.408  10.099 -0.3014 -0.7761  0.2951
  191DOPC  H11R23588   5.399   1.360  10.148  0.1426 -1.7961  0.1047
  191DOPC  H11S23589   5.449   1.443  10.000 -0.6072 -0.0514  0.6547
  191DOPC  C21223590   5.524   1.524  10.200  0.1688  0.0922  0.2194
  191DOPC  H12R23591   5.439   1.593  10.180 -1.1653 -1.4497  0.3376
  191DOPC  H12S23592   5.621   1.569  10.171 -0.8815  1.5342 -1.2649
  191DOPC  C21323593   5.531   1.477  10.348  0.5986 -0.1325  0.8558
  191DOPC  H13R23594   5.602   1.391  10.345  0.7159 -0.0121 -0.2815
  191DOPC  H13S23595   5.437   1.443  10.398  1.4186 -1.1601  1.7687
  191DOPC  C21423596   5.587   1.589  10.446 -0.1765 -0.0280  0.2476
  191DOPC  H14R23597   5.508   1.667  10.453 -0.2521 -0.0714 -0.1091
  191DOPC  H14S23598   5.676   1.634  10.398 -1.3838 -0.7556 -2.9387
  191DOPC  C21523599   5.626   1.544  10.593  0.3691  0.4042 -0.5162
  191DOPC  H15R23600   5.695   1.620  10.634  0.7291 -0.1622 -0.0544
  191DOPC  H15S23601   5.668   1.443  10.574  0.4763  0.3114  0.2039
  191DOPC  C21623602   5.505   1.520  10.687  0.2980 -0.3134 -0.1497
  191DOPC  H16R23603   5.446   1.434  10.649  0.4276 -0.6431  0.3896
  191DOPC  H16S23604   5.432   1.604  10.682 -0.5660 -1.0988 -1.3639
  191DOPC  C21723605   5.550   1.474  10.828  0.0741  0.4486  0.0015
  191DOPC  H17R23606   5.635   1.402  10.828  0.6339  1.0903 -0.7041
  191DOPC  H17S23607   5.460   1.427  10.871 -1.5400  1.2567 -2.3270
  191DOPC  C21823608   5.597   1.593  10.917  0.3242  0.0043  0.2662
  191DOPC  H18R23609   5.677   1.654  10.870  1.5422  0.6556  2.9722
  191DOPC  H18S23610   5.629   1.554  11.017 -0.8492  1.1678  1.1259
  191DOPC  H18T23611   5.504   1.650  10.938 -0.2139 -0.6924 -0.1706
  191DOPC   C3323612   5.871   1.197   9.423 -0.2533  0.1012 -0.3807
  191DOPC   H3X23613   5.939   1.129   9.368  0.5510  1.5136 -1.2060
  191DOPC   H3Y23614   5.783   1.131   9.441 -2.6384  2.3779 -2.7151
  191DOPC   C3423615   5.942   1.241   9.550 -0.6046 -0.0677  0.4804
  191DOPC   H4X23616   5.872   1.309   9.603  1.1412  0.7662  1.8152
  191DOPC   H4Y23617   6.033   1.299   9.525 -1.5516  0.4782 -1.9433
  191DOPC   C3523618   5.980   1.123   9.645  0.4585  0.3498 -0.5602
  191DOPC   H5X23619   6.047   1.044   9.605  0.8059  0.7746 -0.8287
  191DOPC   H5Y23620   5.896   1.057   9.674  0.0535  0.6487 -1.0279
  191DOPC   C3623621   6.046   1.161   9.777 -0.7144 -0.2282 -0.2136
  191DOPC   H6X23622   6.123   1.239   9.756 -1.1618 -0.1022 -1.4494
  191DOPC   H6Y23623   5.983   1.198   9.860  0.1699 -3.7479  2.2389
  191DOPC   C3723624   6.121   1.048   9.841  0.2415  0.2421  0.4109
  191DOPC   H7X23625   6.063   0.954   9.834 -0.5946  0.7604  0.1967
  191DOPC   H7Y23626   6.215   1.028   9.785  0.2962 -0.1363  0.6326
  191DOPC   C3823627   6.156   1.075   9.989 -0.1424 -0.0421 -0.0264
  191DOPC   H8X23628   6.071   1.080  10.061 -0.6679 -0.2425 -0.6286
  191DOPC   H8Y23629   6.213   1.169  10.001  1.1755 -0.8642  0.3409
  191DOPC   C3923630   6.254   0.976  10.041 -0.2448  0.1154 -0.4599
  191DOPC   H9X23631   6.335   0.954   9.970 -1.0819 -2.1516 -0.7895
  191DOPC  C31023632   6.251   0.925  10.168 -0.0381 -0.1074  0.6571
  191DOPC  H10X23633   6.335   0.857  10.191 -0.0061  0.0596  1.0374
  191DOPC  C31123634   6.143   0.953  10.274 -0.6148  0.3665 -0.9888
  191DOPC  H11X23635   6.064   0.875  10.269  0.2879 -1.1131  3.2383
  191DOPC  H11Y23636   6.100   1.055  10.272  0.3881  0.8903  1.1530
  191DOPC  C31223637   6.183   0.932  10.416 -0.5913 -0.7753 -0.6429
  191DOPC  H12X23638   6.267   1.001  10.441 -0.0826 -1.4261 -0.5234
  191DOPC  H12Y23639   6.229   0.831  10.423 -1.3958 -1.1329 -0.3626
  191DOPC  C31323640   6.066   0.938  10.521 -0.0509 -0.5374  0.2999
  191DOPC  H13X23641   6.042   1.046  10.534 -0.6277 -0.4522 -1.2253
  191DOPC  H13Y23642   5.974   0.889  10.480 -0.7264  0.8183  0.1340
  191DOPC  C31423643   6.087   0.857  10.645  0.5174  0.6398 -0.1047
  191DOPC  H14X23644   6.093   0.749  10.623  0.6973  0.7349 -0.5296
  191DOPC  H14Y23645   6.180   0.892  10.694 -0.3892  2.3135  0.5326
  191DOPC  C31523646   5.970   0.874  10.748 -0.1148  0.6268 -0.3152
  191DOPC  H15X23647   5.885   0.809  10.718 -1.2334  1.9019 -0.0426
  191DOPC  H15Y23648   5.934   0.978  10.764  0.6652  0.7952  0.3850
  191DOPC  C31623649   6.002   0.826  10.886 -0.3778 -0.1291 -0.0517
  191DOPC  H16X23650   6.063   0.734  10.883  1.1369  0.7316  2.0822
  191DOPC  H16Y23651   6.076   0.895  10.933  1.6240 -2.9001  1.1324
  191DOPC  C31723652   5.887   0.808  10.986 -0.2689  0.0776 -0.4643
  191DOPC  H17X23653   5.837   0.901  11.022  1.9962  0.8356  0.9209
  191DOPC  H17Y23654   5.810   0.747  10.935 -0.4139 -0.3787  0.2832
  191DOPC  C31823655   5.929   0.726  11.110  0.0709 -0.0641 -0.4631
  191DOPC  H18X23656   5.979   0.633  11.075  1.9859  0.7892 -0.0809
  191DOPC  H18Y23657   6.005   0.774  11.175  0.6489  0.5401 -1.5477
  191DOPC  H18Z23658   5.851   0.700  11.185  1.1973 -1.5183  0.2581
  192DOPC     N23659   1.089   4.188   8.843 -1.2740  0.2947  0.1366
  192DOPC   C1223660   1.038   4.313   8.915 -0.3036 -0.0002 -0.3318
  192DOPC  H12A23661   1.122   4.361   8.963 -0.0520 -1.5973  0.9151
  192DOPC  H12B23662   0.982   4.280   9.001 -1.7574  1.3261 -0.7121
  192DOPC   C1323663   1.172   4.111   8.942  0.3243 -0.1739 -0.4268
  192DOPC  H13A23664   1.107   4.083   9.024  0.0464  0.2803 -0.4888
  192DOPC  H13B23665   1.234   4.029   8.910  0.1643 -1.4502  2.3043
  192DOPC  H13C23666   1.234   4.179   8.997 -3.5084  2.2899  1.2898
  192DOPC   C1423667   1.182   4.235   8.734 -0.4255  0.1006 -0.2239
  192DOPC  H14A23668   1.129   4.304   8.671 -2.4842 -0.8100  0.4209
  192DOPC  H14B23669   1.262   4.300   8.767 -2.0108  2.5526 -0.8972
  192DOPC  H14C23670   1.208   4.162   8.659 -2.4160 -0.7201 -0.1677
  192DOPC   C1523671   0.975   4.105   8.797  0.6890 -0.3422  0.2750
  192DOPC  H15A23672   0.999   4.018   8.739 -2.1386 -0.9813 -0.1033
  192DOPC  H15B23673   0.916   4.151   8.719 -2.7139 -0.3067  2.6313
  192DOPC  H15C23674   0.898   4.091   8.872 -1.9881  1.2750 -1.9410
  192DOPC   C1123675   0.959   4.415   8.835 -0.0496  0.4297 -0.1020
  192DOPC  H11A23676   0.950   4.506   8.898 -1.3012  0.5847 -0.4820
  192DOPC  H11B23677   1.022   4.448   8.749  0.4815  0.9142  0.4607
  192DOPC     P23678   0.718   4.387   8.903 -0.1032  0.0689  0.1346
  192DOPC   O1323679   0.600   4.312   8.865  0.6254  0.0656  0.5984
  192DOPC   O1423680   0.700   4.533   8.898  0.1028 -0.0132 -0.3334
  192DOPC   O1223681   0.834   4.359   8.799 -0.1068 -0.3018 -0.4266
  192DOPC   O1123682   0.766   4.343   9.044  0.1081  0.0676 -0.0525
  192DOPC    C123683   0.720   4.220   9.106 -0.3308  0.3561  0.7208
  192DOPC    HA23684   0.802   4.145   9.097  0.2288  1.0858 -0.7455
  192DOPC    HB23685   0.644   4.158   9.054  0.9551 -0.1127 -0.6793
  192DOPC    C223686   0.676   4.234   9.249  0.1926 -0.7074 -0.0214
  192DOPC    HS23687   0.659   4.132   9.291  1.6230 -1.3882 -1.0235
  192DOPC   O2123688   0.554   4.315   9.258 -0.3046 -0.1353  0.4379
  192DOPC   C2123689   0.444   4.252   9.213 -0.1121 -0.2548  0.3681
  192DOPC   O2223690   0.431   4.138   9.182 -0.2368  0.3734  0.2972
  192DOPC   C2223691   0.327   4.347   9.201  0.1047  0.0555 -0.2041
  192DOPC   H2R23692   0.298   4.335   9.095 -0.8542 -1.7105  0.2170
  192DOPC   H2S23693   0.372   4.448   9.209  2.3233 -1.0067  1.8593
  192DOPC    C323694   0.787   4.304   9.339 -0.3833  0.2398 -0.5747
  192DOPC    HX23695   0.791   4.412   9.314 -0.9916  0.5876  0.7367
  192DOPC    HY23696   0.877   4.243   9.316 -0.6223 -0.3139 -0.0848
  192DOPC   O3123697   0.766   4.277   9.482 -0.6071  0.6392 -0.5273
  192DOPC   C3123698   0.851   4.355   9.553  0.1750 -0.5330  0.4087
  192DOPC   O3223699   0.933   4.429   9.497 -0.2933  0.2855  0.6318
  192DOPC   C3223700   0.835   4.337   9.706  0.9448  0.2934 -0.4277
  192DOPC   H2X23701   0.728   4.349   9.731  0.4041 -0.5628 -2.1897
  192DOPC   H2Y23702   0.857   4.230   9.723  1.9027  0.5523  0.0497
  192DOPC   C2323703   0.221   4.320   9.301  0.1704 -0.0339  0.1917
  192DOPC   H3R23704   0.188   4.214   9.307 -0.4432  0.2025  1.3295
  192DOPC   H3S23705   0.133   4.373   9.261 -0.4116 -1.3299 -0.2886
  192DOPC   C2423706   0.240   4.387   9.442 -0.3182  0.0028 -0.0913
  192DOPC   H4R23707   0.276   4.488   9.415 -2.1486  0.2072 -2.1197
  192DOPC   H4S23708   0.315   4.337   9.507 -1.4842 -1.3854  0.2440
  192DOPC   C2523709   0.112   4.416   9.529  0.3534 -0.0920 -0.0336
  192DOPC   H5R23710   0.025   4.408   9.460  2.1241 -2.3217 -2.1794
  192DOPC   H5S23711   0.123   4.517   9.574  2.3690 -0.7137  0.9877
  192DOPC   C2623712   0.096   4.298   9.615  0.1030  0.4155 -0.2925
  192DOPC   H6R23713   0.173   4.288   9.694  0.8257 -1.2959 -1.1728
  192DOPC   H6S23714   0.121   4.206   9.558  2.5958  1.5459 -1.1646
  192DOPC   C2723715  -0.041   4.270   9.680  0.0131  0.1312  0.3743
  192DOPC   H7R23716  -0.075   4.369   9.718  2.1760  0.4006  1.7735
  192DOPC   H7S23717  -0.023   4.207   9.770  0.4588 -0.0077  0.1919
  192DOPC   C2823718  -0.147   4.199   9.583 -0.2971  0.3486  0.1137
  192DOPC   H8R23719  -0.147   4.246   9.482  1.9539  2.2041  0.9067
  192DOPC   H8S23720  -0.249   4.205   9.625 -1.0211 -0.7134 -1.3791
  192DOPC   C2923721  -0.124   4.045   9.569  0.2335 -1.1564  0.1151
  192DOPC   H9R23722  -0.069   4.027   9.476  0.8320  3.1192 -0.5642
  192DOPC  C21023723  -0.182   3.954   9.646 -0.2043  0.5528 -0.7276
  192DOPC  H10R23724  -0.175   3.847   9.622  2.0391  0.6194 -0.6106
  192DOPC  C21123725  -0.264   3.986   9.765 -0.0153 -0.1071  0.3885
  192DOPC  H11R23726  -0.366   4.000   9.723  0.2281 -0.5571 -0.3660
  192DOPC  H11S23727  -0.237   4.080   9.818  0.5145 -0.5257  0.8649
  192DOPC  C21223728  -0.273   3.873   9.868  0.0279 -0.3888 -0.1355
  192DOPC  H12R23729  -0.172   3.827   9.855 -0.6238 -2.3488  1.2058
  192DOPC  H12S23730  -0.345   3.795   9.837  1.6680 -1.5639 -1.1565
  192DOPC  C21323731  -0.317   3.928  10.007 -0.1479  0.5333 -0.6244
  192DOPC  H13R23732  -0.418   3.974  10.000 -0.3817  0.1910  0.3411
  192DOPC  H13S23733  -0.247   4.009  10.039  0.7390 -0.8254  1.0114
  192DOPC  C21423734  -0.309   3.812  10.111  0.8682 -0.0484 -0.2127
  192DOPC  H14R23735  -0.206   3.775  10.126  0.4772 -0.4788  1.7331
  192DOPC  H14S23736  -0.365   3.720  10.083 -0.6595  0.7346  0.1485
  192DOPC  C21523737  -0.371   3.864  10.242  1.0697  0.3392  0.2992
  192DOPC  H15R23738  -0.473   3.902  10.222  0.2165 -0.5859  2.5803
  192DOPC  H15S23739  -0.305   3.948  10.271 -0.4490  1.3631  0.9182
  192DOPC  C21623740  -0.363   3.752  10.359 -0.2858 -0.1965  0.3281
  192DOPC  H16R23741  -0.273   3.688  10.350  0.0657 -0.1278  2.8611
  192DOPC  H16S23742  -0.456   3.691  10.358  0.8129 -2.1250 -3.1773
  192DOPC  C21723743  -0.347   3.818  10.502  0.3155 -0.3125  0.5157
  192DOPC  H17R23744  -0.269   3.898  10.501  1.1521 -1.1168 -0.5474
  192DOPC  H17S23745  -0.314   3.737  10.569 -1.1010 -1.0993  0.2920
  192DOPC  C21823746  -0.472   3.870  10.560 -0.0152 -0.1041  0.7194
  192DOPC  H18R23747  -0.528   3.930  10.485  1.4630  1.9692  1.1723
  192DOPC  H18S23748  -0.455   3.942  10.642 -1.1363 -1.7567  2.4731
  192DOPC  H18T23749  -0.532   3.787  10.603  1.7175 -0.9587  1.5846
  192DOPC   C3323750   0.934   4.419   9.792  0.1624 -0.3020 -0.2128
  192DOPC   H3X23751   0.921   4.525   9.763 -0.4783 -0.5383 -0.8158
  192DOPC   H3Y23752   1.039   4.399   9.762  0.2162 -0.5992  0.1641
  192DOPC   C3423753   0.915   4.398   9.944  0.0928 -0.2064  0.8317
  192DOPC   H4X23754   0.808   4.420   9.962  0.1364  3.3851 -2.1721
  192DOPC   H4Y23755   0.967   4.471  10.010 -2.7931  0.9371  2.0092
  192DOPC   C3523756   0.927   4.257   9.999  0.3025 -0.5333 -0.6355
  192DOPC   H5X23757   1.025   4.217   9.968 -0.5977 -1.7790 -2.0097
  192DOPC   H5Y23758   0.851   4.187   9.956 -0.3861  0.1147 -0.5054
  192DOPC   C3623759   0.906   4.241  10.148  0.4459  0.7136 -0.2806
  192DOPC   H6X23760   0.809   4.291  10.169  0.9261  1.7197 -0.4036
  192DOPC   H6Y23761   0.888   4.136  10.182  1.8587  1.3027  2.6220
  192DOPC   C3723762   1.014   4.296  10.236  0.0493 -0.0376 -0.1696
  192DOPC   H7X23763   1.110   4.278  10.182 -0.3030  0.0385 -0.8382
  192DOPC   H7Y23764   1.005   4.406  10.244 -3.5007 -0.3516  2.2242
  192DOPC   C3823765   1.020   4.243  10.387 -0.0824 -0.2219  0.4219
  192DOPC   H8X23766   1.042   4.134  10.385 -1.2709 -0.5224  1.9817
  192DOPC   H8Y23767   0.917   4.263  10.423  0.0878 -0.3501  0.9916
  192DOPC   C3923768   1.119   4.326  10.463 -0.2035 -0.6931 -0.5872
  192DOPC   H9X23769   1.118   4.436  10.454  0.5170 -0.6786 -0.5283
  192DOPC  C31023770   1.200   4.284  10.565 -0.6534 -0.9788 -0.4091
  192DOPC  H10X23771   1.257   4.366  10.612 -1.6604  0.4119 -1.5430
  192DOPC  C31123772   1.214   4.142  10.616  0.6253 -0.4336 -0.1521
  192DOPC  H11X23773   1.312   4.130  10.665  0.3454  1.4825  0.9707
  192DOPC  H11Y23774   1.211   4.074  10.528  2.6113  0.2196 -0.7751
  192DOPC  C31223775   1.095   4.122  10.712  0.0345 -0.0065  0.0796
  192DOPC  H12X23776   0.996   4.134  10.662 -0.0802 -1.9826 -0.2621
  192DOPC  H12Y23777   1.098   4.190  10.799  1.6248 -2.2850  1.9318
  192DOPC  C31323778   1.095   3.973  10.757  0.8145  0.3646 -0.1295
  192DOPC  H13X23779   0.997   3.945  10.803 -0.4582 -0.3907 -3.0928
  192DOPC  H13Y23780   1.099   3.913  10.664  1.8735 -1.2738  0.9120
  192DOPC  C31423781   1.216   3.928  10.838  0.1271  1.0873  0.2145
  192DOPC  H14X23782   1.305   3.927  10.771 -0.4354  0.8936 -0.5365
  192DOPC  H14Y23783   1.246   4.003  10.914  0.8908  1.7084 -0.6768
  192DOPC  C31523784   1.193   3.797  10.912  0.3265  0.7846 -0.3721
  192DOPC  H15X23785   1.142   3.722  10.848  1.0136 -0.6329  0.6760
  192DOPC  H15Y23786   1.128   3.808  11.002  0.0089 -0.4763 -0.4251
  192DOPC  C31623787   1.324   3.737  10.970  0.2729  0.0178  0.2477
  192DOPC  H16X23788   1.401   3.729  10.890  0.0189  0.1889 -0.0161
  192DOPC  H16Y23789   1.356   3.806  11.051  0.5499 -1.7285  1.6788
  192DOPC  C31723790   1.308   3.596  11.029  0.4869 -0.2060 -0.3557
  192DOPC  H17X23791   1.296   3.530  10.941 -1.9165 -0.5553  0.1781
  192DOPC  H17Y23792   1.407   3.576  11.076  0.3060 -1.0839 -0.3412
  192DOPC  C31823793   1.199   3.597  11.140 -0.3390  0.6750  0.4607
  192DOPC  H18X23794   1.181   3.493  11.176  0.5502 -1.1245 -3.5933
  192DOPC  H18Y23795   1.218   3.663  11.227  0.4625 -0.6447  1.3270
  192DOPC  H18Z23796   1.106   3.630  11.089  0.6560  0.9056 -1.3200
  193DOPC     N23797   1.510   1.693   8.678  0.6961  0.1778  0.7127
  193DOPC   C1223798   1.434   1.635   8.797 -0.4491 -0.9117  0.3817
  193DOPC  H12A23799   1.400   1.717   8.859  0.9885  0.5051 -0.6097
  193DOPC  H12B23800   1.507   1.579   8.854 -1.4226 -3.0529 -0.3712
  193DOPC   C1323801   1.428   1.798   8.601 -0.3927 -0.8654  0.2000
  193DOPC  H13A23802   1.411   1.878   8.671 -0.6017 -0.3574 -0.4215
  193DOPC  H13B23803   1.482   1.843   8.519  0.0959  0.9899  1.4874
  193DOPC  H13C23804   1.331   1.756   8.582 -0.4003 -1.3356  1.2070
  193DOPC   C1423805   1.564   1.576   8.606  0.3719 -0.1743  0.0299
  193DOPC  H14A23806   1.484   1.523   8.557  0.0512 -0.4963  0.8864
  193DOPC  H14B23807   1.639   1.614   8.539  0.5729  0.7161  0.7304
  193DOPC  H14C23808   1.604   1.501   8.672 -1.3548 -2.2019 -1.1269
  193DOPC   C1523809   1.625   1.770   8.729 -0.2601  0.3031  0.6968
  193DOPC  H15A23810   1.660   1.735   8.825  2.9380 -0.3589 -0.5655
  193DOPC  H15B23811   1.620   1.874   8.758  1.3414  0.2269  1.3433
  193DOPC  H15C23812   1.709   1.762   8.662 -1.0341 -0.2192 -0.2339
  193DOPC   C1123813   1.318   1.545   8.759  0.1651  0.4915  0.2420
  193DOPC  H11A23814   1.357   1.453   8.709  0.4014  0.1009  1.1167
  193DOPC  H11B23815   1.271   1.510   8.853 -1.1261  0.2474 -0.4795
  193DOPC     P23816   1.078   1.637   8.718  0.0003 -0.0647 -0.2646
  193DOPC   O1323817   0.978   1.529   8.693  0.3634 -0.0395  0.2937
  193DOPC   O1423818   1.050   1.764   8.650  0.2506  0.1071 -0.5521
  193DOPC   O1223819   1.226   1.604   8.674 -0.0942  0.2974  0.1319
  193DOPC   O1123820   1.096   1.670   8.871  0.1744  0.1183  0.5448
  193DOPC    C123821   1.148   1.808   8.897 -0.0376  0.1701 -0.5091
  193DOPC    HA23822   1.087   1.887   8.849 -2.4622 -0.4117  1.3924
  193DOPC    HB23823   1.255   1.818   8.868  0.1337  2.2852  0.6479
  193DOPC    C223824   1.144   1.835   9.056  0.2906  0.0902 -0.4518
  193DOPC    HS23825   1.172   1.940   9.075 -0.3618  0.6778 -2.4812
  193DOPC   O2123826   1.220   1.753   9.148  0.6446 -0.0674  0.1095
  193DOPC   C2123827   1.356   1.756   9.122 -0.4271 -0.3965  0.5066
  193DOPC   O2223828   1.405   1.807   9.024 -0.1154  0.1382  0.3595
  193DOPC   C2223829   1.441   1.670   9.220  0.1046 -1.0770  0.5559
  193DOPC   H2R23830   1.529   1.732   9.247  0.1202 -2.3541  3.9105
  193DOPC   H2S23831   1.466   1.578   9.164  2.0276 -0.6478  0.6607
  193DOPC    C323832   0.992   1.827   9.107  0.1166 -0.0587  0.5171
  193DOPC    HX23833   0.950   1.725   9.094 -2.6070  1.0853 -0.2460
  193DOPC    HY23834   0.945   1.896   9.035 -0.7504 -2.7930 -1.6711
  193DOPC   O3123835   0.987   1.865   9.244 -0.2860 -0.1677 -0.0474
  193DOPC   C3123836   1.035   1.985   9.285  0.2899 -0.2612  0.5075
  193DOPC   O3223837   1.044   2.083   9.213  0.4298 -0.5355  0.4915
  193DOPC   C3223838   1.050   1.983   9.433 -0.2004  0.2512 -0.0980
  193DOPC   H2X23839   0.949   1.963   9.475 -0.1133  1.6913  0.8817
  193DOPC   H2Y23840   1.125   1.909   9.468  0.2959  1.4485  1.5005
  193DOPC   C2323841   1.376   1.625   9.349 -0.0059  0.4392 -0.3422
  193DOPC   H3R23842   1.298   1.547   9.331  0.8621 -0.8806  1.2551
  193DOPC   H3S23843   1.331   1.706   9.410 -0.2647 -1.9617  2.9855
  193DOPC   C2423844   1.479   1.563   9.441 -0.0590  0.7057 -0.2703
  193DOPC   H4R23845   1.559   1.640   9.452  0.4060  0.3041 -0.7664
  193DOPC   H4S23846   1.532   1.482   9.386  2.3820  0.0917  2.6607
  193DOPC   C2523847   1.424   1.512   9.572 -0.1214 -0.3185 -0.0893
  193DOPC   H5R23848   1.347   1.433   9.556  1.3966 -1.8218 -0.3519
  193DOPC   H5S23849   1.380   1.601   9.621 -2.0412 -0.1471 -1.9597
  193DOPC   C2623850   1.527   1.449   9.669 -0.0287  0.2166  1.2123
  193DOPC   H6R23851   1.613   1.520   9.670 -0.5515  0.8660  1.0451
  193DOPC   H6S23852   1.568   1.360   9.617  0.6999  1.3276 -0.1898
  193DOPC   C2723853   1.483   1.428   9.808  0.7783  0.5547  0.2762
  193DOPC   H7R23854   1.483   1.525   9.862 -2.7598 -0.2636  2.0437
  193DOPC   H7S23855   1.554   1.360   9.860 -0.3895  0.2295  1.5133
  193DOPC   C2823856   1.338   1.368   9.820  0.0053  0.2723 -0.0617
  193DOPC   H8R23857   1.264   1.441   9.781  0.9897  0.6874 -1.2039
  193DOPC   H8S23858   1.316   1.353   9.928  2.9657 -0.8849  0.4806
  193DOPC   C2923859   1.308   1.240   9.744  0.2549 -0.2305 -0.4606
  193DOPC   H9R23860   1.398   1.182   9.721  0.2267  0.0435 -1.2805
  193DOPC  C21023861   1.192   1.183   9.717 -0.9033 -0.0107 -0.8799
  193DOPC  H10R23862   1.187   1.083   9.672 -2.3479  0.3014 -1.4607
  193DOPC  C21123863   1.059   1.245   9.756 -0.3773  0.1502 -0.1885
  193DOPC  H11R23864   0.998   1.266   9.665 -3.5968  1.3775  2.0546
  193DOPC  H11S23865   1.068   1.337   9.817 -0.4715 -0.0246  0.0936
  193DOPC  C21223866   0.979   1.140   9.839 -0.0298 -0.0608 -0.1690
  193DOPC  H12R23867   0.964   1.045   9.784  1.8134 -1.1351  1.0748
  193DOPC  H12S23868   0.876   1.169   9.871 -0.3699 -0.9780 -0.3983
  193DOPC  C21323869   1.040   1.105   9.977 -0.2054 -0.3448 -0.5501
  193DOPC  H13R23870   1.145   1.072   9.959 -0.4802 -1.3243 -0.3931
  193DOPC  H13S23871   0.986   1.012  10.003  0.5933 -1.3564 -2.2950
  193DOPC  C21423872   1.040   1.216  10.074  0.2591  0.1231 -1.2426
  193DOPC  H14R23873   0.940   1.249  10.110  1.3989  1.2258  1.1803
  193DOPC  H14S23874   1.097   1.301  10.030 -0.1686  0.0454 -1.9563
  193DOPC  C21523875   1.118   1.179  10.201  0.8573 -0.3556 -0.1279
  193DOPC  H15R23876   1.220   1.142  10.174  0.6695 -0.8433 -0.1842
  193DOPC  H15S23877   1.069   1.094  10.253  0.7624 -0.3334 -0.1820
  193DOPC  C21623878   1.136   1.293  10.297 -0.7100 -0.2398 -0.3369
  193DOPC  H16R23879   1.040   1.314  10.348 -0.3601 -3.0219  1.6736
  193DOPC  H16S23880   1.182   1.383  10.249 -0.1415  1.6457  3.3515
  193DOPC  C21723881   1.217   1.240  10.415  0.2102  0.1620  0.3527
  193DOPC  H17R23882   1.319   1.217  10.376 -0.3833 -0.0303 -1.1387
  193DOPC  H17S23883   1.179   1.148  10.462 -0.3163  1.3263  2.3005
  193DOPC  C21823884   1.226   1.340  10.525 -0.3878 -0.4557 -0.0847
  193DOPC  H18R23885   1.237   1.442  10.481 -0.3486  1.3152  3.6350
  193DOPC  H18S23886   1.307   1.325  10.600 -1.2979 -0.5074  0.9253
  193DOPC  H18T23887   1.127   1.346  10.575  0.0984 -0.3114  0.8908
  193DOPC   C3323888   1.097   2.128   9.479  0.7467 -0.7573  0.4862
  193DOPC   H3X23889   1.018   2.204   9.463  0.7177 -1.0733 -0.9402
  193DOPC   H3Y23890   1.178   2.177   9.422  0.1516  1.8056  1.7100
  193DOPC   C3423891   1.120   2.133   9.634 -0.4440  0.1031 -0.0204
  193DOPC   H4X23892   1.205   2.064   9.654 -0.5209  0.4423  1.5981
  193DOPC   H4Y23893   1.022   2.107   9.679  0.3559 -0.9585  1.1613
  193DOPC   C3523894   1.148   2.277   9.691 -0.5875 -0.0375 -0.1506
  193DOPC   H5X23895   1.077   2.353   9.654 -0.6128  0.9200  1.7642
  193DOPC   H5Y23896   1.253   2.304   9.664 -0.5358 -1.0139 -0.9861
  193DOPC   C3623897   1.127   2.283   9.840 -0.0566  0.7488 -1.1681
  193DOPC   H6X23898   1.147   2.387   9.874  0.9069  0.3572 -0.4865
  193DOPC   H6Y23899   1.024   2.254   9.868  0.6318 -0.8134 -0.1224
  193DOPC   C3723900   1.227   2.194   9.929 -0.2508 -0.0332  0.1872
  193DOPC   H7X23901   1.199   2.089   9.909 -0.8129  0.1530 -0.0330
  193DOPC   H7Y23902   1.330   2.205   9.889 -0.5277 -2.2382 -1.3207
  193DOPC   C3823903   1.227   2.228  10.079 -0.2320 -0.6608 -0.4647
  193DOPC   H8X23904   1.267   2.332  10.082 -0.5899 -0.5193 -0.6384
  193DOPC   H8Y23905   1.312   2.181  10.133  0.0265 -0.1026 -0.3717
  193DOPC   C3923906   1.094   2.196  10.150 -0.5932 -0.5436  0.1578
  193DOPC   H9X23907   1.006   2.167  10.090 -0.8355 -2.0501  1.1805
  193DOPC  C31023908   1.074   2.218  10.283  0.3431 -0.2878  0.1842
  193DOPC  H10X23909   0.975   2.224  10.331  0.5886 -2.5958  1.1443
  193DOPC  C31123910   1.178   2.261  10.382  0.2210 -0.3886  0.3294
  193DOPC  H11X23911   1.142   2.337  10.454  1.7231 -1.7168  2.6233
  193DOPC  H11Y23912   1.262   2.309  10.329 -0.7547  0.8398 -0.1323
  193DOPC  C31223913   1.237   2.141  10.473  0.1860  0.0370 -0.0761
  193DOPC  H12X23914   1.327   2.181  10.525 -0.6547  1.7156  0.1408
  193DOPC  H12Y23915   1.255   2.062  10.397  0.2635  0.0893 -0.1125
  193DOPC  C31323916   1.128   2.094  10.563  0.3138  0.1668 -0.1358
  193DOPC  H13X23917   1.029   2.135  10.533 -0.0326  0.1322  0.9321
  193DOPC  H13Y23918   1.104   1.986  10.555  0.0410  0.3371 -2.1195
  193DOPC  C31423919   1.144   2.144  10.704 -0.3582 -0.8107  0.2841
  193DOPC  H14X23920   1.238   2.103  10.745  0.0625 -1.8477 -1.6457
  193DOPC  H14Y23921   1.147   2.255  10.701 -1.0529 -0.7610  0.8716
  193DOPC  C31523922   1.032   2.098  10.801 -0.5181 -0.6361  0.4009
  193DOPC  H15X23923   1.036   1.987  10.798 -2.5010 -0.7361 -2.1467
  193DOPC  H15Y23924   0.935   2.121  10.753  0.9568  1.7457 -1.7239
  193DOPC  C31623925   1.039   2.170  10.935  0.0492  0.3248 -0.0163
  193DOPC  H16X23926   1.143   2.162  10.973 -0.4007  0.1007  1.1975
  193DOPC  H16Y23927   1.018   2.278  10.924 -0.2381  0.3404  0.6653
  193DOPC  C31723928   0.930   2.106  11.018  0.8773  0.7301  0.2614
  193DOPC  H17X23929   0.849   2.175  11.051  1.0741  0.4736  1.3043
  193DOPC  H17Y23930   0.883   2.023  10.961  0.8684  0.3951  0.7454
  193DOPC  C31823931   0.977   2.047  11.155  0.0122  0.8188 -0.4329
  193DOPC  H18X23932   0.896   2.022  11.227 -1.6198  0.1793 -2.3975
  193DOPC  H18Y23933   1.028   1.951  11.132 -0.0443  0.1873  1.8619
  193DOPC  H18Z23934   1.044   2.122  11.202  1.1692 -1.7834  2.4708
  194DOPC     N23935   1.708   6.135   8.870  0.0152  0.2479 -0.2675
  194DOPC   C1223936   1.836   6.173   8.797 -0.6166 -0.1470 -0.9105
  194DOPC  H12A23937   1.885   6.249   8.856 -0.3544 -0.3991 -0.8013
  194DOPC  H12B23938   1.808   6.218   8.702 -2.5804  2.4948  0.7701
  194DOPC   C1323939   1.614   6.250   8.877  0.4236 -0.3154 -0.0300
  194DOPC  H13A23940   1.655   6.324   8.944 -0.1945  0.8999 -0.9593
  194DOPC  H13B23941   1.608   6.283   8.774  0.5878 -0.9208 -0.2411
  194DOPC  H13C23942   1.521   6.212   8.915  1.3020 -2.3499  0.2641
  194DOPC   C1423943   1.742   6.089   9.007  0.7086 -0.2922 -0.4168
  194DOPC  H14A23944   1.659   6.051   9.064  0.8917  1.6497  1.2472
  194DOPC  H14B23945   1.819   6.014   8.997  0.3846 -0.7870  0.6467
  194DOPC  H14C23946   1.776   6.171   9.069 -1.4406  0.0125  0.4425
  194DOPC   C1523947   1.645   6.017   8.805  0.2947  0.1154 -0.2664
  194DOPC  H15A23948   1.546   5.994   8.840  0.6171  1.8909  2.0206
  194DOPC  H15B23949   1.707   5.932   8.830  1.5881  0.0770 -3.1022
  194DOPC  H15C23950   1.641   6.032   8.698 -0.9539 -0.5983 -0.3434
  194DOPC   C1123951   1.945   6.061   8.769  0.0003 -0.7795 -0.0045
  194DOPC  H11A23952   1.894   5.995   8.697 -0.4266 -0.9125  0.4135
  194DOPC  H11B23953   2.026   6.100   8.703 -0.5697 -0.3179 -0.4434
  194DOPC     P23954   2.101   6.068   8.973 -0.0906  0.2540  0.0623
  194DOPC   O1323955   2.108   6.205   8.920  0.0152  1.3058 -0.5074
  194DOPC   O1423956   2.229   5.993   8.982 -0.1955 -0.0707 -0.3545
  194DOPC   O1223957   2.010   5.985   8.871 -0.2170 -0.0175 -0.3593
  194DOPC   O1123958   2.029   6.071   9.110  0.3092  0.0440 -0.4703
  194DOPC    C123959   2.022   6.196   9.195 -0.2503  0.1434  0.6211
  194DOPC    HA23960   1.951   6.180   9.279  0.5951 -0.8339  1.1780
  194DOPC    HB23961   1.983   6.281   9.135  1.4278 -0.1860 -1.0267
  194DOPC    C223962   2.150   6.247   9.257 -0.4859  0.2268  0.0338
  194DOPC    HS23963   2.212   6.278   9.171 -2.5283  2.0365 -0.8631
  194DOPC   O2123964   2.210   6.136   9.338  0.5419 -0.3141 -0.3582
  194DOPC   C2123965   2.341   6.144   9.372  0.1205  0.1666  0.3775
  194DOPC   O2223966   2.427   6.219   9.321 -0.2294 -0.4689  0.4356
  194DOPC   C2223967   2.384   6.050   9.475 -0.0722 -0.2159 -0.6029
  194DOPC   H2R23968   2.473   5.994   9.439  0.0927 -1.5195  1.6914
  194DOPC   H2S23969   2.308   5.973   9.500 -0.3219  0.7997  1.9723
  194DOPC    C323970   2.124   6.363   9.345  0.4239 -0.6157 -0.3798
  194DOPC    HX23971   2.083   6.450   9.289  0.6793 -0.2999 -0.0853
  194DOPC    HY23972   2.223   6.401   9.378 -0.1698  0.6773  0.0167
  194DOPC   O3123973   2.040   6.326   9.462  0.1113  0.4457  0.3367
  194DOPC   C3123974   1.976   6.424   9.518 -0.5341 -0.2288  0.3737
  194DOPC   O3223975   1.987   6.543   9.478  0.8081  0.3235  0.2156
  194DOPC   C3223976   1.885   6.372   9.624 -0.2096 -0.6381  0.0755
  194DOPC   H2X23977   1.814   6.304   9.572  0.0694 -0.3411 -0.7068
  194DOPC   H2Y23978   1.939   6.309   9.698 -1.6995 -2.1851 -0.0937
  194DOPC   C2323979   2.421   6.134   9.600  0.1432 -0.4581 -0.4101
  194DOPC   H3R23980   2.505   6.205   9.587  0.0100 -0.0930  0.6552
  194DOPC   H3S23981   2.452   6.059   9.676 -3.3894  0.1534  1.8627
  194DOPC   C2423982   2.302   6.197   9.663  0.1981  0.0751 -0.3067
  194DOPC   H4R23983   2.232   6.120   9.701 -0.0736 -0.2928 -1.4863
  194DOPC   H4S23984   2.245   6.259   9.591 -3.1390 -0.9543  1.2334
  194DOPC   C2523985   2.345   6.303   9.771 -0.2792 -0.1290  0.3572
  194DOPC   H5R23986   2.402   6.387   9.728 -1.2466  0.9444  1.1165
  194DOPC   H5S23987   2.416   6.252   9.840  2.1441  1.9582 -0.4485
  194DOPC   C2623988   2.230   6.363   9.858 -0.8043  0.2513  0.1424
  194DOPC   H6R23989   2.164   6.281   9.894 -1.4693  1.1619  1.0561
  194DOPC   H6S23990   2.179   6.430   9.785 -0.7636  0.0689 -0.0543
  194DOPC   C2723991   2.283   6.442   9.979 -0.1393  0.6738 -0.3132
  194DOPC   H7R23992   2.357   6.517   9.943 -1.1117  1.0401 -1.5810
  194DOPC   H7S23993   2.339   6.371  10.045 -2.2730  0.1011  0.9873
  194DOPC   C2823994   2.183   6.519  10.060  0.1500 -0.6014  0.6901
  194DOPC   H8R23995   2.108   6.444  10.096  0.1766 -0.2838  1.4275
  194DOPC   H8S23996   2.128   6.588   9.993 -0.6065 -1.1063  0.7800
  194DOPC   C2923997   2.244   6.612  10.161 -0.9218  1.0046 -0.7167
  194DOPC   H9R23998   2.322   6.679  10.120 -0.6013  0.3894 -1.1262
  194DOPC  C21023999   2.221   6.610  10.292 -0.2638 -0.4096 -0.0703
  194DOPC  H10R24000   2.269   6.690  10.351  0.8489 -1.2753  0.2269
  194DOPC  C21124001   2.128   6.511  10.366 -0.4811 -0.1426  0.2851
  194DOPC  H11R24002   2.104   6.428  10.296  0.5037  1.3913 -1.9911
  194DOPC  H11S24003   2.036   6.571  10.377 -1.3793 -1.1078 -1.5973
  194DOPC  C21224004   2.187   6.449  10.497  0.2689 -1.0059  0.6364
  194DOPC  H12R24005   2.285   6.406  10.470 -0.9502 -3.5958  0.0695
  194DOPC  H12S24006   2.127   6.364  10.536 -0.1500  0.1250  2.6560
  194DOPC  C21324007   2.212   6.555  10.604 -0.0691  0.3768 -0.9796
  194DOPC  H13R24008   2.265   6.644  10.563  0.7859  0.4114  0.1573
  194DOPC  H13S24009   2.282   6.503  10.673  1.4316  2.6708 -0.6859
  194DOPC  C21424010   2.086   6.601  10.684  0.2761 -0.3171 -0.7163
  194DOPC  H14R24011   2.011   6.525  10.716 -2.2596  1.8688 -1.1148
  194DOPC  H14S24012   2.024   6.644  10.602  1.2349  0.7442 -0.8954
  194DOPC  C21524013   2.124   6.709  10.790  0.6472  1.4631  0.3040
  194DOPC  H15R24014   2.043   6.783  10.810  1.4479  1.8946  2.0328
  194DOPC  H15S24015   2.202   6.776  10.747  1.0687  1.8358  1.6096
  194DOPC  C21624016   2.165   6.660  10.925  0.4844  0.0770  0.4002
  194DOPC  H16R24017   2.234   6.732  10.974 -0.7988  2.1542 -0.6773
  194DOPC  H16S24018   2.214   6.561  10.925 -0.6667 -0.5080  0.5594
  194DOPC  C21724019   2.050   6.624  11.012  0.0684 -0.4270 -0.1772
  194DOPC  H17R24020   1.985   6.545  10.968 -1.9099  1.0849 -0.1456
  194DOPC  H17S24021   1.986   6.715  11.020  1.1565  0.4100 -0.6731
  194DOPC  C21824022   2.070   6.559  11.150  0.7073 -0.1363 -0.1656
  194DOPC  H18R24023   1.995   6.582  11.229  1.8363  0.2654  0.8305
  194DOPC  H18S24024   2.165   6.596  11.194  0.4683  1.1312 -0.6575
  194DOPC  H18T24025   2.074   6.449  11.135  1.8638 -0.1021 -0.1620
  194DOPC   C3324026   1.819   6.491   9.698  0.1040  0.8015  0.5046
  194DOPC   H3X24027   1.762   6.550   9.623  1.8816 -0.0119 -1.6116
  194DOPC   H3Y24028   1.900   6.559   9.730  1.6535 -1.9600  2.9265
  194DOPC   C3424029   1.736   6.442   9.816  0.7660  0.1194  0.0384
  194DOPC   H4X24030   1.664   6.366   9.778  0.5112  1.1888 -1.7607
  194DOPC   H4Y24031   1.668   6.526   9.844  0.6447 -0.4314  1.5136
  194DOPC   C3524032   1.816   6.407   9.935  0.0921  0.4387  0.2447
  194DOPC   H5X24033   1.886   6.491   9.960  1.6713 -0.2793 -1.5411
  194DOPC   H5Y24034   1.890   6.327   9.913 -0.5874 -0.3914  0.9310
  194DOPC   C3624035   1.728   6.379  10.057  0.2885 -0.5250 -0.3709
  194DOPC   H6X24036   1.648   6.455  10.058  0.1854 -0.5889 -1.6508
  194DOPC   H6Y24037   1.685   6.277  10.046  0.1311 -0.3498 -1.4844
  194DOPC   C3724038   1.800   6.376  10.192 -0.4124 -0.3373  0.1528
  194DOPC   H7X24039   1.875   6.294  10.180 -0.5903 -0.2919 -1.6006
  194DOPC   H7Y24040   1.845   6.477  10.206 -0.8255 -0.2511  0.9110
  194DOPC   C3824041   1.702   6.349  10.311 -0.4688  0.4994 -0.1487
  194DOPC   H8X24042   1.625   6.273  10.282  0.0280 -0.1294  0.1574
  194DOPC   H8Y24043   1.644   6.442  10.328  1.3265  1.1940  2.9527
  194DOPC   C3924044   1.790   6.295  10.428  0.2372  0.0092 -0.5867
  194DOPC   H9X24045   1.870   6.226  10.398 -0.8523 -0.9216 -1.4505
  194DOPC  C31024046   1.774   6.324  10.556  0.6136  0.5795 -0.0039
  194DOPC  H10X24047   1.830   6.260  10.626 -1.5979 -1.8606 -0.3208
  194DOPC  C31124048   1.663   6.403  10.615  0.0005 -0.0086  0.1999
  194DOPC  H11X24049   1.574   6.405  10.548 -1.0949  0.0904  1.6141
  194DOPC  H11Y24050   1.701   6.500  10.652 -1.5326  1.3126 -1.4916
  194DOPC  C31224051   1.624   6.310  10.735 -0.3807 -0.3880 -0.8105
  194DOPC  H12X24052   1.626   6.202  10.709  0.1621 -0.1991 -1.5997
  194DOPC  H12Y24053   1.519   6.318  10.771  0.3561 -1.7133  1.9014
  194DOPC  C31324054   1.709   6.336  10.866 -0.0314 -0.0026 -0.0063
  194DOPC  H13X24055   1.818   6.328  10.844  0.4526  1.2494  1.7575
  194DOPC  H13Y24056   1.704   6.443  10.895  0.5004  0.1307 -0.3862
  194DOPC  C31424057   1.679   6.252  10.996 -0.0028 -0.2007 -0.4414
  194DOPC  H14X24058   1.577   6.288  11.022  1.0035  1.7034  1.1874
  194DOPC  H14Y24059   1.668   6.142  10.982  0.4715 -0.7673  2.7885
  194DOPC  C31524060   1.767   6.301  11.117 -0.4360  0.1697  0.6207
  194DOPC  H15X24061   1.791   6.410  11.120  2.0612 -0.3351  1.4929
  194DOPC  H15Y24062   1.860   6.247  11.089 -0.7660 -0.0447 -0.0887
  194DOPC  C31624063   1.717   6.253  11.252 -0.1467  0.7078  1.0763
  194DOPC  H16X24064   1.616   6.291  11.276  0.1227  1.1108  1.5866
  194DOPC  H16Y24065   1.715   6.142  11.242  1.5796  0.4032  3.1957
  194DOPC  C31724066   1.806   6.278  11.370  0.6115 -0.4438  0.3586
  194DOPC  H17X24067   1.801   6.205  11.454 -0.9407  1.1878  1.7695
  194DOPC  H17Y24068   1.912   6.269  11.337  0.4943  0.9908 -0.4920
  194DOPC  C31824069   1.797   6.416  11.424 -0.2628 -0.4110 -0.2454
  194DOPC  H18X24070   1.881   6.423  11.497  0.3722  1.0101 -1.0612
  194DOPC  H18Y24071   1.824   6.500  11.356 -0.1987 -0.7842 -0.6794
  194DOPC  H18Z24072   1.708   6.439  11.486  0.2139  0.2312  0.2189
  195DOPC     N24073   6.535   0.195   8.767  0.5765 -0.0882 -0.2120
  195DOPC   C1224074   6.434   0.228   8.867  0.8362 -0.8941 -0.0838
  195DOPC  H12A24075   6.451   0.330   8.899 -0.1574 -0.4390 -0.9425
  195DOPC  H12B24076   6.451   0.181   8.962  1.5094  0.1450  0.3218
  195DOPC   C1324077   6.521   0.046   8.741  0.9551  0.0266  0.2685
  195DOPC  H13A24078   6.414   0.045   8.728  0.6788  2.6076  1.7442
  195DOPC  H13B24079   6.573   0.004   8.656 -0.6135 -2.1572  0.3264
  195DOPC  H13C24080   6.543  -0.006   8.833 -3.2129  0.1427  1.5153
  195DOPC   C1424081   6.674   0.222   8.824 -0.0287 -0.2844 -0.0198
  195DOPC  H14A24082   6.678   0.205   8.930 -1.3721 -1.6608 -0.1498
  195DOPC  H14B24083   6.747   0.169   8.765  0.7375  1.4074 -0.6571
  195DOPC  H14C24084   6.703   0.326   8.821  1.6236 -0.6428  1.7424
  195DOPC   C1524085   6.513   0.273   8.638  0.0228  0.3036  0.3201
  195DOPC  H15A24086   6.526   0.377   8.662  2.5544 -0.2386  1.6334
  195DOPC  H15B24087   6.414   0.253   8.597  0.2750 -0.2565 -0.0282
  195DOPC  H15C24088   6.590   0.247   8.567  0.2609  1.0517  0.2941
  195DOPC   C1124089   6.283   0.211   8.837  0.7480  0.5573 -0.0055
  195DOPC  H11A24090   6.220   0.282   8.895  3.6150  2.2891  1.1973
  195DOPC  H11B24091   6.255   0.251   8.737 -3.4216  0.9212  1.1012
  195DOPC     P24092   6.238   0.015   8.990  0.1853  0.0594 -0.4565
  195DOPC   O1324093   6.361  -0.061   8.997  0.1894 -0.2683  0.2693
  195DOPC   O1424094   6.117  -0.070   9.005 -0.2781 -0.6262  0.0561
  195DOPC   O1224095   6.237   0.079   8.850 -0.2467  0.0731  0.2350
  195DOPC   O1124096   6.242   0.121   9.108  0.0420 -0.0827  0.1558
  195DOPC    C124097   6.125   0.200   9.132  0.1315  0.1536  0.6038
  195DOPC    HA24098   6.041   0.176   9.064  1.5620 -0.8874 -0.8925
  195DOPC    HB24099   6.152   0.306   9.113 -0.1328 -0.1046 -1.4355
  195DOPC    C224100   6.066   0.181   9.275 -0.7887 -0.6576 -0.4184
  195DOPC    HS24101   5.984   0.255   9.288  0.7376  0.8197  1.3817
  195DOPC   O2124102   6.166   0.202   9.378  0.5402  0.0482 -0.3542
  195DOPC   C2124103   6.199   0.322   9.390 -0.0804 -0.5324 -0.4003
  195DOPC   O2224104   6.159   0.423   9.332 -0.9613 -0.1554  0.5746
  195DOPC   C2224105   6.282   0.335   9.518  0.3628  0.4702 -0.1164
  195DOPC   H2R24106   6.330   0.435   9.509 -0.6923  1.1454  1.3966
  195DOPC   H2S24107   6.361   0.257   9.503 -0.0880 -0.0464  0.1625
  195DOPC    C324108   6.009   0.039   9.310 -0.2367  0.5493  0.3244
  195DOPC    HX24109   6.097  -0.026   9.329 -0.9341 -1.0410 -1.6296
  195DOPC    HY24110   5.951  -0.006   9.227  1.6854  1.4619 -1.6487
  195DOPC   O3124111   5.935   0.050   9.432  0.6725  0.0849  0.0860
  195DOPC   C3124112   5.814   0.092   9.415  0.0742 -0.6702 -0.1276
  195DOPC   O3224113   5.762   0.125   9.309 -0.2970  0.3114 -0.3671
  195DOPC   C3224114   5.738   0.093   9.552 -0.2087 -0.4343 -0.3277
  195DOPC   H2X24115   5.652   0.163   9.539 -0.1037 -0.2346  0.0578
  195DOPC   H2Y24116   5.695  -0.006   9.576 -3.0052  0.5534 -0.8645
  195DOPC   C2324117   6.204   0.316   9.642  0.3429 -0.5819 -0.2928
  195DOPC   H3R24118   6.278   0.294   9.722  2.9544  1.3500 -1.9912
  195DOPC   H3S24119   6.132   0.232   9.629 -0.4105 -0.7665  3.6598
  195DOPC   C2424120   6.114   0.434   9.668 -0.5985 -0.0638 -0.5196
  195DOPC   H4R24121   6.052   0.452   9.577 -1.1922  4.5510  0.5553
  195DOPC   H4S24122   6.164   0.533   9.674 -0.0937 -0.3553  0.1499
  195DOPC   C2524123   6.025   0.423   9.793 -0.2007 -0.3744  0.1094
  195DOPC   H5R24124   5.994   0.316   9.799  1.5007 -0.9082 -0.0685
  195DOPC   H5S24125   5.930   0.480   9.783 -0.8141 -1.5657 -1.1262
  195DOPC   C2624126   6.106   0.473   9.914 -0.2772  0.2595  0.2433
  195DOPC   H6R24127   6.136   0.578   9.896 -0.1960 -0.1686 -2.8031
  195DOPC   H6S24128   6.202   0.417   9.922 -1.1016 -1.2951 -0.1893
  195DOPC   C2724129   6.029   0.475  10.053  0.0800 -0.2948  0.4934
  195DOPC   H7R24130   6.004   0.371  10.083  2.0150 -0.8255  0.4384
  195DOPC   H7S24131   5.940   0.537  10.029 -0.4669 -2.0624 -2.6319
  195DOPC   C2824132   6.119   0.547  10.162 -0.1302 -0.1154  0.0621
  195DOPC   H8R24133   6.167   0.641  10.126 -0.7381  1.3738  2.8241
  195DOPC   H8S24134   6.198   0.471  10.178 -0.1730 -1.0350 -3.4266
  195DOPC   C2924135   6.027   0.596  10.271 -0.1407  0.0640 -0.7621
  195DOPC   H9R24136   5.961   0.680  10.244  1.6552  2.2148  1.1265
  195DOPC  C21024137   6.016   0.537  10.392 -0.0893  0.4380  0.0950
  195DOPC  H10R24138   5.953   0.593  10.463  0.7177  2.4187 -0.6920
  195DOPC  C21124139   6.102   0.430  10.444 -0.0897 -0.1129 -0.0372
  195DOPC  H11R24140   6.195   0.416  10.384  0.6151 -0.5985  1.1432
  195DOPC  H11S24141   6.049   0.335  10.421  0.2800 -0.3064 -0.1034
  195DOPC  C21224142   6.150   0.448  10.589 -0.0492  0.2655  0.0624
  195DOPC  H12R24143   6.207   0.541  10.607  0.8803 -0.0875 -0.9581
  195DOPC  H12S24144   6.214   0.359  10.611 -0.5632  0.2419  1.5978
  195DOPC  C21324145   6.040   0.433  10.686 -0.3089 -0.7806 -0.5164
  195DOPC  H13R24146   5.977   0.346  10.655 -0.4844  0.0565 -2.7214
  195DOPC  H13S24147   5.972   0.521  10.684  0.0751 -0.4759 -0.2389
  195DOPC  C21424148   6.088   0.414  10.833  0.4573 -0.2758  0.5238
  195DOPC  H14R24149   6.136   0.508  10.866  1.6889 -0.1602 -1.3905
  195DOPC  H14S24150   6.164   0.333  10.836  0.5673 -0.2301 -0.4692
  195DOPC  C21524151   5.976   0.372  10.928 -0.5000  0.2248 -0.1194
  195DOPC  H15R24152   5.927   0.277  10.900  0.2751 -0.2043 -0.0606
  195DOPC  H15S24153   5.885   0.435  10.926 -0.8123 -0.0867  1.9441
  195DOPC  C21624154   6.024   0.352  11.073  1.0854  0.2628 -0.4244
  195DOPC  H16R24155   6.085   0.442  11.098 -1.6178  2.0335  0.1938
  195DOPC  H16S24156   6.087   0.261  11.066  1.7208  0.7593 -1.4452
  195DOPC  C21724157   5.901   0.340  11.163 -0.5012  0.4238 -0.2975
  195DOPC  H17R24158   5.867   0.235  11.151 -2.0403  1.0024 -1.2629
  195DOPC  H17S24159   5.818   0.408  11.133  0.9271  3.4242  1.9959
  195DOPC  C21824160   5.938   0.365  11.309 -0.3333 -0.1213  0.2010
  195DOPC  H18R24161   5.847   0.371  11.372 -0.9232 -0.6962 -0.5808
  195DOPC  H18S24162   5.997   0.459  11.317 -1.2287  0.6250 -1.3865
  195DOPC  H18T24163   6.000   0.278  11.340  0.2937  0.4912  0.6922
  195DOPC   C3324164   5.811   0.161   9.662 -0.9375 -0.5350  0.3099
  195DOPC   H3X24165   5.816   0.272   9.652 -2.6353 -0.2818  1.7964
  195DOPC   H3Y24166   5.913   0.118   9.669  0.7719  2.9164 -0.8233
  195DOPC   C3424167   5.741   0.141   9.798  0.1495  0.3008  0.5394
  195DOPC   H4X24168   5.630   0.146   9.796  0.1248  0.0658  1.0933
  195DOPC   H4Y24169   5.778   0.224   9.861  0.4466  1.4480 -1.0920
  195DOPC   C3524170   5.790   0.009   9.870 -0.6598  0.2588  0.0766
  195DOPC   H5X24171   5.901   0.015   9.867 -0.6926  0.7392 -0.6071
  195DOPC   H5Y24172   5.766  -0.076   9.803  3.1775 -0.6404 -0.3617
  195DOPC   C3624173   5.741  -0.008  10.013  0.7720  0.5249 -0.2126
  195DOPC   H6X24174   5.631   0.008  10.016  0.9998  2.6480 -1.2685
  195DOPC   H6Y24175   5.774  -0.108  10.050  1.7458  1.5679  1.9422
  195DOPC   C3724176   5.816   0.063  10.124 -0.4746  0.0277  0.4899
  195DOPC   H7X24177   5.832  -0.007  10.209  1.1566  1.8209  1.7426
  195DOPC   H7Y24178   5.917   0.099  10.094 -0.1209 -1.4649 -0.2147
  195DOPC   C3824179   5.738   0.184  10.184 -0.5101  0.0515  0.4996
  195DOPC   H8X24180   5.636   0.151  10.212 -0.9504 -0.8074 -1.9053
  195DOPC   H8Y24181   5.721   0.265  10.110  0.4633 -0.7643 -0.6584
  195DOPC   C3924182   5.806   0.246  10.297 -0.8027 -0.7449  0.5449
  195DOPC   H9X24183   5.899   0.298  10.269 -1.8210  0.8543 -0.0310
  195DOPC  C31024184   5.769   0.218  10.426 -0.3866 -0.2261  0.1844
  195DOPC  H10X24185   5.818   0.269  10.510 -1.4668 -0.6233  1.0712
  195DOPC  C31124186   5.663   0.124  10.479  0.1530 -0.0322  0.3392
  195DOPC  H11X24187   5.603   0.083  10.395 -0.1681  1.7917 -0.3669
  195DOPC  H11Y24188   5.595   0.176  10.550 -1.0021 -1.9476  0.6878
  195DOPC  C31224189   5.715  -0.002  10.546  0.2445 -0.2710 -0.2357
  195DOPC  H12X24190   5.801  -0.047  10.493 -0.4121  1.5947 -3.0619
  195DOPC  H12Y24191   5.639  -0.083  10.546  0.5730 -0.6020 -1.4746
  195DOPC  C31324192   5.750   0.025  10.697  0.0304  0.1282  0.5812
  195DOPC  H13X24193   5.793  -0.071  10.734  0.2070 -0.1538 -0.3277
  195DOPC  H13Y24194   5.817   0.113  10.696  0.8370 -0.4743  0.8393
  195DOPC  C31424195   5.629   0.058  10.780  0.4299 -0.3972  0.6339
  195DOPC  H14X24196   5.578   0.151  10.745  1.7401 -0.1809 -0.7996
  195DOPC  H14Y24197   5.561  -0.030  10.781 -0.9489  0.5482 -1.5132
  195DOPC  C31524198   5.669   0.087  10.923  0.5564 -0.5304 -0.0266
  195DOPC  H15X24199   5.744   0.169  10.912 -1.0275  0.8131 -1.1779
  195DOPC  H15Y24200   5.721  -0.003  10.961 -0.1709 -1.1190 -0.4143
  195DOPC  C31624201   5.551   0.129  11.014 -0.0218 -0.2717  0.0392
  195DOPC  H16X24202   5.513   0.227  10.978 -1.7895 -0.9690 -0.1232
  195DOPC  H16Y24203   5.471   0.053  10.997 -0.4652  0.4379 -1.1874
  195DOPC  C31724204   5.583   0.133  11.163  0.1613  0.1905  0.3981
  195DOPC  H17X24205   5.649   0.048  11.192 -2.1088 -1.6937  0.3120
  195DOPC  H17Y24206   5.641   0.225  11.189  0.4855 -0.3944  1.8409
  195DOPC  C31824207   5.457   0.133  11.253  0.8872  0.8088 -0.8803
  195DOPC  H18X24208   5.390   0.049  11.226  1.2059  0.7869 -1.6372
  195DOPC  H18Y24209   5.485   0.105  11.356  1.6225 -0.2797 -1.3560
  195DOPC  H18Z24210   5.390   0.221  11.245 -1.2077 -0.5225  0.8118
  196DOPC     N24211   2.434   1.926   8.848 -0.1134 -0.0279 -0.1848
  196DOPC   C1224212   2.519   1.913   8.970 -0.7767  0.6285  0.1834
  196DOPC  H12A24213   2.492   1.993   9.038  1.2261  0.1861  1.6254
  196DOPC  H12B24214   2.621   1.935   8.943 -1.0624 -1.0205 -2.5901
  196DOPC   C1324215   2.285   1.897   8.882  0.8098  0.4932 -0.1221
  196DOPC  H13A24216   2.223   1.901   8.794  1.4310  0.6203 -0.5669
  196DOPC  H13B24217   2.270   1.801   8.929 -0.8069  0.6951 -0.1885
  196DOPC  H13C24218   2.250   1.968   8.954  0.6300  0.5884 -0.3052
  196DOPC   C1424219   2.482   1.833   8.737  0.5028 -0.7006  0.3867
  196DOPC  H14A24220   2.417   1.828   8.651  2.3432 -0.3753 -1.1024
  196DOPC  H14B24221   2.580   1.860   8.700  0.0316 -1.5236 -1.6211
  196DOPC  H14C24222   2.487   1.732   8.773  0.0482 -0.9845 -0.3258
  196DOPC   C1524223   2.437   2.068   8.801  0.2850 -0.5437 -0.1358
  196DOPC  H15A24224   2.531   2.078   8.749  1.2029 -0.1630  1.5269
  196DOPC  H15B24225   2.431   2.144   8.877 -0.8356 -0.9658  0.2209
  196DOPC  H15C24226   2.352   2.091   8.739  0.5098  1.0967  0.1267
  196DOPC   C1124227   2.515   1.775   9.041 -0.2764  0.0051 -0.5083
  196DOPC  H11A24228   2.561   1.795   9.140 -0.1825  1.6566 -0.8449
  196DOPC  H11B24229   2.411   1.735   9.043 -0.4794  0.5578  0.5713
  196DOPC     P24230   2.750   1.683   8.962  0.3646  0.4018  0.1995
  196DOPC   O1324231   2.786   1.811   8.897  0.5592  0.3719  0.1378
  196DOPC   O1424232   2.795   1.564   8.884 -0.7997  0.3051 -0.1378
  196DOPC   O1224233   2.592   1.670   8.975 -0.3038 -0.3613 -0.3658
  196DOPC   O1124234   2.805   1.685   9.109  0.4009 -0.2654  0.3622
  196DOPC    C124235   2.761   1.601   9.214 -0.1691  0.5326 -0.0969
  196DOPC    HA24236   2.826   1.510   9.216 -1.4073 -0.3698  1.9012
  196DOPC    HB24237   2.656   1.567   9.200  0.9124 -2.8471 -1.2635
  196DOPC    C224238   2.773   1.665   9.350  0.1648  0.3792  0.4787
  196DOPC    HS24239   2.695   1.744   9.355 -0.9780 -0.7746  1.3515
  196DOPC   O2124240   2.903   1.724   9.358 -0.5877  0.6453  0.0540
  196DOPC   C2124241   2.907   1.842   9.426 -0.1725  0.5572 -0.5003
  196DOPC   O2224242   2.812   1.907   9.459  0.0671 -0.2379 -0.1412
  196DOPC   C2224243   3.058   1.892   9.456 -0.3152  0.0954  0.3065
  196DOPC   H2R24244   3.073   1.995   9.419  0.0631  0.0078  0.2104
  196DOPC   H2S24245   3.143   1.843   9.404  1.1842  3.2461 -0.4402
  196DOPC    C324246   2.741   1.566   9.466 -0.0014 -0.5913  0.2857
  196DOPC    HX24247   2.822   1.492   9.449  1.6995  1.4532 -0.9898
  196DOPC    HY24248   2.646   1.510   9.452  1.0923 -2.7763  1.1272
  196DOPC   O3124249   2.757   1.632   9.593 -0.5037 -0.0440  1.0820
  196DOPC   C3124250   2.651   1.709   9.628  0.5966  0.3063  0.9075
  196DOPC   O3224251   2.540   1.703   9.582 -0.0462 -0.2147  0.4106
  196DOPC   C3224252   2.683   1.792   9.752 -0.4547 -0.6548 -0.4936
  196DOPC   H2X24253   2.745   1.881   9.727  0.0138 -0.1763  2.0469
  196DOPC   H2Y24254   2.587   1.827   9.794  0.2808 -1.0010  1.6222
  196DOPC   C2324255   3.083   1.875   9.605 -0.1670 -0.3146  0.3008
  196DOPC   H3R24256   3.077   1.766   9.628  0.9608 -0.8403 -1.6899
  196DOPC   H3S24257   3.016   1.934   9.671 -0.8324 -1.3050  0.5428
  196DOPC   C2424258   3.225   1.911   9.650  0.2217  0.4464  0.7888
  196DOPC   H4R24259   3.240   2.020   9.633  0.4628  0.6951  2.4749
  196DOPC   H4S24260   3.291   1.853   9.582 -2.3887 -2.0994  0.2188
  196DOPC   C2524261   3.266   1.868   9.794  0.0807 -0.3670  0.0583
  196DOPC   H5R24262   3.243   1.760   9.807  1.1711 -0.4106  2.0092
  196DOPC   H5S24263   3.211   1.920   9.875 -3.0504 -1.6514 -1.0868
  196DOPC   C2624264   3.411   1.890   9.827 -0.7044  0.6042  0.7552
  196DOPC   H6R24265   3.425   1.999   9.844  2.1541  0.5498 -0.7662
  196DOPC   H6S24266   3.470   1.864   9.737 -0.4899  1.6328  0.5885
  196DOPC   C2724267   3.465   1.805   9.950 -0.0112  0.4719  0.6907
  196DOPC   H7R24268   3.572   1.780   9.930 -1.0502 -1.4184 -3.6687
  196DOPC   H7S24269   3.410   1.710   9.960 -0.8401  0.8205 -0.3858
  196DOPC   C2824270   3.451   1.876  10.085  0.4045 -0.9096  0.4520
  196DOPC   H8R24271   3.342   1.895  10.097 -0.0457 -1.8752 -1.7043
  196DOPC   H8S24272   3.507   1.971  10.075  0.9464 -1.2959 -0.3286
  196DOPC   C2924273   3.515   1.818  10.211  0.4323  0.3727 -0.8137
  196DOPC   H9R24274   3.624   1.808  10.206  0.9057  2.1764  2.6817
  196DOPC  C21024275   3.453   1.801  10.332 -0.4368  0.3100 -0.3511
  196DOPC  H10R24276   3.514   1.774  10.420  0.7510 -0.3710 -1.3643
  196DOPC  C21124277   3.310   1.826  10.354  0.0832  0.3374 -0.6499
  196DOPC  H11R24278   3.252   1.818  10.259 -1.3331 -0.8095  0.2588
  196DOPC  H11S24279   3.292   1.922  10.406 -0.5956 -0.4270  0.6100
  196DOPC  C21224280   3.249   1.725  10.458  0.0261  0.6649  0.3657
  196DOPC  H12R24281   3.260   1.621  10.421 -3.4233 -0.3242  1.6948
  196DOPC  H12S24282   3.139   1.742  10.454 -0.1901 -0.7708 -2.1494
  196DOPC  C21324283   3.301   1.729  10.606 -0.1031  0.8188  0.3145
  196DOPC  H13R24284   3.411   1.716  10.605 -0.1135  0.4648  2.0574
  196DOPC  H13S24285   3.252   1.642  10.655  0.7326  2.3883  4.2375
  196DOPC  C21424286   3.280   1.860  10.686  0.2284  0.6148 -0.8837
  196DOPC  H14R24287   3.196   1.847  10.757  1.5078  2.0012  0.9528
  196DOPC  H14S24288   3.243   1.943  10.622 -0.6055  1.2451  0.3819
  196DOPC  C21524289   3.401   1.894  10.767  0.8151  0.1942  0.3365
  196DOPC  H15R24290   3.398   1.999  10.803 -2.8812  0.4418 -0.2913
  196DOPC  H15S24291   3.498   1.891  10.712  1.1426  1.6381  0.8031
  196DOPC  C21624292   3.393   1.808  10.895  0.1993 -0.2948  0.2673
  196DOPC  H16R24293   3.387   1.703  10.859  0.9691 -0.5094  0.7324
  196DOPC  H16S24294   3.302   1.829  10.954 -1.0980  0.3772 -1.8821
  196DOPC  C21724295   3.518   1.824  10.973 -0.1407  0.3692  0.3074
  196DOPC  H17R24296   3.524   1.925  11.019 -1.5454 -0.1313  1.7027
  196DOPC  H17S24297   3.601   1.812  10.901  0.8224 -2.0936  1.7134
  196DOPC  C21824298   3.533   1.721  11.087 -0.5215 -0.1568 -0.4661
  196DOPC  H18R24299   3.548   1.619  11.047  1.9868  0.0847 -0.2862
  196DOPC  H18S24300   3.447   1.724  11.157  0.3248 -0.0726  0.5979
  196DOPC  H18T24301   3.630   1.737  11.138  1.2139 -1.5813 -3.0731
  196DOPC   C3324302   2.761   1.716   9.855  0.2218  0.6159 -0.8952
  196DOPC   H3X24303   2.871   1.736   9.851  1.2053 -3.5495  0.2966
  196DOPC   H3Y24304   2.761   1.606   9.845  1.3239  0.6557 -1.5472
  196DOPC   C3424305   2.721   1.742  10.001 -0.5705  0.3193  0.1212
  196DOPC   H4X24306   2.613   1.729  10.022 -0.2381 -2.1273  0.5544
  196DOPC   H4Y24307   2.741   1.850  10.021 -1.2420  0.3913  0.4335
  196DOPC   C3524308   2.796   1.661  10.113  0.0898 -0.0047  0.7127
  196DOPC   H5X24309   2.904   1.684  10.100 -0.3159  0.8688 -1.7431
  196DOPC   H5Y24310   2.781   1.552  10.098  0.6127 -0.0321  0.3689
  196DOPC   C3624311   2.762   1.691  10.256 -0.3105 -0.1549  0.5369
  196DOPC   H6X24312   2.766   1.802  10.261 -0.0878 -0.1322 -0.0584
  196DOPC   H6Y24313   2.659   1.663  10.286 -1.2859  3.0116  0.5803
  196DOPC   C3724314   2.858   1.626  10.358 -0.8905  0.4542 -0.2129
  196DOPC   H7X24315   2.882   1.518  10.349 -1.2708  0.3283  0.2524
  196DOPC   H7Y24316   2.952   1.683  10.340  0.0223 -0.8552  0.2787
  196DOPC   C3824317   2.818   1.648  10.510  0.6418  0.1852  0.3440
  196DOPC   H8X24318   2.798   1.754  10.537 -0.9286  0.1190 -0.4716
  196DOPC   H8Y24319   2.909   1.613  10.564 -0.7368 -2.6604  1.0605
  196DOPC   C3924320   2.704   1.561  10.562 -0.4145  0.3520  0.6648
  196DOPC   H9X24321   2.602   1.595  10.536 -1.7363 -2.2107  2.1462
  196DOPC  C31024322   2.704   1.467  10.653  0.6385  1.0589 -0.1325
  196DOPC  H10X24323   2.611   1.417  10.686 -0.5887  2.3950 -1.3885
  196DOPC  C31124324   2.823   1.412  10.729 -0.3331  0.3354  0.5033
  196DOPC  H11X24325   2.910   1.461  10.682 -1.7129  1.2515 -1.2045
  196DOPC  H11Y24326   2.842   1.305  10.708 -0.7760  0.6305 -1.6616
  196DOPC  C31224327   2.829   1.449  10.877 -0.5003 -0.1399 -0.6149
  196DOPC  H12X24328   2.818   1.559  10.890 -1.2701 -0.0930 -1.5484
  196DOPC  H12Y24329   2.928   1.425  10.920 -0.3510 -1.0059 -1.4226
  196DOPC  C31324330   2.721   1.385  10.957  0.2281  0.2845 -0.0748
  196DOPC  H13X24331   2.626   1.440  10.938  0.5969  0.4187 -1.6572
  196DOPC  H13Y24332   2.713   1.277  10.937 -1.8164  0.7051 -1.8769
  196DOPC  C31424333   2.752   1.381  11.107  0.3476 -1.2584 -0.6578
  196DOPC  H14X24334   2.859   1.352  11.120  0.0682 -1.8106  0.5372
  196DOPC  H14Y24335   2.737   1.476  11.163  0.3717 -1.7793  0.2403
  196DOPC  C31524336   2.670   1.273  11.186 -0.5015 -0.0168 -0.4982
  196DOPC  H15X24337   2.711   1.170  11.176  0.1687  0.1273  0.6550
  196DOPC  H15Y24338   2.567   1.290  11.149  0.1835 -0.2920 -2.6590
  196DOPC  C31624339   2.685   1.296  11.336 -0.6149  0.4402  0.0945
  196DOPC  H16X24340   2.791   1.274  11.362 -1.0190 -0.7652  0.7705
  196DOPC  H16Y24341   2.655   1.398  11.368  2.1251  2.0173 -1.9381
  196DOPC  C31724342   2.598   1.196  11.413 -0.2848 -0.5971  0.4013
  196DOPC  H17X24343   2.498   1.199  11.364  0.3024  0.5956 -0.7873
  196DOPC  H17Y24344   2.640   1.096  11.391 -0.2681 -0.5018 -0.0136
  196DOPC  C31824345   2.592   1.223  11.570 -0.3047  0.4195 -0.2615
  196DOPC  H18X24346   2.690   1.244  11.617 -0.6386  0.8818  0.2408
  196DOPC  H18Y24347   2.536   1.317  11.589  2.2966  1.6317  2.1732
  196DOPC  H18Z24348   2.534   1.143  11.620  1.2036 -0.8004 -0.3750
  197DOPC     N24349   1.668   0.235   8.882  0.8193 -0.1215  0.3944
  197DOPC   C1224350   1.562   0.169   8.974  0.0187  0.8213  0.0282
  197DOPC  H12A24351   1.543   0.073   8.931 -1.1435  1.1349 -0.2137
  197DOPC  H12B24352   1.462   0.210   8.974 -0.9023 -1.2996 -0.7071
  197DOPC   C1324353   1.633   0.226   8.736  0.3933  0.4431  0.2067
  197DOPC  H13A24354   1.607   0.123   8.715  1.2356  0.2806 -0.1055
  197DOPC  H13B24355   1.545   0.287   8.727 -1.5331 -1.8744  2.0018
  197DOPC  H13C24356   1.712   0.256   8.668 -1.0511  1.3315 -1.1369
  197DOPC   C1424357   1.803   0.179   8.909 -0.2581  0.6132  0.3426
  197DOPC  H14A24358   1.838   0.181   9.011  0.1630 -2.1156  0.3273
  197DOPC  H14B24359   1.800   0.074   8.884  1.5837  0.7659 -0.6956
  197DOPC  H14C24360   1.880   0.221   8.846  1.1620 -0.2638  1.4204
  197DOPC   C1524361   1.670   0.381   8.914 -0.4532 -0.0001 -0.5509
  197DOPC  H15A24362   1.580   0.435   8.888  0.1347  1.3256  0.0930
  197DOPC  H15B24363   1.750   0.434   8.864  2.8221  0.2137  4.3020
  197DOPC  H15C24364   1.674   0.402   9.019  2.4554  1.5900 -0.8592
  197DOPC   C1124365   1.590   0.151   9.128  0.7351  0.4676 -0.8574
  197DOPC  H11A24366   1.518   0.090   9.185  1.1542  0.2346 -0.5685
  197DOPC  H11B24367   1.675   0.080   9.136 -1.1513 -1.7410  0.6349
  197DOPC     P24368   1.489   0.350   9.272  0.3354 -0.2191 -0.1883
  197DOPC   O1324369   1.360   0.358   9.192 -0.1910 -0.1267  0.3769
  197DOPC   O1424370   1.539   0.470   9.336 -0.1274  0.4933 -0.6405
  197DOPC   O1224371   1.608   0.280   9.192 -0.1966  0.5636 -0.1353
  197DOPC   O1124372   1.466   0.234   9.377  0.2227  0.0811 -0.0806
  197DOPC    C124373   1.572   0.190   9.471 -0.2414  0.0206  0.1588
  197DOPC    HA24374   1.666   0.247   9.454 -0.9519  0.7748 -1.5211
  197DOPC    HB24375   1.595   0.084   9.446 -0.7613  0.6841 -3.8244
  197DOPC    C224376   1.535   0.205   9.621 -0.7769  0.1095 -0.0429
  197DOPC    HS24377   1.614   0.162   9.686  1.0569 -0.8618 -2.7464
  197DOPC   O2124378   1.408   0.142   9.659 -0.0020  0.2598  0.1068
  197DOPC   C2124379   1.409   0.014   9.668  0.6270 -0.1374 -0.4060
  197DOPC   O2224380   1.506  -0.055   9.658 -0.2616 -0.0158  0.0264
  197DOPC   C2224381   1.271  -0.044   9.694 -0.5927 -0.2291 -0.3039
  197DOPC   H2R24382   1.230  -0.084   9.599 -0.1096  0.0956 -0.6525
  197DOPC   H2S24383   1.200   0.037   9.723  0.6191  0.3609  1.1020
  197DOPC    C324384   1.523   0.355   9.663  0.2707 -0.0161 -0.0170
  197DOPC    HX24385   1.433   0.402   9.619 -0.6604  0.7435  2.5736
  197DOPC    HY24386   1.607   0.403   9.608 -0.6158  0.3212 -1.1290
  197DOPC   O3124387   1.546   0.369   9.810 -0.2514 -0.4263  0.2961
  197DOPC   C3124388   1.431   0.375   9.884  0.3244  0.0627  0.7458
  197DOPC   O3224389   1.312   0.368   9.844 -0.0900 -0.2113  0.5592
  197DOPC   C3224390   1.468   0.408  10.026  0.1321 -0.1584 -0.4324
  197DOPC   H2X24391   1.577   0.427  10.027 -0.1564  1.7328  0.5945
  197DOPC   H2Y24392   1.408   0.493  10.066 -1.3023 -1.0130 -0.6708
  197DOPC   C2324393   1.276  -0.157   9.802 -0.3403  0.4177  0.1058
  197DOPC   H3R24394   1.355  -0.229   9.773 -1.6343 -0.3212 -1.8194
  197DOPC   H3S24395   1.185  -0.219   9.785 -0.3525  0.1678  1.0354
  197DOPC   C2424396   1.279  -0.112   9.945  0.4687 -0.1228  0.0054
  197DOPC   H4R24397   1.224  -0.187  10.006  0.5490  0.3372  0.6484
  197DOPC   H4S24398   1.231  -0.012   9.946  1.2773  0.4675 -3.8609
  197DOPC   C2524399   1.417  -0.108  10.000  0.4935  1.0498 -0.5266
  197DOPC   H5R24400   1.464  -0.013   9.967  0.2156  1.5898  0.5901
  197DOPC   H5S24401   1.464  -0.203   9.967 -2.6210 -0.9596  0.3521
  197DOPC   C2624402   1.418  -0.109  10.150  0.7721 -0.0231  0.5460
  197DOPC   H6R24403   1.350  -0.025  10.175  0.1929 -0.3474  0.0896
  197DOPC   H6S24404   1.514  -0.076  10.194  0.3676  1.0131  0.6834
  197DOPC   C2724405   1.369  -0.235  10.233 -0.0819 -0.2677 -0.2879
  197DOPC   H7R24406   1.422  -0.326  10.196  1.8593  0.8906 -0.4782
  197DOPC   H7S24407   1.264  -0.255  10.204 -0.4371  0.0669  0.7330
  197DOPC   C2824408   1.368  -0.226  10.384 -0.2480 -0.1195  0.6818
  197DOPC   H8R24409   1.296  -0.144  10.410  0.2165  0.1495  1.1463
  197DOPC   H8S24410   1.463  -0.184  10.423  0.4774  2.9547 -3.6266
  197DOPC   C2924411   1.323  -0.352  10.445 -0.3195 -0.1578  0.4085
  197DOPC   H9R24412   1.339  -0.440  10.381  2.0511  1.3904 -1.3141
  197DOPC  C21024413   1.239  -0.362  10.552 -0.6276 -0.1022  0.1892
  197DOPC  H10R24414   1.218  -0.464  10.589  0.0432  0.2908  1.7429
  197DOPC  C21124415   1.188  -0.260  10.641  0.1194 -0.2041 -0.7963
  197DOPC  H11R24416   1.086  -0.296  10.665  0.2613 -2.2127 -2.9320
  197DOPC  H11S24417   1.181  -0.156  10.603 -0.8387 -0.0433 -0.2282
  197DOPC  C21224418   1.266  -0.241  10.774 -0.1714  1.1242  0.2152
  197DOPC  H12R24419   1.299  -0.341  10.808 -1.8143  0.6048  0.3411
  197DOPC  H12S24420   1.194  -0.202  10.850 -0.4496  0.6103  0.2203
  197DOPC  C21324421   1.389  -0.145  10.766 -0.0463 -0.0599 -0.8905
  197DOPC  H13R24422   1.346  -0.043  10.752 -2.2504 -0.5931  1.2194
  197DOPC  H13S24423   1.461  -0.169  10.685 -0.3304 -1.8153 -0.6523
  197DOPC  C21424424   1.476  -0.141  10.897 -0.1303 -0.4139 -0.1614
  197DOPC  H14R24425   1.574  -0.103  10.862  0.2618 -0.7189  0.5802
  197DOPC  H14S24426   1.489  -0.247  10.927 -2.2000 -0.7481 -0.3121
  197DOPC  C21524427   1.403  -0.075  11.013  0.3672 -0.7145 -0.6762
  197DOPC  H15R24428   1.298  -0.110  11.023 -0.0496 -0.0100 -2.3318
  197DOPC  H15S24429   1.389   0.034  10.993  0.7603 -0.6327 -0.5311
  197DOPC  C21624430   1.481  -0.104  11.143  0.0219 -0.1751  0.4521
  197DOPC  H16R24431   1.512  -0.211  11.144  1.3945  0.2055 -0.3385
  197DOPC  H16S24432   1.416  -0.086  11.232 -1.7785  0.6391 -0.9722
  197DOPC  C21724433   1.608  -0.028  11.180 -0.4149  0.4027  0.3160
  197DOPC  H17R24434   1.688  -0.028  11.104 -1.0993  1.3114 -0.4283
  197DOPC  H17S24435   1.665  -0.072  11.265 -1.3982  0.0679  0.8164
  197DOPC  C21824436   1.587   0.117  11.217 -0.4948  1.0352 -0.2705
  197DOPC  H18R24437   1.518   0.168  11.146 -1.8222 -0.1142  0.1303
  197DOPC  H18S24438   1.687   0.164  11.222  0.1227 -0.2485 -0.1689
  197DOPC  H18T24439   1.534   0.125  11.314 -0.9250 -0.2663 -0.3681
  197DOPC   C3324440   1.426   0.290  10.108 -0.4981  0.3234 -0.6875
  197DOPC   H3X24441   1.446   0.191  10.060 -0.3525 -0.6196  1.2263
  197DOPC   H3Y24442   1.315   0.293  10.110 -0.4839  0.7562 -0.4772
  197DOPC   C3424443   1.475   0.286  10.259  0.2131 -0.4868  0.4126
  197DOPC   H4X24444   1.581   0.320  10.260  0.0032  0.2543 -0.6988
  197DOPC   H4Y24445   1.478   0.180  10.293  1.9227 -0.9765 -1.1407
  197DOPC   C3524446   1.383   0.366  10.362  0.1377 -0.8638 -0.4320
  197DOPC   H5X24447   1.281   0.323  10.354  0.8695 -2.5029 -1.3095
  197DOPC   H5Y24448   1.383   0.473  10.333  4.6597 -0.9753 -1.5866
  197DOPC   C3624449   1.429   0.363  10.511 -0.2139 -0.1601 -0.3242
  197DOPC   H6X24450   1.430   0.262  10.557 -0.6987  0.2882  0.6949
  197DOPC   H6Y24451   1.535   0.395  10.510 -0.6789  1.7287  2.0554
  197DOPC   C3724452   1.342   0.457  10.599 -0.0654  0.3446 -0.5174
  197DOPC   H7X24453   1.347   0.561  10.560  0.7220  1.3575  2.0268
  197DOPC   H7Y24454   1.235   0.427  10.592 -0.3174  1.4921 -1.9541
  197DOPC   C3824455   1.392   0.473  10.748  0.4727  0.2572  0.0721
  197DOPC   H8X24456   1.326   0.548  10.797 -0.3689 -0.7745  0.5932
  197DOPC   H8Y24457   1.492   0.520  10.750 -0.5274  2.6560 -1.6680
  197DOPC   C3924458   1.394   0.359  10.845 -0.1618 -0.3359 -0.0450
  197DOPC   H9X24459   1.407   0.264  10.790 -3.0606 -0.4767 -0.6123
  197DOPC  C31024460   1.353   0.374  10.975  0.3839 -0.7127  0.3504
  197DOPC  H10X24461   1.347   0.282  11.035  0.0615 -1.9979 -1.5778
  197DOPC  C31124462   1.298   0.504  11.037 -0.0256 -0.3743  0.7855
  197DOPC  H11X24463   1.190   0.521  11.020  0.6457  1.8757 -2.0671
  197DOPC  H11Y24464   1.353   0.595  11.005 -0.5241  0.5393  2.4320
  197DOPC  C31224465   1.311   0.493  11.189  0.0416 -0.3899 -0.2109
  197DOPC  H12X24466   1.259   0.410  11.242  0.5160  0.8812  2.3894
  197DOPC  H12Y24467   1.274   0.590  11.230  1.4505 -0.1899  0.6631
  197DOPC  C31324468   1.457   0.476  11.248  0.2875 -0.0591  0.0565
  197DOPC  H13X24469   1.494   0.374  11.226  2.2304  1.1663 -2.9284
  197DOPC  H13Y24470   1.525   0.540  11.188 -1.4165  0.0133 -1.9180
  197DOPC  C31424471   1.479   0.520  11.396  0.3044 -1.0452  0.1536
  197DOPC  H14X24472   1.513   0.626  11.395 -0.4551 -0.7955 -1.1449
  197DOPC  H14Y24473   1.389   0.506  11.460  0.7588  1.5237  1.4987
  197DOPC  C31524474   1.593   0.450  11.468  0.5067 -0.1705  0.2348
  197DOPC  H15X24475   1.691   0.435  11.417 -0.2445  0.3055 -1.4106
  197DOPC  H15Y24476   1.555   0.346  11.476 -0.8470  0.3019  0.0765
  197DOPC  C31624477   1.613   0.523  11.602 -0.2307  0.4702 -0.0228
  197DOPC  H16X24478   1.640   0.630  11.593  0.6683  0.5845  2.9096
  197DOPC  H16Y24479   1.515   0.513  11.655 -0.3159  1.6967  0.0623
  197DOPC  C31724480   1.721   0.445  11.678 -0.3042 -0.0881  0.3493
  197DOPC  H17X24481   1.706   0.335  11.676 -1.2237  0.0347  0.2371
  197DOPC  H17Y24482   1.816   0.454  11.622 -0.0771  0.5724  0.8290
  197DOPC  C31824483   1.726   0.488  11.827  0.5206 -0.2218  0.3687
  197DOPC  H18X24484   1.639   0.442  11.877  2.1648  0.8034  4.5776
  197DOPC  H18Y24485   1.813   0.438  11.876  0.6678  0.3470  0.6886
  197DOPC  H18Z24486   1.720   0.595  11.853 -0.3798  0.2345 -1.5256
  198DOPC     N24487   5.906   6.171   8.952 -0.5913  0.4453  0.1474
  198DOPC   C1224488   5.998   6.220   9.066 -0.0044 -0.6034 -0.1083
  198DOPC  H12A24489   5.975   6.324   9.080 -1.1075 -0.2703 -3.4222
  198DOPC  H12B24490   6.098   6.221   9.027  0.6157  0.1751  1.4508
  198DOPC   C1324491   5.766   6.164   9.001  0.2105  0.0416  0.4414
  198DOPC  H13A24492   5.733   6.258   9.044 -0.8184  0.0771 -0.3879
  198DOPC  H13B24493   5.699   6.141   8.920  1.1411  1.8708 -0.9376
  198DOPC  H13C24494   5.761   6.086   9.075 -0.7723 -0.1468  0.1805
  198DOPC   C1424495   5.955   6.036   8.902 -0.5311 -0.0057  0.1313
  198DOPC  H14A24496   5.896   5.989   8.824  0.1308 -0.4393 -0.1160
  198DOPC  H14B24497   6.054   6.035   8.858 -0.7331 -0.4991 -0.3240
  198DOPC  H14C24498   5.969   5.974   8.989 -0.1506 -0.1186 -0.0064
  198DOPC   C1524499   5.919   6.265   8.842  0.4327 -0.5219 -0.0442
  198DOPC  H15A24500   5.901   6.365   8.879  0.6982 -0.8434  0.9920
  198DOPC  H15B24501   5.849   6.252   8.761  0.0682 -0.8561  0.3258
  198DOPC  H15C24502   6.018   6.263   8.798  0.7428  0.6693  0.5626
  198DOPC   C1124503   5.997   6.156   9.203 -0.0722 -0.2747  0.4232
  198DOPC  H11A24504   6.065   6.204   9.277  0.9982  1.9211 -1.8506
  198DOPC  H11B24505   5.899   6.169   9.253 -1.8998  0.5619 -3.0704
  198DOPC     P24506   6.154   5.952   9.255  0.5061  0.3010  0.0230
  198DOPC   O1324507   6.264   6.031   9.205 -0.3303  0.3063  0.3107
  198DOPC   O1424508   6.157   5.810   9.213  0.9816  0.0231 -0.1980
  198DOPC   O1224509   6.022   6.017   9.195  0.6080 -0.4015 -0.3978
  198DOPC   O1124510   6.138   5.964   9.410 -0.4447  0.1172  0.8014
  198DOPC    C124511   6.015   5.913   9.460 -0.3829 -0.3234 -0.0251
  198DOPC    HA24512   6.008   5.802   9.452  1.8330 -0.3979 -2.2475
  198DOPC    HB24513   5.923   5.954   9.414  1.3389  0.1524 -3.3451
  198DOPC    C224514   6.004   5.940   9.611 -0.6703  0.4517 -0.7927
  198DOPC    HS24515   5.999   6.051   9.618 -0.4886  0.4393 -0.4325
  198DOPC   O2124516   6.117   5.886   9.688  0.4650 -0.3037  0.1346
  198DOPC   C2124517   6.228   5.964   9.690 -0.6186  0.5030 -0.5408
  198DOPC   O2224518   6.239   6.071   9.638 -0.4093 -0.2747  0.4782
  198DOPC   C2224519   6.342   5.902   9.768 -0.4960 -0.1740  0.5431
  198DOPC   H2R24520   6.422   5.978   9.779  0.4376 -1.1377  0.5721
  198DOPC   H2S24521   6.369   5.804   9.721  0.1894 -0.7804  2.1428
  198DOPC    C324522   5.874   5.887   9.680  0.5831  0.5038  0.5948
  198DOPC    HX24523   5.884   5.781   9.647 -0.0684  0.7607 -0.4974
  198DOPC    HY24524   5.779   5.918   9.632  0.0065 -1.1714  0.6031
  198DOPC   O3124525   5.877   5.909   9.825  0.3676 -0.6299  0.2106
  198DOPC   C3124526   5.840   5.806   9.900 -0.3005  0.3344  0.4224
  198DOPC   O3224527   5.777   5.708   9.862 -0.3766 -0.2844 -0.1862
  198DOPC   C3224528   5.872   5.844  10.051 -0.1806  0.5674 -0.0084
  198DOPC   H2X24529   5.974   5.886  10.063 -0.5662  1.1827  1.3332
  198DOPC   H2Y24530   5.794   5.921  10.072  0.4802  1.0094  0.8963
  198DOPC   C2324531   6.288   5.863   9.911 -0.0160 -0.3382 -0.6002
  198DOPC   H3R24532   6.372   5.804   9.954  0.6567  1.8397  1.2455
  198DOPC   H3S24533   6.196   5.803   9.895  1.0841 -1.4711 -3.4333
  198DOPC   C2424534   6.269   5.982  10.008  0.4642 -0.7994  0.8119
  198DOPC   H4R24535   6.171   6.022   9.973  0.2530 -1.1098  1.0352
  198DOPC   H4S24536   6.350   6.052   9.980 -0.6319 -0.3701 -1.4728
  198DOPC   C2524537   6.282   5.950  10.156 -1.0116  0.8415  0.8026
  198DOPC   H5R24538   6.389   5.958  10.186 -0.8930 -1.3411  1.1245
  198DOPC   H5S24539   6.251   5.844  10.168 -1.1006  0.8303  0.4992
  198DOPC   C2624540   6.207   6.050  10.246 -0.2295 -0.0133 -0.0753
  198DOPC   H6R24541   6.103   6.053  10.208 -0.5690 -2.2187  0.5968
  198DOPC   H6S24542   6.259   6.148  10.235  0.6753 -0.2983  1.4450
  198DOPC   C2724543   6.232   5.994  10.385 -0.1706 -0.0061  0.0996
  198DOPC   H7R24544   6.342   5.991  10.402  0.1113 -0.4131 -1.6377
  198DOPC   H7S24545   6.192   5.890  10.383 -1.6000  0.5345 -0.6398
  198DOPC   C2824546   6.158   6.070  10.500  0.0228  0.4915 -0.0018
  198DOPC   H8R24547   6.165   6.013  10.595 -2.1017 -3.2523 -1.8861
  198DOPC   H8S24548   6.055   6.055  10.462 -0.5913  0.6542  1.5424
  198DOPC   C2924549   6.205   6.211  10.496 -0.6355  0.1884 -0.1595
  198DOPC   H9R24550   6.227   6.259  10.399  0.8224  0.1178  0.1082
  198DOPC  C21024551   6.218   6.283  10.609 -0.8193 -0.8878  0.0632
  198DOPC  H10R24552   6.257   6.385  10.597  3.4852 -2.4516 -0.8147
  198DOPC  C21124553   6.188   6.251  10.748  0.4445  0.1028 -0.2016
  198DOPC  H11R24554   6.111   6.171  10.760 -1.2939  1.8706  1.1087
  198DOPC  H11S24555   6.145   6.341  10.796  0.5004  0.2313 -0.3907
  198DOPC  C21224556   6.310   6.215  10.831  0.4090 -0.1597  0.1770
  198DOPC  H12R24557   6.395   6.286  10.822 -0.0648  0.8678  2.7359
  198DOPC  H12S24558   6.349   6.111  10.824  1.1632 -0.0456  2.0371
  198DOPC  C21324559   6.275   6.231  10.988 -0.3863  0.5299 -0.0087
  198DOPC  H13R24560   6.221   6.139  11.017  0.1400  0.0013 -0.6749
  198DOPC  H13S24561   6.211   6.320  11.008  0.6417  1.7266 -1.7383
  198DOPC  C21424562   6.403   6.244  11.077 -0.1549 -0.8672  0.3331
  198DOPC  H14R24563   6.462   6.333  11.047  1.2081 -1.2131  1.8377
  198DOPC  H14S24564   6.457   6.149  11.058 -0.8235 -1.3274  0.6539
  198DOPC  C21524565   6.371   6.249  11.227 -0.3355  0.2297 -0.6954
  198DOPC  H15R24566   6.308   6.161  11.253  0.5179 -0.1321  0.2216
  198DOPC  H15S24567   6.313   6.342  11.242  0.3932  0.5215  0.4119
  198DOPC  C21624568   6.490   6.255  11.323  0.2353 -0.2419 -0.1242
  198DOPC  H16R24569   6.567   6.330  11.296 -1.1047  1.5473  0.8333
  198DOPC  H16S24570   6.536   6.155  11.310  0.4410 -0.0830 -0.6247
  198DOPC  C21724571   6.449   6.282  11.473 -0.0140 -0.1201  0.0208
  198DOPC  H17R24572   6.381   6.206  11.518  0.7947  0.1274  1.7401
  198DOPC  H17S24573   6.400   6.381  11.475  1.1290  0.4671 -0.5065
  198DOPC  C21824574   6.556   6.292  11.584 -0.5735 -0.0807  0.0458
  198DOPC  H18R24575   6.630   6.375  11.576  0.1569 -0.4710  2.2380
  198DOPC  H18S24576   6.609   6.196  11.600  3.3673  1.9352  0.3678
  198DOPC  H18T24577   6.511   6.320  11.682  2.2132  1.2942  1.0426
  198DOPC   C3324578   5.864   5.718  10.151 -0.3466  0.2117  0.2412
  198DOPC   H3X24579   5.957   5.658  10.143  0.3893  1.1255  1.6017
  198DOPC   H3Y24580   5.774   5.658  10.125 -1.2294  1.0764  1.1775
  198DOPC   C3424581   5.857   5.764  10.295 -0.3561  0.4769  0.8972
  198DOPC   H4X24582   5.760   5.803  10.332 -0.1190  3.1320 -0.9918
  198DOPC   H4Y24583   5.934   5.844  10.306  0.7937 -0.0543 -2.3537
  198DOPC   C3524584   5.900   5.651  10.389 -0.5602  0.3275  0.1314
  198DOPC   H5X24585   5.987   5.596  10.347 -0.2140  1.6728 -0.9811
  198DOPC   H5Y24586   5.815   5.581  10.402  1.5945 -2.6496 -0.7785
  198DOPC   C3624587   5.946   5.711  10.525 -0.1758 -0.0148  0.4507
  198DOPC   H6X24588   5.984   5.624  10.582  1.5914  0.5320  0.1575
  198DOPC   H6Y24589   6.032   5.778  10.504  0.0227 -0.5718 -0.5233
  198DOPC   C3724590   5.847   5.786  10.613  0.9622  0.6085  0.4656
  198DOPC   H7X24591   5.810   5.875  10.558  0.7270  0.4011  0.2860
  198DOPC   H7Y24592   5.756   5.725  10.629 -0.2031  2.3923  0.9739
  198DOPC   C3824593   5.919   5.818  10.747 -0.3859  0.0827 -0.2273
  198DOPC   H8X24594   6.018   5.866  10.734 -0.7047  1.0055  0.6058
  198DOPC   H8Y24595   5.942   5.727  10.806 -0.3362 -0.1466 -0.5974
  198DOPC   C3924596   5.824   5.909  10.820 -0.4900 -0.6926 -0.6305
  198DOPC   H9X24597   5.843   6.017  10.811 -1.0160 -0.5522 -0.0266
  198DOPC  C31024598   5.718   5.866  10.889  0.4958 -0.0889 -0.0260
  198DOPC  H10X24599   5.673   5.939  10.959  2.7334  1.3930 -0.0321
  198DOPC  C31124600   5.687   5.724  10.925 -0.0063  0.1623 -0.0165
  198DOPC  H11X24601   5.744   5.656  10.858  0.3940 -1.1491  1.5768
  198DOPC  H11Y24602   5.579   5.704  10.910 -0.7760  1.2206  3.2855
  198DOPC  C31224603   5.735   5.686  11.071  1.2003  0.3490 -0.5769
  198DOPC  H12X24604   5.705   5.772  11.136  3.8123 -0.4799  1.9486
  198DOPC  H12Y24605   5.846   5.685  11.076  1.1830 -2.7428  1.8269
  198DOPC  C31324606   5.682   5.562  11.131  0.1151  0.5892 -0.7457
  198DOPC  H13X24607   5.587   5.589  11.183 -0.3090  0.1075 -1.2600
  198DOPC  H13Y24608   5.655   5.479  11.062 -0.2208 -0.8165  1.0088
  198DOPC  C31424609   5.791   5.511  11.230  0.1529  0.5534 -0.5345
  198DOPC  H14X24610   5.872   5.452  11.182  0.9339  1.2418 -0.1028
  198DOPC  H14Y24611   5.841   5.598  11.278 -0.4134 -0.5307  2.2099
  198DOPC  C31524612   5.734   5.414  11.340 -0.4452 -0.5073  0.8072
  198DOPC  H15X24613   5.822   5.357  11.378  2.0157  1.6805 -1.2442
  198DOPC  H15Y24614   5.672   5.335  11.294 -1.6666 -0.6252  2.5690
  198DOPC  C31624615   5.666   5.499  11.450  0.0174 -0.0183  0.1913
  198DOPC  H16X24616   5.742   5.558  11.505  0.0353 -0.7806  0.9887
  198DOPC  H16Y24617   5.599   5.571  11.397 -0.1838 -2.2249 -2.8462
  198DOPC  C31724618   5.594   5.409  11.542  0.1848 -0.6105  0.2409
  198DOPC  H17X24619   5.537   5.474  11.612  0.7753  5.2746 -4.0068
  198DOPC  H17Y24620   5.513   5.362  11.482 -0.5341  1.9031 -0.8879
  198DOPC  C31824621   5.671   5.299  11.618 -0.4793  0.1570 -0.4363
  198DOPC  H18X24622   5.600   5.256  11.693  0.6601  0.7170  1.0077
  198DOPC  H18Y24623   5.712   5.227  11.544 -0.1201 -0.0482 -0.0401
  198DOPC  H18Z24624   5.747   5.339  11.688 -1.9069  2.1050  0.0820
  199DOPC     N24625   0.090   1.286   8.812  0.5487 -0.0099  0.3037
  199DOPC   C1224626   0.176   1.235   8.933 -0.3388 -0.5459  0.2840
  199DOPC  H12A24627   0.165   1.309   9.011  1.6840 -1.2514  1.3010
  199DOPC  H12B24628   0.280   1.246   8.908 -0.3422  0.2426  0.5829
  199DOPC   C1324629   0.126   1.202   8.702 -0.2927 -0.0065 -0.0161
  199DOPC  H13A24630   0.124   1.095   8.719  1.0815 -0.0056  0.2869
  199DOPC  H13B24631   0.057   1.221   8.621  0.0699  1.8425  0.0893
  199DOPC  H13C24632   0.226   1.227   8.670 -0.1030  0.1591  0.6811
  199DOPC   C1424633   0.123   1.429   8.776 -0.5356  0.2106  0.2607
  199DOPC  H14A24634   0.060   1.449   8.691  0.1520 -2.7207 -1.0644
  199DOPC  H14B24635   0.088   1.485   8.862 -3.2112 -0.2855 -0.4014
  199DOPC  H14C24636   0.228   1.448   8.758 -0.3675 -1.2619 -0.4658
  199DOPC   C1524637  -0.054   1.275   8.843 -0.3819 -0.0199 -0.2003
  199DOPC  H15A24638  -0.116   1.334   8.777 -3.8189 -1.3144  1.6502
  199DOPC  H15B24639  -0.079   1.293   8.947 -0.0737 -0.7986  0.0152
  199DOPC  H15C24640  -0.086   1.173   8.828 -1.4232  0.2952 -0.2035
  199DOPC   C1124641   0.161   1.094   9.000  1.0249  0.1391  0.2466
  199DOPC  H11A24642   0.170   1.016   8.921 -0.3102 -0.4675  0.6733
  199DOPC  H11B24643   0.242   1.087   9.075  0.4765  0.1371  0.8384
  199DOPC     P24644  -0.013   1.135   9.194 -0.1661  0.1729 -0.2770
  199DOPC   O1324645   0.111   1.158   9.269  0.7660 -0.3375 -0.0024
  199DOPC   O1424646  -0.116   1.046   9.251  0.0014  0.5896  0.0479
  199DOPC   O1224647   0.032   1.081   9.054 -0.0275 -0.3324  0.2996
  199DOPC   O1124648  -0.088   1.270   9.163  0.2375  0.3774 -0.1338
  199DOPC    C124649  -0.029   1.399   9.175  0.7205  0.1948  0.0962
  199DOPC    HA24650  -0.076   1.460   9.095  0.8006 -0.1221 -0.1986
  199DOPC    HB24651   0.078   1.394   9.144  0.3332  1.6156 -1.6331
  199DOPC    C224652  -0.044   1.468   9.315  0.3231  0.2804  0.2201
  199DOPC    HS24653   0.006   1.402   9.389 -0.3917 -0.7883 -0.2314
  199DOPC   O2124654  -0.185   1.500   9.336 -1.1768  0.0764 -0.3022
  199DOPC   C2124655  -0.209   1.510   9.470 -0.4910 -0.1973  0.1651
  199DOPC   O2224656  -0.129   1.494   9.558 -0.2518 -0.1257 -0.4177
  199DOPC   C2224657  -0.351   1.551   9.499 -0.0917  0.7147 -0.4618
  199DOPC   H2R24658  -0.416   1.486   9.437 -0.6273 -0.2716  1.1049
  199DOPC   H2S24659  -0.355   1.659   9.471  0.4206  0.3897 -1.9084
  199DOPC    C324660   0.042   1.592   9.320  0.2308 -0.0451 -0.5201
  199DOPC    HX24661   0.016   1.664   9.239  1.4133  0.3479 -0.5726
  199DOPC    HY24662   0.141   1.565   9.277  0.4124  1.1124 -0.8577
  199DOPC   O3124663   0.055   1.664   9.444 -0.1682  0.7529 -0.3280
  199DOPC   C3124664   0.133   1.610   9.535 -0.8278 -0.0993  0.4437
  199DOPC   O3224665   0.205   1.511   9.519 -0.4055  0.4112 -0.2301
  199DOPC   C3224666   0.154   1.710   9.652 -0.0590  0.2415  0.9022
  199DOPC   H2X24667   0.262   1.698   9.673  0.0548 -2.6684 -0.8271
  199DOPC   H2Y24668   0.127   1.812   9.618 -0.5929 -0.7767 -1.9385
  199DOPC   C2324669  -0.375   1.533   9.655 -0.1331  0.5976  0.6948
  199DOPC   H3R24670  -0.308   1.596   9.718  0.7283 -1.6092  2.0820
  199DOPC   H3S24671  -0.353   1.428   9.681  4.4735  0.2665 -3.2093
  199DOPC   C2424672  -0.522   1.577   9.698  0.3597  0.5276  0.3494
  199DOPC   H4R24673  -0.592   1.528   9.628  1.3022  2.1901 -1.8863
  199DOPC   H4S24674  -0.522   1.687   9.684  0.6882  0.4048 -0.6824
  199DOPC   C2524675  -0.573   1.522   9.829  0.3523  0.7850  0.7569
  199DOPC   H5R24676  -0.513   1.573   9.907  1.8975  1.9574 -1.1182
  199DOPC   H5S24677  -0.552   1.413   9.833 -0.0998  0.6318 -0.5405
  199DOPC   C2624678  -0.724   1.545   9.848 -0.8318  0.0383 -0.4777
  199DOPC   H6R24679  -0.786   1.501   9.766  1.8293 -3.4233 -0.8792
  199DOPC   H6S24680  -0.744   1.654   9.849  1.0902  0.4373 -1.0945
  199DOPC   C2724681  -0.785   1.495   9.986  0.4935 -0.3207  0.0772
  199DOPC   H7R24682  -0.784   1.386   9.965 -1.0932 -0.0665 -1.5761
  199DOPC   H7S24683  -0.886   1.539   9.996  0.5062 -0.1589 -0.4797
  199DOPC   C2824684  -0.696   1.547  10.095  0.2940  0.0089 -0.7203
  199DOPC   H8R24685  -0.659   1.650  10.078  1.9397 -0.2467  1.0088
  199DOPC   H8S24686  -0.605   1.489  10.122 -0.7099 -1.1328  0.3153
  199DOPC   C2924687  -0.772   1.565  10.221 -0.1792  0.2380  0.0118
  199DOPC   H9R24688  -0.814   1.664  10.244 -0.6259  0.0291  0.1206
  199DOPC  C21024689  -0.788   1.469  10.313  0.5870 -0.4688 -0.4330
  199DOPC  H10R24690  -0.856   1.491  10.396 -1.3729  0.0239 -2.0725
  199DOPC  C21124691  -0.724   1.334  10.314 -0.2325  0.4844  0.2228
  199DOPC  H11R24692  -0.664   1.321  10.222  2.3271 -0.3104  1.9049
  199DOPC  H11S24693  -0.795   1.248  10.309  1.6600 -1.1585  0.3058
  199DOPC  C21224694  -0.627   1.303  10.431 -0.2959  0.5968 -0.2050
  199DOPC  H12R24695  -0.544   1.377  10.439 -0.8151  1.1332  0.3492
  199DOPC  H12S24696  -0.587   1.201  10.413  0.2225  0.9406 -1.0763
  199DOPC  C21324697  -0.700   1.311  10.565  0.0095  0.2214  0.3232
  199DOPC  H13R24698  -0.784   1.238  10.573  0.1891 -0.0688 -0.3662
  199DOPC  H13S24699  -0.741   1.412  10.583  1.2441  0.3817  2.5005
  199DOPC  C21424700  -0.596   1.285  10.679  0.8959  0.3314  0.4605
  199DOPC  H14R24701  -0.528   1.374  10.681  1.0367  0.2496 -0.2693
  199DOPC  H14S24702  -0.540   1.192  10.656 -0.0063  0.1344 -1.0623
  199DOPC  C21524703  -0.666   1.284  10.810  0.2858  0.0013 -0.6701
  199DOPC  H15R24704  -0.713   1.184  10.821  4.4958 -2.0051  1.0378
  199DOPC  H15S24705  -0.743   1.364  10.819  0.6342  0.2308  0.4725
  199DOPC  C21624706  -0.586   1.298  10.943 -0.2364 -0.0126 -0.5642
  199DOPC  H16R24707  -0.528   1.393  10.946 -0.1525 -0.0385 -1.1297
  199DOPC  H16S24708  -0.511   1.216  10.941  3.0000  2.7226 -0.9678
  199DOPC  C21724709  -0.677   1.284  11.054  0.5302 -0.2556 -0.6028
  199DOPC  H17R24710  -0.631   1.219  11.131  2.3378  0.2133 -1.2267
  199DOPC  H17S24711  -0.766   1.230  11.015  1.1195 -0.5264 -1.6046
  199DOPC  C21824712  -0.722   1.415  11.114 -0.0794 -0.0775  0.5055
  199DOPC  H18R24713  -0.775   1.478  11.040 -1.5312  0.0044  1.5594
  199DOPC  H18S24714  -0.640   1.477  11.156 -2.3323  2.7597  1.0593
  199DOPC  H18T24715  -0.795   1.389  11.194  0.1493 -0.8103  0.4858
  199DOPC   C3324716   0.072   1.673   9.772 -0.6036  0.5635 -0.8846
  199DOPC   H3X24717   0.077   1.564   9.791  1.4108  1.0186  1.9265
  199DOPC   H3Y24718  -0.034   1.697   9.750 -1.1201  0.3973  1.1925
  199DOPC   C3424719   0.110   1.736   9.909  0.5227 -0.2351  0.1061
  199DOPC   H4X24720   0.062   1.835   9.920 -1.4428 -0.9782 -1.2751
  199DOPC   H4Y24721   0.221   1.749   9.911  0.2922  2.1705  1.0990
  199DOPC   C3524722   0.076   1.639  10.023  0.6958 -0.4607 -0.0896
  199DOPC   H5X24723   0.144   1.553  10.002  1.5038  0.2375 -0.3950
  199DOPC   H5Y24724  -0.030   1.615  10.005  1.0350 -3.7586  1.5034
  199DOPC   C3624725   0.103   1.696  10.163  0.2828 -0.1510  0.2846
  199DOPC   H6X24726   0.098   1.606  10.228 -0.6635  0.2509  0.7822
  199DOPC   H6Y24727   0.206   1.738  10.163 -0.0873  0.7649  0.2601
  199DOPC   C3724728   0.004   1.807  10.210 -0.9187  0.8601  0.0094
  199DOPC   H7X24729   0.016   1.893  10.140 -0.1511  1.9897  1.4726
  199DOPC   H7Y24730  -0.098   1.763  10.206 -0.6309  0.2354 -0.5501
  199DOPC   C3824731   0.027   1.846  10.360 -0.3164  0.0367  0.4576
  199DOPC   H8X24732   0.129   1.890  10.363  0.3321 -1.3443 -0.4027
  199DOPC   H8Y24733   0.022   1.756  10.425  2.1478 -0.1674  0.4480
  199DOPC   C3924734  -0.077   1.947  10.408 -0.3189 -0.6664 -0.3960
  199DOPC   H9X24735  -0.092   2.025  10.332  0.8704  0.8588  0.8587
  199DOPC  C31024736  -0.149   1.942  10.519 -0.7923 -0.6740 -0.0298
  199DOPC  H10X24737  -0.227   2.020  10.527  0.2180  0.4734 -0.8910
  199DOPC  C31124738  -0.131   1.838  10.627 -0.1608  0.6447 -0.0788
  199DOPC  H11X24739  -0.041   1.773  10.620 -1.0296 -0.4832 -1.1673
  199DOPC  H11Y24740  -0.213   1.763  10.625  1.6244 -1.4175 -0.3818
  199DOPC  C31224741  -0.129   1.902  10.771 -0.5100 -0.1701 -0.0750
  199DOPC  H12X24742  -0.224   1.957  10.782 -0.2995 -0.2288  2.6511
  199DOPC  H12Y24743  -0.041   1.969  10.759  1.8693 -3.2998 -1.5899
  199DOPC  C31324744  -0.102   1.805  10.881  0.2768 -0.1064  0.0119
  199DOPC  H13X24745  -0.181   1.726  10.879 -0.5245  0.6854 -1.6012
  199DOPC  H13Y24746  -0.006   1.750  10.868  0.7407  0.6694  0.0874
  199DOPC  C31424747  -0.110   1.860  11.029  0.3071 -0.6004  1.1187
  199DOPC  H14X24748  -0.061   1.959  11.032 -2.7778  1.1192 -0.3025
  199DOPC  H14Y24749  -0.214   1.888  11.055 -0.8184 -2.1528 -1.3423
  199DOPC  C31524750  -0.044   1.767  11.122 -0.3490  0.3708 -0.2943
  199DOPC  H15X24751   0.066   1.759  11.110 -0.4973 -0.4754 -1.3081
  199DOPC  H15Y24752  -0.079   1.664  11.097  1.2128  0.0246 -1.1826
  199DOPC  C31624753  -0.074   1.782  11.277  0.0530  0.6438  0.5501
  199DOPC  H16X24754  -0.184   1.767  11.288 -0.3203  1.7800 -1.2808
  199DOPC  H16Y24755  -0.027   1.697  11.330  1.4259  0.5619 -0.7242
  199DOPC  C31724756  -0.025   1.914  11.341  0.0688 -0.4443  0.4785
  199DOPC  H17X24757   0.086   1.915  11.335  0.0688  1.2580  0.3757
  199DOPC  H17Y24758  -0.061   1.998  11.277 -0.0301 -0.0932  0.9890
  199DOPC  C31824759  -0.077   1.927  11.482 -0.6512  0.2929 -0.5344
  199DOPC  H18X24760  -0.041   1.852  11.556 -2.9296 -0.6987 -0.3612
  199DOPC  H18Y24761  -0.038   2.024  11.520 -0.7359  0.3901 -0.6957
  199DOPC  H18Z24762  -0.187   1.928  11.495 -0.4567 -0.4102  1.4643
  200DOPC     N24763   2.270   2.463   8.348 -0.1510  0.1352 -0.5161
  200DOPC   C1224764   2.135   2.513   8.403 -0.2783  0.1696  0.8691
  200DOPC  H12A24765   2.057   2.495   8.331 -0.2561  1.4704  0.4970
  200DOPC  H12B24766   2.135   2.619   8.425 -1.6038  0.3441  0.1111
  200DOPC   C1324767   2.320   2.549   8.242  0.2975 -0.8879  0.5693
  200DOPC  H13A24768   2.275   2.526   8.147  0.9383 -1.4855  0.3992
  200DOPC  H13B24769   2.297   2.652   8.266 -1.7733 -1.1578 -0.0398
  200DOPC  H13C24770   2.426   2.541   8.225  0.2888  0.1725 -0.1383
  200DOPC   C1424771   2.247   2.330   8.289 -0.4582  0.4348  0.2479
  200DOPC  H14A24772   2.194   2.274   8.364 -1.5028  2.2683  0.9494
  200DOPC  H14B24773   2.194   2.352   8.198 -1.9059  1.2775  1.2449
  200DOPC  H14C24774   2.339   2.279   8.264 -1.3212 -0.7335 -0.6774
  200DOPC   C1524775   2.373   2.453   8.454 -1.0150 -0.5661 -0.2804
  200DOPC  H15A24776   2.467   2.421   8.411  0.0208  1.2382  0.4980
  200DOPC  H15B24777   2.347   2.393   8.539 -2.8961 -0.3404 -0.6629
  200DOPC  H15C24778   2.390   2.557   8.481  0.5388  0.1619 -3.5261
  200DOPC   C1124779   2.086   2.441   8.530  0.2095 -0.4577 -1.2026
  200DOPC  H11A24780   2.163   2.457   8.608 -0.8655  1.1830 -0.4304
  200DOPC  H11B24781   1.991   2.478   8.574 -0.4000 -1.9036 -1.2418
  200DOPC     P24782   2.133   2.192   8.598 -0.3258 -0.0896  0.3227
  200DOPC   O1324783   2.275   2.208   8.591  0.2417  0.3979  0.1080
  200DOPC   O1424784   2.073   2.061   8.561  0.2396 -0.2157 -0.7767
  200DOPC   O1224785   2.065   2.301   8.505 -0.0782 -0.5046 -1.1560
  200DOPC   O1124786   2.093   2.238   8.743  0.1804 -0.0099  0.2881
  200DOPC    C124787   1.964   2.276   8.777 -0.1727  0.2024 -0.1307
  200DOPC    HA24788   1.889   2.289   8.696 -1.0395 -0.2515  0.5834
  200DOPC    HB24789   1.967   2.372   8.833 -0.0505  0.2855 -0.2796
  200DOPC    C224790   1.893   2.179   8.885  0.2655  0.2203  0.1931
  200DOPC    HS24791   1.794   2.227   8.903  1.6128  2.5101  2.1827
  200DOPC   O2124792   1.971   2.178   9.006 -0.2903 -0.4722  0.0922
  200DOPC   C2124793   1.908   2.202   9.120 -0.0203  0.0128  0.6680
  200DOPC   O2224794   1.794   2.228   9.129  0.3825  0.1073  0.3826
  200DOPC   C2224795   1.999   2.178   9.242  0.5917  0.0437  0.0785
  200DOPC   H2R24796   2.069   2.263   9.234 -1.2719  1.4634 -2.3517
  200DOPC   H2S24797   2.046   2.077   9.243  1.1738  0.2476  2.7910
  200DOPC    C324798   1.887   2.035   8.836  0.0638  0.7534 -1.1586
  200DOPC    HX24799   1.986   1.987   8.833  0.0543  0.6549 -0.1335
  200DOPC    HY24800   1.840   2.032   8.735  0.7188 -0.4900 -1.4307
  200DOPC   O3124801   1.803   1.965   8.932  0.1564  0.1195  0.1002
  200DOPC   C3124802   1.867   1.881   9.012  0.1731  0.2416 -0.1488
  200DOPC   O3224803   1.980   1.840   8.997 -0.6047  0.4600  0.2122
  200DOPC   C3224804   1.768   1.845   9.120 -0.2032  0.5055 -1.0722
  200DOPC   H2X24805   1.716   1.940   9.145  0.7983  1.2360 -1.6801
  200DOPC   H2Y24806   1.697   1.776   9.070  0.4124 -0.6537 -0.4182
  200DOPC   C2324807   1.925   2.190   9.383  0.1871 -0.0502  0.3063
  200DOPC   H3R24808   1.872   2.095   9.403  0.1617 -0.5721 -1.9811
  200DOPC   H3S24809   1.855   2.276   9.378  0.9901  0.6595  0.9634
  200DOPC   C2424810   2.019   2.198   9.505 -0.4165  0.0656  0.3883
  200DOPC   H4R24811   2.053   2.303   9.504  0.1786 -0.1133 -0.8907
  200DOPC   H4S24812   2.114   2.142   9.492 -0.0260  0.5784  1.0114
  200DOPC   C2524813   1.957   2.186   9.642  0.8003  0.1850  0.2994
  200DOPC   H5R24814   1.962   2.076   9.659 -1.1113  0.3497  2.3132
  200DOPC   H5S24815   1.849   2.206   9.630  0.4450 -2.9398 -4.4360
  200DOPC   C2624816   2.012   2.256   9.761  0.2032 -0.3374  0.6955
  200DOPC   H6R24817   2.018   2.367   9.754  0.4333 -0.3213  1.1309
  200DOPC   H6S24818   2.116   2.222   9.777  0.6561  0.5766 -0.2332
  200DOPC   C2724819   1.925   2.228   9.886  0.1042  0.5394 -0.4427
  200DOPC   H7R24820   1.913   2.118   9.893  0.3625  0.4543 -1.3179
  200DOPC   H7S24821   1.822   2.269   9.872 -0.1789 -0.2943 -0.8753
  200DOPC   C2824822   1.969   2.293  10.016 -0.3735 -0.3283  0.3989
  200DOPC   H8R24823   1.884   2.304  10.086 -0.5166 -1.1077  0.3604
  200DOPC   H8S24824   1.992   2.399   9.995 -0.0381 -0.0175  2.2215
  200DOPC   C2924825   2.085   2.213  10.084 -0.0081  0.0009  0.5080
  200DOPC   H9R24826   2.158   2.180  10.009  1.7876  1.6016  1.4772
  200DOPC  C21024827   2.099   2.177  10.209  0.1891  0.8207 -1.0777
  200DOPC  H10R24828   2.182   2.110  10.234  0.3524  0.3064 -2.8896
  200DOPC  C21124829   2.004   2.215  10.323  0.0357 -0.3585 -0.9798
  200DOPC  H11R24830   1.937   2.128  10.339  0.5811 -0.3349  2.0075
  200DOPC  H11S24831   1.939   2.302  10.296  0.7840  1.0462  1.4021
  200DOPC  C21224832   2.066   2.245  10.458 -0.3954  0.0481  0.4436
  200DOPC  H12R24833   2.116   2.344  10.454  1.5500 -0.8890  0.2377
  200DOPC  H12S24834   2.152   2.178  10.482 -0.3670 -0.8301 -1.8770
  200DOPC  C21324835   1.956   2.235  10.560  0.3079  0.2183  0.0999
  200DOPC  H13R24836   1.911   2.134  10.554 -3.2165  1.7265 -1.4328
  200DOPC  H13S24837   1.877   2.312  10.544 -0.7045 -0.6271  0.8994
  200DOPC  C21424838   1.992   2.258  10.708 -0.0022  0.3930  0.7001
  200DOPC  H14R24839   2.099   2.228  10.716  0.2995  1.4305  0.8255
  200DOPC  H14S24840   1.926   2.193  10.768 -2.3601  1.4792 -0.5907
  200DOPC  C21524841   1.980   2.401  10.757  0.2829  0.2004  0.1789
  200DOPC  H15R24842   1.876   2.434  10.739  0.1429  0.2305  1.0204
  200DOPC  H15S24843   2.048   2.458  10.690  0.6191 -0.4330 -0.0246
  200DOPC  C21624844   2.011   2.431  10.901  0.2983 -0.7756  0.5852
  200DOPC  H16R24845   2.120   2.409  10.912  0.4933 -1.1927 -1.6961
  200DOPC  H16S24846   1.958   2.356  10.962 -0.6551 -1.5066 -1.0715
  200DOPC  C21724847   1.978   2.583  10.944  0.7135 -0.0283 -0.5965
  200DOPC  H17R24848   2.009   2.658  10.869  0.2200  0.0088 -0.7657
  200DOPC  H17S24849   2.042   2.606  11.033  1.8760 -1.0244 -1.1462
  200DOPC  C21824850   1.825   2.613  10.974 -0.2634 -0.5338  0.3771
  200DOPC  H18R24851   1.779   2.541  11.044 -1.7675 -0.5411 -0.5913
  200DOPC  H18S24852   1.756   2.595  10.889 -0.3062 -1.1601  0.5421
  200DOPC  H18T24853   1.808   2.720  11.001 -0.5445 -0.4189 -0.2414
  200DOPC   C3324854   1.835   1.791   9.243 -0.0113  0.4397  0.4446
  200DOPC   H3X24855   1.785   1.815   9.339 -0.4087  2.2260 -0.1851
  200DOPC   H3Y24856   1.940   1.823   9.263  0.4053 -0.3386 -0.3821
  200DOPC   C3424857   1.830   1.636   9.231 -0.0106 -0.2088 -0.5073
  200DOPC   H4X24858   1.883   1.597   9.141  2.7384  0.0428  0.8971
  200DOPC   H4Y24859   1.724   1.604   9.221 -0.6877  1.8644 -0.5879
  200DOPC   C3524860   1.903   1.565   9.340 -0.4792 -0.7666 -0.1009
  200DOPC   H5X24861   2.014   1.569   9.337 -0.2396 -0.7912  3.8657
  200DOPC   H5Y24862   1.892   1.455   9.326 -0.1223 -1.0160  1.3722
  200DOPC   C3624863   1.867   1.604   9.481 -1.2573 -0.1752 -0.4636
  200DOPC   H6X24864   1.924   1.694   9.515 -0.2355  0.2139 -3.0292
  200DOPC   H6Y24865   1.761   1.634   9.492 -0.7769  1.4185  0.0775
  200DOPC   C3724866   1.886   1.484   9.575  1.0551 -0.1191  0.1206
  200DOPC   H7X24867   1.802   1.413   9.560  0.9045  0.5650 -2.8402
  200DOPC   H7Y24868   1.981   1.437   9.543  1.0602 -0.1704  0.2105
  200DOPC   C3824869   1.900   1.534   9.725 -0.0242 -0.3413  0.9747
  200DOPC   H8X24870   1.891   1.450   9.797  1.5663 -1.2039  0.2397
  200DOPC   H8Y24871   1.819   1.608   9.737  0.8133  1.2556 -2.0775
  200DOPC   C3924872   2.026   1.618   9.745  0.2339  0.1611  0.2275
  200DOPC   H9X24873   2.100   1.633   9.665 -0.4589  0.0245 -0.4457
  200DOPC  C31024874   2.043   1.702   9.851  0.2235  0.3475 -0.0856
  200DOPC  H10X24875   2.145   1.738   9.867  0.5331 -0.3038 -0.5364
  200DOPC  C31124876   1.949   1.714   9.971 -0.0949  0.3915 -0.3580
  200DOPC  H11X24877   1.850   1.664   9.959 -1.3601  2.5666  0.4040
  200DOPC  H11Y24878   1.940   1.819  10.006  3.5633  0.1731  1.7451
  200DOPC  C31224879   2.028   1.655  10.092 -0.9376  0.3987  0.3261
  200DOPC  H12X24880   2.132   1.694  10.091 -0.5370 -0.3412  3.3596
  200DOPC  H12Y24881   2.033   1.544  10.083 -1.1604  0.4785 -0.8295
  200DOPC  C31324882   1.953   1.671  10.228  0.0366 -1.2038  0.2692
  200DOPC  H13X24883   1.924   1.777  10.243 -0.0702 -0.6991 -2.8588
  200DOPC  H13Y24884   1.859   1.614  10.216 -0.0160 -1.0137 -0.2602
  200DOPC  C31424885   2.023   1.622  10.360  0.0180 -0.2146  0.2232
  200DOPC  H14X24886   2.028   1.511  10.366  0.2265 -0.2593 -0.5552
  200DOPC  H14Y24887   2.122   1.669  10.341 -1.0474  1.0718 -2.7339
  200DOPC  C31524888   1.955   1.669  10.489  0.5776 -0.1455 -0.0835
  200DOPC  H15X24889   1.850   1.632  10.488 -0.8560  3.4407  0.4586
  200DOPC  H15Y24890   1.962   1.780  10.481  3.0125 -0.1866  0.7168
  200DOPC  C31624891   2.023   1.631  10.624 -0.1707 -0.6506 -0.2975
  200DOPC  H16X24892   2.008   1.521  10.625  0.9322 -0.8809 -2.4208
  200DOPC  H16Y24893   2.133   1.650  10.616  0.3578 -2.0704  2.3013
  200DOPC  C31724894   1.962   1.702  10.745 -0.2238  0.3346  0.3600
  200DOPC  H17X24895   1.993   1.809  10.742  0.5757  0.0965 -0.5614
  200DOPC  H17Y24896   1.852   1.686  10.746 -0.1156 -0.5211  1.6139
  200DOPC  C31824897   2.005   1.638  10.875 -0.1285  0.1430  0.7036
  200DOPC  H18X24898   1.942   1.680  10.956  1.2120  1.8590  0.9200
  200DOPC  H18Y24899   2.013   1.528  10.880  0.8928  0.2299  1.2695
  200DOPC  H18Z24900   2.108   1.671  10.898 -0.1143  2.4555 -2.0862
  201SOD    SOD24901   6.162   3.513  15.851 -0.3261  0.4948  0.2043
  202SOD    SOD24902   5.368   6.604   7.057 -0.7150 -0.2425  0.4973
  203SOD    SOD24903   4.534   1.577  16.619 -0.8427  0.4548 -0.1998
  204SOD    SOD24904   1.283   0.159   7.232  0.2343  0.1977  0.1873
  205SOD    SOD24905   1.650   5.217  13.669  0.0346  0.2292  0.2367
  206SOD    SOD24906   5.788   3.856   6.013 -0.2296  0.2411  0.0022
  207SOD    SOD24907   2.910   5.641   8.259 -0.2548 -0.0562 -0.1411
  208SOD    SOD24908   1.108   2.893  14.664  0.1701  0.4822  0.2832
  209SOD    SOD24909   0.527   3.049   7.065  0.4829 -0.7853 -0.2564
  210SOD    SOD24910   3.583   0.252  16.182  0.1209  0.0499 -0.4298
  211SOD    SOD24911   4.371   4.093  13.673  0.2917 -0.0927  0.3163
  212SOD    SOD24912   5.582   5.494  16.153  0.6458 -0.0288  0.0991
  213SOD    SOD24913   1.375   1.970   7.254 -0.0342 -0.2687  0.0473
  214SOD    SOD24914   0.452   3.680  13.489  0.2782 -0.2939 -0.4355
  215SOD    SOD24915   5.846   0.152  16.034  0.6569  0.1991  0.2074
  216SOD    SOD24916   1.523   1.024  15.124  0.5797  0.3053 -0.1258
  217SOD    SOD24917   3.290   4.194   6.811  0.0409  0.1244 -0.1298
  218SOD    SOD24918   0.390   0.652  14.778 -0.3775 -0.2835  0.1687
  219SOD    SOD24919   1.749   3.027  15.866 -0.0237 -0.1482  0.2939
  220SOD    SOD24920   1.679   2.944   6.628  0.0770 -0.1970  0.6774
  221SOD    SOD24921   3.232   2.010   5.916 -0.2297  0.2180  0.2442
  222SOD    SOD24922   3.624   2.014  16.535 -0.1743 -0.0344  0.2489
  223SOD    SOD24923   6.339   6.327   8.856 -0.1130  0.2714  0.0823
  224SOD    SOD24924   3.139   0.525   8.977 -0.2397  0.3789 -0.1557
  225SOD    SOD24925   1.848   4.848   6.772 -0.3843 -0.2562  0.3365
  226SOD    SOD24926   4.852   6.479  15.066 -0.6768  0.2273  0.2476
  227CLA    CLA24927   1.318   6.679   8.872 -0.3886 -0.2533 -0.0380
  228CLA    CLA24928   1.320   4.789   6.444 -0.4232  0.1001 -0.5567
  229CLA    CLA24929   2.417   4.153   6.250  0.0150  0.3968  0.4725
  230CLA    CLA24930   1.544   3.149  14.597  0.0678 -0.1589  0.3929
  231CLA    CLA24931   2.738   1.473  14.783 -0.4499 -0.0247 -0.1728
  232CLA    CLA24932   4.731   5.902  16.037  0.0662  0.1155 -0.1826
  233CLA    CLA24933   0.959   1.557  14.424  0.5457 -0.2240  0.1627
  234CLA    CLA24934   3.932   4.715  16.203  0.0786  0.3355  0.2186
  235CLA    CLA24935   2.829   3.598   7.891  0.1832 -0.0947 -0.1073
  236CLA    CLA24936   2.271   1.443  16.342  0.3414  0.3345 -0.2974
  237CLA    CLA24937   1.530   0.784  15.537  0.0015 -0.2134 -0.1662
  238CLA    CLA24938   5.548   4.700   7.437 -0.1471 -0.5958 -0.2722
  239CLA    CLA24939   4.757   0.103   6.576 -0.3961 -0.3400  0.2882
  240CLA    CLA24940   0.258   5.201  14.302 -0.1055 -0.0966  0.0287
  241CLA    CLA24941   4.069   0.532   8.149 -0.4076 -0.0934 -0.1877
  242CLA    CLA24942   4.911   4.436  14.409  0.2179 -0.4476  0.4440
  243CLA    CLA24943   1.528   0.232   7.232  0.2107  0.0556 -0.0411
  244CLA    CLA24944   3.746   4.828   6.755  0.2569  0.0243  0.0363
  245CLA    CLA24945   2.306   2.539   6.668  0.1655  0.3452 -0.0389
  246CLA    CLA24946   5.952   1.010  14.594  0.0699 -0.0133 -0.0616
  247CLA    CLA24947   5.208   2.456   7.179 -0.1842 -0.4608  0.2641
  248CLA    CLA24948   5.639   0.094   7.481  0.0489 -0.1604 -0.1567
  249CLA    CLA24949   5.999   5.864   7.041  0.0510  0.2378  0.1001
  250CLA    CLA24950   1.432   3.649  16.901 -0.0658  0.2685 -0.1100
  251CLA    CLA24951   0.058   6.747  15.005  0.1928 -0.3787  0.5625
  252CLA    CLA24952   2.535   2.202   7.053 -0.2611 -0.2347 -0.0936
  253TIP3   OH224953   1.769   2.404  15.680 -0.0185 -0.2210  0.0861
  253TIP3    H124954   1.777   2.406  15.776 -1.0466  0.8481  0.1748
  253TIP3    H224955   1.848   2.447  15.649 -0.3290  0.7094  0.5287
  254TIP3   OH224956   4.624   1.050  17.290 -0.0050  0.2072 -0.0784
  254TIP3    H124957   4.578   1.027  17.370  2.1110  0.7774  1.3703
  254TIP3    H224958   4.631   0.968  17.241 -1.9958  0.0097 -0.0940
  255TIP3   OH224959   2.221   0.807  14.655  0.2233  0.3770  0.4690
  255TIP3    H124960   2.260   0.894  14.655  1.3660 -0.1049 -0.1061
  255TIP3    H224961   2.263   0.762  14.581 -0.7578 -0.4842  0.4082
  256TIP3   OH224962   4.384   3.926  14.606  0.0207  0.5948  0.1676
  256TIP3    H124963   4.393   3.833  14.589 -0.1367  0.5392  0.3798
  256TIP3    H224964   4.402   3.968  14.522 -0.0940  0.3652  0.0289
  257TIP3   OH224965   3.126   2.793  16.965 -0.1974  0.4969  0.1123
  257TIP3    H124966   3.079   2.852  16.906  0.5572  0.3657 -0.6554
  257TIP3    H224967   3.205   2.770  16.916  0.2004 -0.0270  0.9833
  258TIP3   OH224968   0.824   4.224  14.457  0.2399 -0.2315  0.4910
  258TIP3    H124969   0.767   4.267  14.393  0.7800 -1.4458 -0.8527
  258TIP3    H224970   0.764   4.191  14.524 -0.5736 -0.7204 -0.4450
  259TIP3   OH224971   2.070   1.703  15.810 -0.2767  0.0347 -0.0558
  259TIP3    H124972   1.998   1.641  15.820  0.1503 -0.3187  0.9879
  259TIP3    H224973   2.083   1.738  15.898  0.8766  0.0425 -0.2230
  260TIP3   OH224974   0.008   4.997  16.946 -0.0595  0.2618  0.2972
  260TIP3    H124975  -0.083   4.968  16.933  0.2229 -0.1037 -0.9335
  260TIP3    H224976   0.054   4.919  16.977  0.0682  0.1516 -0.1615
  261TIP3   OH224977   0.681   1.257  14.536  0.3340  0.2242  0.1226
  261TIP3    H124978   0.750   1.195  14.516  0.0053 -0.0128 -0.2764
  261TIP3    H224979   0.705   1.292  14.622  1.3495  0.7082 -0.3416
  262TIP3   OH224980   3.326   6.196  15.316  0.1589  0.0464 -0.4228
  262TIP3    H124981   3.291   6.284  15.303  1.1450  0.5935  0.4140
  262TIP3    H224982   3.379   6.179  15.238  0.0681  0.2554 -0.5296
  263TIP3   OH224983   5.469   1.110  15.527 -0.0689  0.3145 -0.3327
  263TIP3    H124984   5.384   1.143  15.499  0.2563  0.1668 -1.5462
  263TIP3    H224985   5.532   1.172  15.491  0.3418  0.5694  0.7815
  264TIP3   OH224986   3.557   5.134  17.275  0.3168  0.5361 -0.2597
  264TIP3    H124987   3.606   5.075  17.332  0.2555  1.3582  0.6573
  264TIP3    H224988   3.468   5.133  17.310 -0.0658 -0.0387 -1.2026
  265TIP3   OH224989   3.709   2.510  16.323  0.1633 -0.2400  0.0696
  265TIP3    H124990   3.637   2.573  16.320  1.2793  1.1048  0.6088
  265TIP3    H224991   3.728   2.492  16.231 -1.1726 -1.0192 -0.0805
  266TIP3   OH224992   3.944   0.914  16.497 -0.3941  0.2596  0.0715
  266TIP3    H124993   3.944   0.905  16.401 -0.0272  0.6027  0.0366
  266TIP3    H224994   3.893   0.839  16.528 -0.5908  0.1918 -0.3971
  267TIP3   OH224995   3.770   1.956  16.817  0.3448  0.5535  0.4605
  267TIP3    H124996   3.767   2.039  16.865 -1.2184  1.3960 -0.9978
  267TIP3    H224997   3.749   1.889  16.882  2.3811  1.1439  1.8412
  268TIP3   OH224998   2.563   3.216  14.615 -0.2050 -0.1024  0.6331
  268TIP3    H124999   2.558   3.121  14.629  1.5299 -0.4481 -0.7146
  268TIP3    H225000   2.657   3.235  14.614 -0.5004  1.4798 -0.0022
  269TIP3   OH225001   3.305   0.586  17.266  0.4852 -0.2083 -0.1425
  269TIP3    H125002   3.294   0.498  17.231  0.7595 -0.7354  1.0556
  269TIP3    H225003   3.365   0.575  17.339  1.7536  1.2174 -0.9128
  270TIP3   OH225004   4.486   3.512  15.967  0.1649 -0.0945 -0.0681
  270TIP3    H125005   4.425   3.460  16.020 -2.2567  1.7415 -0.8192
  270TIP3    H225006   4.484   3.469  15.881  0.1147 -0.1881 -0.0213
  271TIP3   OH225007   0.974   2.453  15.234  0.5168 -0.0610  0.0464
  271TIP3    H125008   0.920   2.379  15.205  0.7945 -0.0179 -0.6008
  271TIP3    H225009   0.976   2.512  15.158  0.5186  0.4843  0.4682
  272TIP3   OH225010   0.088   4.487  14.854 -0.2855  0.2141 -0.1887
  272TIP3    H125011   0.179   4.509  14.873 -0.3453  0.8079 -0.5540
  272TIP3    H225012   0.090   4.449  14.766 -0.4726  0.8740 -0.4856
  273TIP3   OH225013   3.434   6.060  16.128  0.1190  0.2813  0.2227
  273TIP3    H125014   3.385   6.134  16.163  0.5958  1.3846 -1.3555
  273TIP3    H225015   3.378   6.024  16.060  0.4813  0.0662  0.0318
  274TIP3   OH225016   0.586   3.119  15.376 -0.5709  0.3057  0.3299
  274TIP3    H125017   0.528   3.195  15.374 -1.7456 -0.5603 -2.0944
  274TIP3    H225018   0.673   3.155  15.358 -0.8066  1.2548  1.0029
  275TIP3   OH225019   4.830   2.155  16.803 -0.0385  0.4397  0.0517
  275TIP3    H125020   4.909   2.130  16.756  0.2929  3.6968 -1.3662
  275TIP3    H225021   4.861   2.199  16.882 -0.4035  1.3139 -0.2752
  276TIP3   OH225022   1.197   3.473  15.542 -0.1357  0.0828  0.2284
  276TIP3    H125023   1.221   3.537  15.476 -0.5511  0.7895  0.7490
  276TIP3    H225024   1.104   3.457  15.528  0.1310 -1.0129 -0.3988
  277TIP3   OH225025   4.751   0.314  13.817 -0.3166 -0.2687  0.1797
  277TIP3    H125026   4.842   0.319  13.787 -0.0834  2.1079  1.0796
  277TIP3    H225027   4.699   0.310  13.737  0.5515 -1.9201 -0.3414
  278TIP3   OH225028   1.593   1.905  16.311 -0.2285  0.0386 -0.5325
  278TIP3    H125029   1.605   1.974  16.376 -0.8139  0.5832 -0.9913
  278TIP3    H225030   1.606   1.824  16.360  0.0383  0.4607  0.1080
  279TIP3   OH225031   5.250   2.285  14.707  0.3282 -0.4818 -0.1694
  279TIP3    H125032   5.254   2.317  14.797  1.6838  0.0430 -0.3849
  279TIP3    H225033   5.217   2.196  14.714 -2.3552  0.4983  0.5574
  280TIP3   OH225034   2.906   5.813  17.408 -0.0700 -0.1788  0.2864
  280TIP3    H125035   2.981   5.861  17.444  0.0696 -1.1202  1.3027
  280TIP3    H225036   2.944   5.748  17.348 -0.2649  0.9906 -1.1708
  281TIP3   OH225037   6.330   3.364  16.760  0.1057  0.3085  0.0999
  281TIP3    H125038   6.284   3.441  16.792  2.5203  0.8189  2.7363
  281TIP3    H225039   6.341   3.379  16.666 -1.1444  2.2181  0.2238
  282TIP3   OH225040   0.971   5.168  17.236  0.5328 -0.0040  0.2403
  282TIP3    H125041   1.052   5.160  17.186 -0.3889  0.6135 -1.4340
  282TIP3    H225042   0.938   5.078  17.242 -0.0681  0.0566 -1.5869
  283TIP3   OH225043   4.200   1.562  15.747  0.0294 -0.1843  0.8217
  283TIP3    H125044   4.227   1.522  15.664  0.8451  0.2890  0.8551
  283TIP3    H225045   4.116   1.521  15.766  0.4818 -1.3056  0.4645
  284TIP3   OH225046   5.072   0.788   5.881  0.5780  0.3443  0.5900
  284TIP3    H125047   5.066   0.876   5.918 -2.3182  0.0823  0.9943
  284TIP3    H225048   5.004   0.738   5.926 -1.2572 -0.7634 -3.0249
  285TIP3   OH225049   0.057   3.734   7.413 -0.0348  0.3100 -0.4174
  285TIP3    H125050   0.106   3.679   7.352  1.2254  0.7064  0.1900
  285TIP3    H225051   0.121   3.801   7.440 -1.1986  1.4049 -0.2999
  286TIP3   OH225052   6.186   5.981   7.436 -0.8278  0.0192 -0.2266
  286TIP3    H125053   6.232   6.057   7.400  0.2682 -0.3346  0.3706
  286TIP3    H225054   6.180   6.000   7.530 -4.2841  1.2702 -0.5611
  287TIP3   OH225055   0.381   3.402   5.925  0.0080  0.7278  0.2255
  287TIP3    H125056   0.315   3.338   5.950  0.3784  0.1279 -0.3082
  287TIP3    H225057   0.451   3.350   5.884  0.8622  1.3221  0.8743
  288TIP3   OH225058   2.258   3.792   6.885  0.1391  0.1285 -0.0823
  288TIP3    H125059   2.251   3.801   6.790 -1.9032  2.0560  0.1496
  288TIP3    H225060   2.336   3.842   6.909  0.7244 -0.4535 -0.7267
  289TIP3   OH225061   3.219   0.366   5.990  0.5553  0.1551  0.6712
  289TIP3    H125062   3.282   0.354   6.062  1.2121  0.3976  0.1453
  289TIP3    H225063   3.219   0.460   5.974 -0.2237  0.2030  0.9039
  290TIP3   OH225064   6.148   3.218   8.219 -0.0120  0.1972  0.3195
  290TIP3    H125065   6.209   3.220   8.293 -1.4355  1.6292  1.5151
  290TIP3    H225066   6.067   3.183   8.256 -0.4805  0.0507 -0.8083
  291TIP3   OH225067   4.685   3.275   6.183  0.1339 -0.2342 -0.1814
  291TIP3    H125068   4.734   3.357   6.183 -0.6539  0.3015 -1.9126
  291TIP3    H225069   4.679   3.251   6.090 -0.5197 -1.7139  0.2132
  292TIP3   OH225070   3.180   2.194   7.944  0.1750 -0.1123 -1.1163
  292TIP3    H125071   3.099   2.167   7.899 -0.4447 -0.6670  0.2724
  292TIP3    H225072   3.235   2.116   7.944 -0.5870 -0.6886  0.6783
  293TIP3   OH225073   2.552   6.616   7.853 -0.5406  0.1901  0.1601
  293TIP3    H125074   2.642   6.585   7.866 -1.3390 -2.0776  0.8071
  293TIP3    H225075   2.527   6.581   7.767 -0.8575  0.6674  0.0554
  294TIP3   OH225076   5.791   6.390   6.536  0.0148  0.5501 -0.8102
  294TIP3    H125077   5.713   6.442   6.552 -0.4041  0.5142 -2.6117
  294TIP3    H225078   5.840   6.438   6.470  0.4876 -0.4650 -1.2232
  295TIP3   OH225079   5.838   3.833   6.243 -0.3610  0.2564  0.2115
  295TIP3    H125080   5.855   3.903   6.306  0.9819  0.0537  0.0972
  295TIP3    H225081   5.876   3.755   6.283 -0.2229 -0.0386 -0.4891
  296TIP3   OH225082   4.765   3.565   6.470 -0.3673  0.0647 -0.3881
  296TIP3    H125083   4.744   3.533   6.382 -1.5117  1.2219 -0.5641
  296TIP3    H225084   4.816   3.644   6.455  0.4531 -0.3724  0.0193
  297TIP3   OH225085   0.823   3.754   7.804  0.1328  0.1812  0.5169
  297TIP3    H125086   0.771   3.758   7.884  0.0160  1.3955  0.3939
  297TIP3    H225087   0.913   3.746   7.834  0.2128  1.9221  0.8204
  298TIP3   OH225088   3.519   3.243   6.868  0.4410  0.0953  0.1783
  298TIP3    H125089   3.513   3.149   6.854 -0.5599 -0.0708  1.5096
  298TIP3    H225090   3.586   3.253   6.935  1.9946  0.5193 -1.3768
  299TIP3   OH225091   4.750   2.351   8.464  0.4121 -0.2178 -0.0005
  299TIP3    H125092   4.677   2.343   8.525  0.5432 -1.3925  0.0373
  299TIP3    H225093   4.820   2.300   8.504  1.1522  0.6287 -0.1902
  300TIP3   OH225094   5.256   3.485   5.902  0.4302 -0.3480  0.6533
  300TIP3    H125095   5.289   3.509   5.815  0.6626 -2.7321  0.0051
  300TIP3    H225096   5.327   3.510   5.962  1.3046 -0.8371 -0.1395
  301TIP3   OH225097   2.939   1.889   8.201 -0.2563  0.6345  0.6523
  301TIP3    H125098   2.914   1.915   8.113 -0.6592 -2.7588 -0.3766
  301TIP3    H225099   2.856   1.863   8.242  0.3040 -0.8810  0.8624
  302TIP3   OH225100   3.613   1.922   7.673 -0.0711 -0.2444 -0.3803
  302TIP3    H125101   3.685   1.979   7.645 -0.6022  0.0539 -1.2020
  302TIP3    H225102   3.569   1.972   7.742 -0.4075  0.2614 -0.9498
  303TIP3   OH225103   4.056   6.644   6.506  0.8605 -0.1608 -0.5926
  303TIP3    H125104   4.139   6.642   6.458  0.4121 -1.8746 -1.3967
  303TIP3    H225105   3.995   6.687   6.446  0.4790 -1.6371 -1.3177
  304TIP3   OH225106   6.260   3.450   8.422  0.2413 -0.3296  0.0031
  304TIP3    H125107   6.313   3.528   8.440  0.7845 -0.8969  0.9671
  304TIP3    H225108   6.174   3.470   8.459  0.8341 -0.7768  1.7647
  305TIP3   OH225109   1.278   5.848   7.791  0.3136  0.1565  0.3625
  305TIP3    H125110   1.252   5.852   7.883  0.1442  0.6792  0.2912
  305TIP3    H225111   1.199   5.871   7.742 -0.2638 -2.3178 -0.0229
  306TIP3   OH225112   0.110   5.244   5.637  0.3625  0.6807 -0.0269
  306TIP3    H125113   0.169   5.298   5.584  0.0168  0.4030 -0.7030
  306TIP3    H225114   0.057   5.307   5.685 -1.2695  1.0485 -2.1409
  307TIP3   OH225115   0.872   0.297   5.973 -0.0646 -0.0727 -0.0508
  307TIP3    H125116   0.847   0.338   6.055 -1.5171 -1.4580  0.2505
  307TIP3    H225117   0.918   0.217   5.999 -0.0573 -0.2454 -0.5739
  308TIP3   OH225118   1.417   3.408   6.203 -0.3977 -0.2818 -0.1705
  308TIP3    H125119   1.356   3.466   6.248 -0.1952 -0.2450  0.0599
  308TIP3    H225120   1.401   3.423   6.110  0.5012  1.0733 -0.1410
  309TIP3   OH225121   4.870   2.909   5.897  0.2621 -0.0964 -0.0682
  309TIP3    H125122   4.786   2.936   5.935  1.6852  2.0674  1.8624
  309TIP3    H225123   4.917   2.992   5.883  2.0262 -1.2221 -1.1900
  310TIP3   OH225124   6.088   0.967   6.519 -0.1250  0.0524 -0.5130
  310TIP3    H125125   6.058   1.036   6.459 -0.6186  0.4164  0.1393
  310TIP3    H225126   6.057   0.886   6.480 -0.9267  0.3297 -0.4854
  311TIP3   OH225127   5.960   0.744   6.434  0.2288  0.0063  0.0898
  311TIP3    H125128   5.965   0.654   6.467  0.1839 -0.1556 -0.3304
  311TIP3    H225129   5.883   0.744   6.377  0.7374  0.0705 -0.6191
  312TIP3   OH225130   5.367   4.293   7.245 -0.1914 -0.6857  0.1246
  312TIP3    H125131   5.400   4.254   7.325  0.1455  1.9130  1.3627
  312TIP3    H225132   5.283   4.331   7.270 -0.5464 -0.6819 -1.0246
  313TIP3   OH225133   3.768   1.465   8.729 -0.0974  0.1742  0.1393
  313TIP3    H125134   3.856   1.428   8.729  0.3862  1.2841 -0.4671
  313TIP3    H225135   3.733   1.444   8.816  0.3530 -1.1964  0.0089
  314TIP3   OH225136   6.094   3.726   7.962 -0.3825  0.6771  0.1491
  314TIP3    H125137   6.097   3.662   8.033 -1.3470  1.3007  0.7599
  314TIP3    H225138   6.001   3.742   7.947 -0.1664  1.4330 -0.4630
  315TIP3   OH225139   4.020   5.925   6.992  0.1394  0.2579  0.5992
  315TIP3    H125140   4.030   5.830   6.999 -1.7068  0.1053  2.3443
  315TIP3    H225141   4.025   5.956   7.082 -0.0119  1.7337  0.1230
  316TIP3   OH225142   0.924   2.150   6.494  0.3274 -0.0111 -0.5819
  316TIP3    H125143   0.935   2.055   6.498  0.1799  0.0138  0.8178
  316TIP3    H225144   0.907   2.168   6.401  3.1711 -1.0119 -1.3889
  317TIP3   OH225145   6.279   1.486   7.836  0.4489 -0.4071  0.2548
  317TIP3    H125146   6.309   1.563   7.885 -1.0819  0.9056 -0.7911
  317TIP3    H225147   6.305   1.411   7.890  0.1160  0.9180  2.3321
  318TIP3   OH225148   4.811   4.724   5.695 -0.0647  0.1693 -0.1393
  318TIP3    H125149   4.817   4.642   5.743  0.5141  0.3596  0.1147
  318TIP3    H225150   4.737   4.770   5.735 -0.7032 -0.4284 -0.6036
  319TIP3   OH225151   0.926   0.375   9.033 -0.0616 -0.3154 -0.0755
  319TIP3    H125152   0.965   0.437   9.095  0.6104  0.7429 -1.5021
  319TIP3    H225153   0.832   0.386   9.044  0.0541  0.2425  0.3912
  320TIP3   OH225154   0.951   4.483   6.094 -0.1567 -0.2411 -0.3258
  320TIP3    H125155   0.938   4.496   6.000 -2.3185  1.0036  0.0662
  320TIP3    H225156   1.044   4.498   6.108 -0.2180  2.2696 -1.9176
  321TIP3   OH225157   0.482   6.051   6.645  0.4013 -0.0120 -0.3226
  321TIP3    H125158   0.531   6.116   6.694  0.9200 -0.6998  0.0735
  321TIP3    H225159   0.422   6.103   6.590  0.3928  0.7748  0.4167
  322TIP3   OH225160   4.088   1.261   6.973  0.3393 -0.6583  0.2260
  322TIP3    H125161   4.078   1.356   6.970 -0.9281 -0.7864 -0.8680
  322TIP3    H225162   4.165   1.244   6.919  1.2601 -0.1887  1.3722
  323TIP3   OH225163   1.674   5.941  17.189 -0.3477  0.4636  0.1319
  323TIP3    H125164   1.735   5.890  17.135  1.0637 -0.4605  2.4304
  323TIP3    H225165   1.590   5.898  17.178 -0.1479  0.4413 -1.4626
  324TIP3   OH225166   1.450   6.712  15.043  0.3320  1.0565  0.2834
  324TIP3    H125167   1.390   6.648  15.004  1.9180  0.4908 -1.4512
  324TIP3    H225168   1.437   6.704  15.137 -2.2289  0.9491 -0.0173
  325TIP3   OH225169   0.388   0.058  15.245  0.2533  0.2246  0.6699
  325TIP3    H125170   0.347   0.125  15.190 -1.8201 -0.6002  1.1099
  325TIP3    H225171   0.361  -0.025  15.205  1.8508 -0.3669  0.7822
  326TIP3   OH225172   3.469   1.015  15.207  0.2528 -0.8784  0.2241
  326TIP3    H125173   3.404   0.991  15.142 -0.4350 -0.1984  0.6514
  326TIP3    H225174   3.441   0.970  15.287 -1.3809  1.6723  1.1941
  327TIP3   OH225175   1.620   1.472  16.151  0.1076  0.0964  0.4757
  327TIP3    H125176   1.606   1.401  16.214 -0.7417  0.2244  0.4528
  327TIP3    H225177   1.639   1.548  16.206 -1.1486  0.3272  0.6376
  328TIP3   OH225178   3.390   4.740  16.270 -0.4443  0.5924  0.0325
  328TIP3    H125179   3.394   4.734  16.366 -0.9346  1.0302  0.0830
  328TIP3    H225180   3.468   4.693  16.240  0.2813  1.3580  0.6759
  329TIP3   OH225181   5.760   1.050  15.590 -0.0120  0.4989  0.1669
  329TIP3    H125182   5.839   1.072  15.638  0.0410 -0.0141  0.3264
  329TIP3    H225183   5.689   1.061  15.653 -0.0615  0.8832  0.0466
  330TIP3   OH225184   0.511   0.634  14.319 -0.3190 -0.1192 -0.9274
  330TIP3    H125185   0.552   0.552  14.290 -0.3653  0.0971 -1.6291
  330TIP3    H225186   0.486   0.678  14.238 -0.5177  0.4804 -0.5465
  331TIP3   OH225187   5.352   4.599  17.084  0.4526  0.0759 -0.2124
  331TIP3    H125188   5.347   4.504  17.078  2.1023 -0.0311 -0.3414
  331TIP3    H225189   5.443   4.617  17.110  0.4877  1.6635 -1.3005
  332TIP3   OH225190   6.494   5.130  16.032 -0.0457 -0.1822  0.1992
  332TIP3    H125191   6.541   5.179  15.965 -1.5770  0.8435 -0.1949
  332TIP3    H225192   6.562   5.099  16.092  1.2992 -0.6434 -1.4935
  333TIP3   OH225193   5.509   0.612  15.131  0.4578  0.3477 -0.4910
  333TIP3    H125194   5.538   0.659  15.053 -2.2762 -0.0861 -1.8895
  333TIP3    H225195   5.444   0.670  15.171 -0.6826 -0.8565 -0.5159
  334TIP3   OH225196   6.007   1.452  14.908  0.0485 -0.3530 -0.1378
  334TIP3    H125197   6.101   1.453  14.888  0.0392 -0.3883 -0.1846
  334TIP3    H225198   5.988   1.361  14.932  0.0911 -0.2765  0.1908
  335TIP3   OH225199   0.179   2.433  16.759  0.1611 -0.0684 -0.0073
  335TIP3    H125200   0.256   2.434  16.816  0.4638  1.4659 -0.3853
  335TIP3    H225201   0.204   2.485  16.683 -0.8789 -0.4952 -0.6733
  336TIP3   OH225202   6.224   5.543  15.599  0.0032 -0.3853  0.1124
  336TIP3    H125203   6.154   5.582  15.546 -0.0857 -0.0397  0.4823
  336TIP3    H225204   6.178   5.499  15.671  0.1867  0.3164  0.6711
  337TIP3   OH225205   2.774   4.970  16.499  0.2961 -0.1012  0.5182
  337TIP3    H125206   2.695   5.017  16.473  0.4078 -0.4515 -0.4610
  337TIP3    H225207   2.753   4.878  16.487  0.5928 -0.2396  1.0116
  338TIP3   OH225208   2.414   6.100  16.779 -0.0464  0.4282  0.1585
  338TIP3    H125209   2.408   6.091  16.874 -0.1851 -0.4523  0.0742
  338TIP3    H225210   2.325   6.116  16.750  0.0320  0.9631  0.1890
  339TIP3   OH225211   4.279   6.635  14.791 -0.0149 -0.1382 -0.2133
  339TIP3    H125212   4.273   6.548  14.829 -0.8089  0.6936  1.7182
  339TIP3    H225213   4.189   6.662  14.777  0.2332 -0.5418 -3.2024
  340TIP3   OH225214   6.614   0.230  16.065 -0.3430  0.7573  0.1162
  340TIP3    H125215   6.524   0.247  16.091 -0.6002 -1.9438  1.3043
  340TIP3    H225216   6.666   0.290  16.118 -1.3169  0.3848  1.5322
  341TIP3   OH225217   4.248   0.536  15.899 -0.4964 -0.3883 -0.3980
  341TIP3    H125218   4.204   0.469  15.846 -2.2924  1.3448 -1.2266
  341TIP3    H225219   4.341   0.528  15.876 -0.6855 -2.4193 -0.6118
  342TIP3   OH225220   2.152   2.266  16.446  0.1186 -0.6551 -0.2882
  342TIP3    H125221   2.081   2.233  16.502  1.3249  0.5916  2.1199
  342TIP3    H225222   2.231   2.228  16.484  0.9700 -0.0100 -1.3865
  343TIP3   OH225223   3.807   2.673  14.995 -0.1950  0.3632 -0.0475
  343TIP3    H125224   3.843   2.631  14.917 -0.0404  0.0663  0.1813
  343TIP3    H225225   3.719   2.638  15.003 -0.7533  1.4991 -0.9157
  344TIP3   OH225226   4.759   2.436  14.135  0.1859  0.0281  0.2548
  344TIP3    H125227   4.820   2.425  14.062  1.2636  1.7821  0.8110
  344TIP3    H225228   4.695   2.500  14.104  0.9715  1.2123  0.9770
  345TIP3   OH225229   1.969   3.594  16.143 -0.2865 -0.5167  0.2399
  345TIP3    H125230   2.007   3.615  16.057 -2.1377  1.6379 -0.1439
  345TIP3    H225231   1.930   3.507  16.130 -0.8140 -0.1047 -1.2487
  346TIP3   OH225232   6.480   2.011  16.554  0.5464 -0.7249  0.3735
  346TIP3    H125233   6.477   2.085  16.493  1.0970  0.4210  1.7056
  346TIP3    H225234   6.526   1.942  16.505 -0.0397 -0.2405 -0.9053
  347TIP3   OH225235   4.579   2.370  15.553 -0.0505  0.4269  0.4196
  347TIP3    H125236   4.514   2.308  15.521  0.8272  0.2761 -1.1396
  347TIP3    H225237   4.567   2.370  15.648 -0.7196 -1.3784  0.3637
  348TIP3   OH225238   6.371   4.603  15.684  0.1239  0.6018  0.0062
  348TIP3    H125239   6.312   4.678  15.693 -0.9887 -0.3549  1.0219
  348TIP3    H225240   6.314   4.532  15.656  1.2065  0.1676 -1.1994
  349TIP3   OH225241   3.191   4.273  15.045  0.3113  0.3849 -0.1892
  349TIP3    H125242   3.201   4.178  15.041  0.4125  0.3920 -0.0955
  349TIP3    H225243   3.175   4.299  14.955  0.0158  0.2468 -0.1795
  350TIP3   OH225244   4.289   3.228  15.309 -0.3298  0.1785 -0.2637
  350TIP3    H125245   4.296   3.148  15.258 -0.9213  0.4748 -0.8252
  350TIP3    H225246   4.273   3.297  15.244 -0.7918  0.6050  0.2918
  351TIP3   OH225247   6.551   1.112  16.549  0.0084  0.3075 -0.3636
  351TIP3    H125248   6.622   1.165  16.513  0.6993 -1.3540 -1.5497
  351TIP3    H225249   6.590   1.065  16.623  0.2830 -0.8966 -1.2516
  352TIP3   OH225250   1.378   5.592  15.535  0.4591  0.4681  0.2956
  352TIP3    H125251   1.453   5.544  15.570  0.4810 -0.2856 -0.7088
  352TIP3    H225252   1.394   5.594  15.440 -1.3858 -0.8488 -0.1158
  353TIP3   OH225253   4.921   2.023  15.129  0.1196  0.2146  0.0553
  353TIP3    H125254   4.873   1.995  15.051  1.1771 -2.1633  0.1741
  353TIP3    H225255   5.010   2.041  15.098 -0.1588  2.1978  0.2584
  354TIP3   OH225256   5.511   2.860  14.183 -0.5671 -0.2194  0.1974
  354TIP3    H125257   5.449   2.880  14.113 -0.6032 -1.0237 -0.0134
  354TIP3    H225258   5.458   2.818  14.251 -0.1098 -1.9041 -0.4339
  355TIP3   OH225259   2.245   3.580  15.032 -0.3182  0.1596 -0.1051
  355TIP3    H125260   2.206   3.580  14.945 -0.9687  2.2757  0.1301
  355TIP3    H225261   2.174   3.550  15.090 -0.8117  1.5023  0.0111
  356TIP3   OH225262   5.602   0.353  15.066 -0.1475 -0.2738 -0.2934
  356TIP3    H125263   5.560   0.430  15.104  1.6852  1.3941 -1.4389
  356TIP3    H225264   5.680   0.339  15.121  1.3394  0.8345 -1.9902
  357TIP3   OH225265   0.742   5.084  14.071  0.1541 -0.5007 -0.1339
  357TIP3    H125266   0.677   5.064  14.138 -0.2525 -0.4382 -0.5020
  357TIP3    H225267   0.722   5.174  14.044  2.0334  0.5185  1.5839
  358TIP3   OH225268   5.787   2.292  15.191 -0.2511 -0.7751 -0.4504
  358TIP3    H125269   5.734   2.354  15.142 -0.6161 -1.4465 -0.9237
  358TIP3    H225270   5.869   2.338  15.209 -0.8154  0.1067 -0.1058
  359TIP3   OH225271   0.247   1.444  13.853 -0.2155  0.1889 -0.4028
  359TIP3    H125272   0.213   1.522  13.809  0.9806  1.0433  0.1097
  359TIP3    H225273   0.284   1.391  13.782 -0.2942  0.4886 -0.6693
  360TIP3   OH225274   0.249   4.508  16.753  0.3332  0.6083 -0.6006
  360TIP3    H125275   0.326   4.498  16.698  1.1608 -0.4148  0.6667
  360TIP3    H225276   0.205   4.423  16.749 -0.8384  1.2293 -1.4292
  361TIP3   OH225277   0.753   2.876  16.141  0.9287 -0.3753 -0.0426
  361TIP3    H125278   0.715   2.962  16.125  1.5350 -0.1698 -0.3957
  361TIP3    H225279   0.847   2.891  16.148  0.9556 -0.8794  0.8392
  362TIP3   OH225280   4.475   2.914  15.586  0.1857  0.0675  0.2857
  362TIP3    H125281   4.475   2.964  15.667 -2.3863  2.7798 -1.2033
  362TIP3    H225282   4.568   2.894  15.571  1.0098  1.7415  2.5362
  363TIP3   OH225283   2.333   0.072  16.926  0.5233 -0.4406 -0.0964
  363TIP3    H125284   2.266   0.076  16.995  0.8289  0.9952  0.1623
  363TIP3    H225285   2.329  -0.018  16.893 -1.5658 -0.3707 -0.1369
  364TIP3   OH225286   0.433   3.829  14.038  0.0671  0.4054  0.2250
  364TIP3    H125287   0.428   3.875  13.954 -1.9637 -1.2634 -0.6526
  364TIP3    H225288   0.414   3.738  14.017 -0.8809 -0.0089  2.5504
  365TIP3   OH225289   6.365   3.196  14.320  0.3875  0.2764  0.3294
  365TIP3    H125290   6.291   3.218  14.264 -0.8315  0.5122  1.9522
  365TIP3    H225291   6.425   3.146  14.263 -1.8282 -1.5014 -0.6037
  366TIP3   OH225292   5.574   5.987  17.009 -0.0654  0.1283 -0.5184
  366TIP3    H125293   5.543   5.899  16.991  0.0856  0.2821 -1.5928
  366TIP3    H225294   5.661   5.991  16.970 -0.8907  1.3809 -2.3990
  367TIP3   OH225295   0.778   6.699  14.064 -0.1000  0.3759  0.1447
  367TIP3    H125296   0.845   6.734  14.004 -0.6665 -0.0080 -0.7299
  367TIP3    H225297   0.764   6.769  14.127 -1.2233  1.7992 -1.5711
  368TIP3   OH225298   1.345   3.543  15.767  0.0135  0.0958  0.4116
  368TIP3    H125299   1.295   3.623  15.782  1.7531  1.4532 -0.5903
  368TIP3    H225300   1.298   3.497  15.697 -1.4938 -0.2647  1.6045
  369TIP3   OH225301   0.089   4.210  15.503  0.4842  0.3872 -0.5842
  369TIP3    H125302   0.019   4.147  15.517 -0.2252  1.2496 -0.1921
  369TIP3    H225303   0.161   4.158  15.468 -0.1330 -0.6136 -0.3993
  370TIP3   OH225304   1.048   1.834  14.748  0.0468  0.0183  0.4189
  370TIP3    H125305   1.005   1.905  14.702  1.4324 -0.3194 -1.4999
  370TIP3    H225306   1.047   1.861  14.840  0.0883  2.2746 -0.1938
  371TIP3   OH225307   3.610   0.575  16.633  0.0402 -0.2386 -0.2661
  371TIP3    H125308   3.617   0.526  16.714  0.3330 -0.9953 -0.7359
  371TIP3    H225309   3.516   0.590  16.622 -0.1139 -1.2431 -0.4199
  372TIP3   OH225310   6.185   2.933  16.358 -0.5617 -0.2782  0.0873
  372TIP3    H125311   6.091   2.919  16.347 -0.7576  0.6670  0.4616
  372TIP3    H225312   6.206   3.006  16.300 -0.3573  0.4709  1.0784
  373TIP3   OH225313   5.920   3.529  14.296  0.9326 -0.9038  0.4262
  373TIP3    H125314   5.855   3.565  14.356 -0.1949 -1.6392 -0.3114
  373TIP3    H225315   5.976   3.474  14.351 -0.5697 -2.2141  0.7334
  374TIP3   OH225316   2.840   1.530  15.371 -0.4514  0.1836  0.0714
  374TIP3    H125317   2.873   1.456  15.319  0.8892 -0.3929  1.6656
  374TIP3    H225318   2.793   1.490  15.444 -0.4992  0.9211  0.4586
  375TIP3   OH225319   3.695   2.225  14.520  0.0115  0.3901  0.0038
  375TIP3    H125320   3.768   2.215  14.582 -1.7733 -1.5732  1.9685
  375TIP3    H225321   3.720   2.172  14.445  0.6312 -0.2050  0.6152
  376TIP3   OH225322   4.281   0.760  16.581  0.4325 -0.3547 -0.2344
  376TIP3    H125323   4.257   0.806  16.661 -0.6039  0.4298 -0.9743
  376TIP3    H225324   4.344   0.694  16.609 -0.5713 -0.6780  1.3589
  377TIP3   OH225325   2.630   2.877  15.361  0.3937  0.3126  0.0476
  377TIP3    H125326   2.600   2.944  15.422 -2.2210 -0.8120  0.1330
  377TIP3    H225327   2.699   2.830  15.408  1.1303  1.8798  0.5822
  378TIP3   OH225328   2.424   5.190  16.773 -0.6208 -0.3016  0.7587
  378TIP3    H125329   2.398   5.243  16.849 -1.9913  0.7695 -0.3879
  378TIP3    H225330   2.343   5.150  16.743 -0.0494 -0.9398  0.0223
  379TIP3   OH225331   1.714   4.738  14.512  0.0772 -0.3929  0.0487
  379TIP3    H125332   1.681   4.828  14.523 -1.9526 -1.1024  0.1323
  379TIP3    H225333   1.788   4.733  14.573 -0.9910  0.6439  1.5149
  380TIP3   OH225334   3.192   2.317  14.847  0.1142  0.3104 -0.3800
  380TIP3    H125335   3.220   2.402  14.880 -2.2691  0.6055  1.1245
  380TIP3    H225336   3.247   2.302  14.770  1.5895  2.5085  0.1408
  381TIP3   OH225337   2.697   2.649  13.940 -0.0107 -0.3659  0.2432
  381TIP3    H125338   2.744   2.571  13.970 -2.0930 -2.3491 -1.3369
  381TIP3    H225339   2.739   2.671  13.857  2.0543  1.7085  1.6995
  382TIP3   OH225340   0.638   2.771  14.024 -0.3959  0.3347  0.3831
  382TIP3    H125341   0.598   2.723  14.096 -1.0107  1.8133  1.0501
  382TIP3    H225342   0.689   2.704  13.977 -1.0123 -0.9095  1.4154
  383TIP3   OH225343   2.629   4.113  15.374 -0.1100  0.0208 -0.0077
  383TIP3    H125344   2.719   4.103  15.343 -0.7591 -2.7124 -1.3151
  383TIP3    H225345   2.581   4.143  15.297 -0.6067 -0.2566  0.1944
  384TIP3   OH225346   0.338   4.735  14.048 -0.0547 -0.6374 -0.4823
  384TIP3    H125347   0.358   4.750  14.140 -0.3697  1.1061 -0.6583
  384TIP3    H225348   0.372   4.647  14.030  0.1462 -0.9521  1.2394
  385TIP3   OH225349   5.029   6.749  15.543  0.4307 -0.2414 -0.5809
  385TIP3    H125350   5.015   6.842  15.526  0.0055 -0.3162 -0.6596
  385TIP3    H225351   5.119   6.732  15.514  0.5995  0.2007 -0.3225
  386TIP3   OH225352   1.908   6.691  15.511 -0.2369 -0.2556  0.3479
  386TIP3    H125353   1.908   6.748  15.434 -0.3538 -0.2026  0.3869
  386TIP3    H225354   1.817   6.691  15.541  0.0764  0.9781  1.4025
  387TIP3   OH225355   6.198   1.020  15.074  0.0929  0.2050  0.0162
  387TIP3    H125356   6.118   0.972  15.097 -0.3198  1.0595  0.4126
  387TIP3    H225357   6.269   0.966  15.109 -0.3068 -0.5031 -0.2294
  388TIP3   OH225358   6.141   3.880  16.493  0.0605  0.2071 -0.8720
  388TIP3    H125359   6.175   3.964  16.525  1.0657 -0.3001 -0.5750
  388TIP3    H225360   6.143   3.888  16.398  0.1703  0.5054 -0.8458
  389TIP3   OH225361   3.308   0.291  14.262 -0.1372 -0.1278  0.4965
  389TIP3    H125362   3.292   0.214  14.317 -0.6624  1.7123  3.0609
  389TIP3    H225363   3.261   0.271  14.181 -0.0486 -2.5943  0.9572
  390TIP3   OH225364   0.321   1.810  15.011  0.9903  0.8606 -0.4815
  390TIP3    H125365   0.321   1.749  15.085 -1.4107  2.6945  1.1918
  390TIP3    H225366   0.281   1.761  14.939 -2.8988  0.8219  1.4083
  391TIP3   OH225367   4.159   2.991  14.281 -0.3836 -0.8552 -0.1566
  391TIP3    H125368   4.172   2.993  14.186 -2.0218  1.0412 -0.3931
  391TIP3    H225369   4.185   2.902  14.307 -0.2970 -1.5480 -2.4290
  392TIP3   OH225370   0.379   1.050  16.486  0.3240  0.2368  0.0060
  392TIP3    H125371   0.318   1.106  16.438 -1.3283 -1.9630 -0.6496
  392TIP3    H225372   0.464   1.066  16.446  0.1131  2.9056  0.4894
  393TIP3   OH225373   1.692   6.046  15.491  0.6702  0.0699  0.3465
  393TIP3    H125374   1.756   6.062  15.421  0.6589 -0.8884  0.1048
  393TIP3    H225375   1.735   6.080  15.570  1.1318  0.1795  0.0556
  394TIP3   OH225376   1.227   4.010  14.882  0.0762 -0.2459  0.5995
  394TIP3    H125377   1.300   4.065  14.913 -0.1412  0.3309  0.1085
  394TIP3    H225378   1.268   3.950  14.820  0.1382  0.0845  0.3151
  395TIP3   OH225379   2.228   1.203  13.335  0.8156 -0.1755  0.1491
  395TIP3    H125380   2.183   1.135  13.384 -1.1692  0.8166 -0.1848
  395TIP3    H225381   2.236   1.168  13.246  1.3102 -0.6030  0.3548
  396TIP3   OH225382   1.877   2.208  14.038 -0.1870  0.2149  0.0273
  396TIP3    H125383   1.957   2.261  14.047 -1.6177  2.6858 -0.7689
  396TIP3    H225384   1.810   2.271  14.012 -1.6129 -2.3147 -3.1829
  397TIP3   OH225385   6.559   6.124  14.645  0.3026  0.2600  0.9655
  397TIP3    H125386   6.510   6.200  14.676 -0.2044  1.0941 -1.6378
  397TIP3    H225387   6.503   6.049  14.664  1.0852  0.3678  4.1479
  398TIP3   OH225388   0.033   0.786  15.902  0.0629  0.2472  0.0714
  398TIP3    H125389   0.108   0.840  15.926  0.7834 -0.8628  0.3949
  398TIP3    H225390  -0.022   0.786  15.980  0.1620  0.3497  0.1424
  399TIP3   OH225391   3.726   2.168  14.248  0.2354  0.0377  0.0808
  399TIP3    H125392   3.693   2.256  14.268  0.1358 -0.1033  0.5527
  399TIP3    H225393   3.802   2.183  14.193 -1.0589  0.3536 -1.7020
  400TIP3   OH225394   6.097   1.892  15.371 -0.3112 -0.7482  0.0568
  400TIP3    H125395   6.139   1.821  15.321 -2.0451 -0.5814 -1.7664
  400TIP3    H225396   6.136   1.972  15.335  2.0168 -0.6482  2.4554
  401TIP3   OH225397   2.903   2.015  15.871  0.9575 -0.1541 -0.4475
  401TIP3    H125398   2.952   2.098  15.879  0.2638  0.1014  1.6413
  401TIP3    H225399   2.815   2.042  15.844  0.7885 -0.2207  0.0317
  402TIP3   OH225400   5.414   3.452  16.297  0.3168  1.0234 -0.1871
  402TIP3    H125401   5.471   3.528  16.307  0.2935  1.4266 -2.4842
  402TIP3    H225402   5.416   3.433  16.203 -0.8609 -0.8998  0.1212
  403TIP3   OH225403   1.578   6.428  14.891 -0.0321  0.3972 -0.3771
  403TIP3    H125404   1.576   6.497  14.824  1.0437  0.1744 -0.6614
  403TIP3    H225405   1.610   6.471  14.970 -0.8581  0.5588 -0.1259
  404TIP3   OH225406   2.240   3.519  14.171 -0.5431 -0.1963  0.3725
  404TIP3    H125407   2.248   3.424  14.175  0.9705 -0.0566  2.0740
  404TIP3    H225408   2.173   3.535  14.104 -1.3194 -2.4493  0.5331
  405TIP3   OH225409   4.542   1.038  14.387 -0.5352 -0.3321 -0.4801
  405TIP3    H125410   4.618   1.061  14.334 -1.3382  0.0779 -1.5019
  405TIP3    H225411   4.565   1.063  14.476  0.2799  0.3873 -0.8827
  406TIP3   OH225412   3.263   2.972  16.354  0.3649 -0.3414 -0.5141
  406TIP3    H125413   3.334   3.018  16.397  1.3760 -3.0894  1.0209
  406TIP3    H225414   3.204   3.041  16.323  1.4840  1.9108  2.0052
  407TIP3   OH225415   2.681   4.422  14.073 -0.4756  0.3162  0.3951
  407TIP3    H125416   2.622   4.423  14.149 -0.9037 -0.0274  0.0739
  407TIP3    H225417   2.635   4.369  14.008 -0.5317  1.3610 -0.4383
  408TIP3   OH225418   1.197   2.291  15.189  0.0447 -0.1115 -0.3124
  408TIP3    H125419   1.188   2.381  15.220 -0.8118 -0.7130  1.2960
  408TIP3    H225420   1.168   2.294  15.098 -1.2034  1.0186  0.0859
  409TIP3   OH225421   2.513   6.009  17.038 -0.6623  0.0390 -0.3765
  409TIP3    H125422   2.528   5.923  16.998 -0.2058  0.2573 -0.6742
  409TIP3    H225423   2.420   6.007  17.063 -1.0625  0.0159 -1.7577
  410TIP3   OH225424   2.264   1.201  14.367 -0.7636 -0.2032 -0.3424
  410TIP3    H125425   2.273   1.124  14.423 -0.6324  0.0407 -0.0217
  410TIP3    H225426   2.349   1.244  14.371 -0.6283 -0.3972 -1.0539
  411TIP3   OH225427   2.915   6.086  14.943  0.3709  0.6251 -0.4624
  411TIP3    H125428   2.998   6.045  14.917  0.5002  0.2984  0.4522
  411TIP3    H225429   2.931   6.118  15.032  0.5336  3.3598 -1.3699
  412TIP3   OH225430   1.046   2.339  14.470  0.2592 -0.4598  0.0580
  412TIP3    H125431   0.989   2.320  14.395  1.2123 -0.5309 -0.6822
  412TIP3    H225432   1.105   2.263  14.475  1.3612  0.3426 -0.2657
  413TIP3   OH225433   2.896   5.648  16.057 -0.1291  0.2355  0.2003
  413TIP3    H125434   2.887   5.570  16.111 -1.3253 -0.0487 -0.3689
  413TIP3    H225435   2.812   5.693  16.066 -0.2475  0.3402 -1.1601
  414TIP3   OH225436   6.431   0.675  16.282  0.5373 -0.2111 -0.3776
  414TIP3    H125437   6.362   0.699  16.344  2.1674  1.2489  0.9782
  414TIP3    H225438   6.428   0.744  16.215  1.8767  1.0237  0.7505
  415TIP3   OH225439   3.461   2.504  16.099  0.1120  0.4389 -0.4660
  415TIP3    H125440   3.428   2.544  16.018 -1.9489 -0.9513 -0.3657
  415TIP3    H225441   3.399   2.531  16.166  0.7623  0.0321  0.3138
  416TIP3   OH225442   2.535   3.760  16.835 -0.4850 -0.3919  0.4949
  416TIP3    H125443   2.537   3.757  16.740  1.0413 -1.3019  0.5244
  416TIP3    H225444   2.463   3.820  16.856 -3.4078 -3.0276 -1.1352
  417TIP3   OH225445   5.980   3.350  14.062  0.9475  0.3577  0.8708
  417TIP3    H125446   5.968   3.377  13.971  1.9511  0.9565  0.8917
  417TIP3    H225447   6.022   3.425  14.103 -2.5091  1.4799  2.7124
  418TIP3   OH225448   1.213   5.651  14.286  0.5135 -0.3725  0.3719
  418TIP3    H125449   1.195   5.588  14.216 -1.1574 -1.6692  1.8998
  418TIP3    H225450   1.142   5.715  14.280  1.8350  1.0656 -0.7441
  419TIP3   OH225451   5.665   5.782  15.425  0.2309  0.2068 -0.1979
  419TIP3    H125452   5.663   5.861  15.372 -0.6582  1.2093  1.2685
  419TIP3    H225453   5.602   5.798  15.495 -0.3200 -1.9822 -0.1059
  420TIP3   OH225454   2.880   4.149  14.287 -0.4092 -0.0078 -0.2937
  420TIP3    H125455   2.817   4.147  14.359  0.1212 -1.3677  0.1665
  420TIP3    H225456   2.881   4.241  14.259 -0.7242  0.5356  1.3541
  421TIP3   OH225457   2.874   1.722  16.527 -0.0612  0.5214 -0.2818
  421TIP3    H125458   2.909   1.803  16.490  0.0248  2.0293  2.7488
  421TIP3    H225459   2.891   1.730  16.621 -0.9071 -2.6321  0.2370
  422TIP3   OH225460   2.252   1.199  14.059  0.2545  0.3358 -0.6931
  422TIP3    H125461   2.249   1.158  14.145  0.1219 -0.2101 -0.9555
  422TIP3    H225462   2.326   1.158  14.015  0.4121  0.7189 -0.7870
  423TIP3   OH225463   5.540   4.922  15.344  0.3585  0.1706 -0.1690
  423TIP3    H125464   5.495   5.004  15.325  0.1703  0.1812  0.3125
  423TIP3    H225465   5.475   4.854  15.327 -0.6185  0.2768  2.6462
  424TIP3   OH225466   4.018   4.895  15.671  0.0694  0.3564 -0.5751
  424TIP3    H125467   4.000   4.835  15.599  1.6357 -0.3910 -0.3996
  424TIP3    H225468   4.043   4.837  15.744  1.8639  1.1885 -0.4806
  425TIP3   OH225469   1.038   2.901  16.846  0.3240  0.1547  0.2317
  425TIP3    H125470   1.105   2.844  16.809 -0.0959  1.0032 -2.0058
  425TIP3    H225471   0.987   2.844  16.904 -0.7277 -2.1394 -2.6882
  426TIP3   OH225472   1.425   2.594  14.086  0.1839  0.3875  0.4329
  426TIP3    H125473   1.418   2.601  14.181  1.7683  0.6632  0.5610
  426TIP3    H225474   1.340   2.561  14.058 -0.0302 -0.5103  2.0267
  427TIP3   OH225475   6.358   3.506  15.211  0.1750  0.0204  0.1272
  427TIP3    H125476   6.344   3.534  15.121 -0.2839 -0.4896  0.0370
  427TIP3    H225477   6.393   3.417  15.203  3.0858  1.0219  0.3382
  428TIP3   OH225478   4.808   3.147  15.971  0.2124 -0.4305 -0.3328
  428TIP3    H125479   4.750   3.119  16.041  0.2849 -1.0210 -0.5067
  428TIP3    H225480   4.861   3.217  16.010 -2.6247  2.3232 -0.9915
  429TIP3   OH225481   1.923   3.147  16.351  0.5048  0.1055 -0.4206
  429TIP3    H125482   1.875   3.229  16.341  1.1918  0.5137 -0.4370
  429TIP3    H225483   1.857   3.083  16.377  0.0717  0.8048  0.2217
  430TIP3   OH225484   2.724   2.791  15.968 -0.4158 -0.0478 -0.4423
  430TIP3    H125485   2.652   2.854  15.977  0.5897  0.9392  1.1192
  430TIP3    H225486   2.704   2.722  16.031  0.8265  1.1045  1.2955
  431TIP3   OH225487   0.221   3.675  15.078 -0.2707 -0.1380 -0.5095
  431TIP3    H125488   0.278   3.700  15.006 -0.1319  2.0191  0.2825
  431TIP3    H225489   0.264   3.599  15.117 -0.3392 -1.3298 -2.6288
  432TIP3   OH225490   1.880   6.624  14.959 -0.2165 -0.2385  0.1594
  432TIP3    H125491   1.866   6.718  14.943  0.9372 -0.0853  0.0151
  432TIP3    H225492   1.822   6.604  15.033 -0.5843  0.5473  0.0961
  433TIP3   OH225493   4.748   4.715  14.758 -0.6451 -0.0369  0.2313
  433TIP3    H125494   4.691   4.668  14.698  0.0482 -0.6856  0.0687
  433TIP3    H225495   4.832   4.719  14.713 -0.8435  1.9832 -0.0707
  434TIP3   OH225496   4.683   1.684  16.477  0.0039  0.3141  0.9575
  434TIP3    H125497   4.772   1.714  16.498  0.7124  0.7470 -2.2466
  434TIP3    H225498   4.647   1.753  16.421 -2.0326 -0.3545  1.3596
  435TIP3   OH225499   5.684   5.122  14.617 -0.5254 -0.0116 -0.0022
  435TIP3    H125500   5.779   5.130  14.611 -0.5619  0.6488  0.1878
  435TIP3    H225501   5.665   5.032  14.591  0.1925 -0.2893  0.4044
  436TIP3   OH225502   3.830   2.717  16.520  0.3047  0.3778  0.0143
  436TIP3    H125503   3.820   2.665  16.441  0.3188 -1.5595  1.2140
  436TIP3    H225504   3.744   2.757  16.534 -0.5408 -1.4909  0.4605
  437TIP3   OH225505   0.410   4.491  13.922 -0.1066  0.2534 -0.3985
  437TIP3    H125506   0.381   4.400  13.919  0.6776 -0.0097 -0.1485
  437TIP3    H225507   0.418   4.517  13.830  0.8530 -0.3158 -0.4824
  438TIP3   OH225508   5.348   0.210  16.669 -0.2660 -0.3194  0.3788
  438TIP3    H125509   5.443   0.212  16.682 -0.0856 -0.6568 -0.8114
  438TIP3    H225510   5.315   0.276  16.730  0.8660  0.8569 -0.2123
  439TIP3   OH225511   3.271   4.443  13.943  0.2362 -0.2712  0.4462
  439TIP3    H125512   3.181   4.472  13.926  0.4263  0.9044  1.2744
  439TIP3    H225513   3.325   4.518  13.918  0.9704 -0.8518  0.2538
  440TIP3   OH225514   6.403   5.521  16.792 -0.1407 -0.3383  0.2060
  440TIP3    H125515   6.444   5.576  16.859  1.1725 -1.6672  0.5585
  440TIP3    H225516   6.444   5.548  16.710  1.4187 -1.5571  0.5377
  441TIP3   OH225517   5.955   6.033  16.682  0.2591 -0.4347 -0.0251
  441TIP3    H125518   5.895   6.100  16.650  0.3207 -0.7397 -0.8214
  441TIP3    H225519   6.039   6.079  16.694  0.0315 -0.1464  0.4632
  442TIP3   OH225520   1.024   0.363  14.096 -0.0177 -0.0430  0.8874
  442TIP3    H125521   0.950   0.416  14.065 -0.1787 -1.0495 -0.5626
  442TIP3    H225522   1.011   0.356  14.190 -1.1504  0.7186  0.8135
  443TIP3   OH225523   4.499   4.064  14.364  0.0280  0.5607 -0.4614
  443TIP3    H125524   4.409   4.068  14.332  0.3501  0.2723 -1.4236
  443TIP3    H225525   4.539   4.147  14.337 -0.1608  1.0299  0.6515
  444TIP3   OH225526   5.157   3.700  16.253  0.3254 -0.1933 -0.0899
  444TIP3    H125527   5.248   3.671  16.247 -0.5492 -3.4086  0.4467
  444TIP3    H225528   5.149   3.735  16.342  1.0053  0.0184 -0.1085
  445TIP3   OH225529   0.991   0.969  15.441 -0.3682  0.1483  0.0970
  445TIP3    H125530   1.065   0.908  15.434 -0.2724  0.1971  0.5954
  445TIP3    H225531   0.922   0.919  15.484 -1.5539 -0.6898 -2.5852
  446TIP3   OH225532   3.008   1.891  14.339 -0.1066 -0.1230 -0.0372
  446TIP3    H125533   3.036   1.818  14.283 -0.6421  0.3820 -0.9939
  446TIP3    H225534   2.920   1.911  14.309 -0.2204  0.4903  0.6809
  447TIP3   OH225535   6.597   4.773  15.912  0.0453  0.3591  0.6953
  447TIP3    H125536   6.678   4.819  15.936  0.2704  0.7262 -0.6918
  447TIP3    H225537   6.620   4.723  15.834 -1.1178  0.6348  0.1582
  448TIP3   OH225538   1.260   5.530  13.543  0.5284 -0.2696 -0.1840
  448TIP3    H125539   1.315   5.573  13.608 -1.7015 -0.5681  2.1055
  448TIP3    H225540   1.172   5.565  13.559 -0.0747  0.0917 -3.5290
  449TIP3   OH225541   5.200   5.390  14.736 -0.1469 -0.1410 -0.2897
  449TIP3    H125542   5.168   5.414  14.649 -0.8641 -1.2868 -0.3656
  449TIP3    H225543   5.120   5.375  14.787  0.2599  1.0505  0.7309
  450TIP3   OH225544   4.947   5.998  15.241  0.8383  0.0478 -0.2090
  450TIP3    H125545   4.917   6.047  15.317 -0.2789  0.2916 -0.7817
  450TIP3    H225546   5.033   6.034  15.222  0.9465  0.2862  0.6680
  451TIP3   OH225547   0.275   6.058  16.464 -0.3777 -0.2126  0.5082
  451TIP3    H125548   0.257   6.013  16.382  1.8591 -0.3580  0.0301
  451TIP3    H225549   0.214   6.132  16.464 -0.1537  0.0461 -1.5173
  452TIP3   OH225550   0.976   5.645  16.222  0.5262 -0.6269  0.6143
  452TIP3    H125551   0.882   5.647  16.242  0.7998  1.7215  2.0267
  452TIP3    H225552   1.018   5.616  16.303  1.2378  2.9787  1.7132
  453TIP3   OH225553   4.131   4.925  14.932  0.3953  0.3410 -0.0344
  453TIP3    H125554   4.188   4.976  14.989  1.6867  0.7244 -1.5912
  453TIP3    H225555   4.191   4.880  14.872 -0.9016 -0.0046 -1.1243
  454TIP3   OH225556   0.099   0.053  16.484  0.3784 -0.1113  0.3838
  454TIP3    H125557   0.035  -0.016  16.500  0.9862 -0.2806  2.2417
  454TIP3    H225558   0.046   0.130  16.465 -0.3173 -0.9262 -1.2377
  455TIP3   OH225559   2.727   6.471  16.674  0.1385  0.3062 -0.0409
  455TIP3    H125560   2.661   6.403  16.685 -0.8475  1.3679  0.9574
  455TIP3    H225561   2.677   6.551  16.659  1.1837  1.1307  0.6943
  456TIP3   OH225562   1.597   6.189  17.071  0.1477  0.1248  0.2430
  456TIP3    H125563   1.508   6.220  17.090 -0.2296 -1.5712  1.5048
  456TIP3    H225564   1.601   6.102  17.111  1.7105 -0.7215 -1.5864
  457TIP3   OH225565   1.401   6.480  15.857  0.2083  0.0973  0.7654
  457TIP3    H125566   1.465   6.435  15.912  0.3709 -1.0735 -0.3127
  457TIP3    H225567   1.439   6.478  15.770 -0.5976  0.7839  0.3853
  458TIP3   OH225568   1.969   1.789  14.469  0.3162 -0.3553 -0.6792
  458TIP3    H125569   1.966   1.872  14.421  3.7852  0.0932 -0.4146
  458TIP3    H225570   1.988   1.815  14.560  0.8033 -1.3855 -0.4646
  459TIP3   OH225571   6.280   3.878  13.177 -0.4001 -0.1063  0.1782
  459TIP3    H125572   6.200   3.928  13.192  0.1339  0.7700  0.1593
  459TIP3    H225573   6.344   3.916  13.237  0.4236  0.2276 -0.8762
  460TIP3   OH225574   2.231   5.048  14.628  0.2871 -0.1831 -0.0128
  460TIP3    H125575   2.237   5.123  14.686  0.2055 -0.5064  0.4234
  460TIP3    H225576   2.311   4.998  14.645  0.6086  0.0821 -0.6983
  461TIP3   OH225577   2.694   1.912  16.767  0.1981 -0.1843 -0.0159
  461TIP3    H125578   2.672   1.863  16.845 -0.7510  0.0427 -0.1289
  461TIP3    H225579   2.666   1.857  16.694 -1.3684  0.7072 -0.1364
  462TIP3   OH225580   2.923   3.502  14.414  0.1100  0.1453 -0.2977
  462TIP3    H125581   3.017   3.500  14.397  0.0395  1.2208 -0.9599
  462TIP3    H225582   2.889   3.425  14.370  0.9198 -1.4852  1.7740
  463TIP3   OH225583   3.954   5.929  17.240  0.0340 -0.0055 -0.3937
  463TIP3    H125584   4.004   6.009  17.225 -0.1049  0.0268 -0.6875
  463TIP3    H225585   3.933   5.931  17.333  0.4340  0.0654 -0.3039
  464TIP3   OH225586   1.257   1.130  14.817 -0.4712 -0.2870  0.0576
  464TIP3    H125587   1.249   1.042  14.855  0.1961 -0.4625 -0.1917
  464TIP3    H225588   1.168   1.165  14.818 -0.8573 -1.2139 -0.3991
  465TIP3   OH225589   1.099   5.917  17.019  0.5627 -0.5509 -0.2951
  465TIP3    H125590   1.079   5.865  17.097 -0.7240 -0.6051 -0.6268
  465TIP3    H225591   1.133   6.000  17.053  0.4271 -0.7388  0.3114
  466TIP3   OH225592   0.193   1.245  15.367 -0.0753  0.0961  0.5367
  466TIP3    H125593   0.210   1.333  15.400 -1.6757 -0.0636  1.9035
  466TIP3    H225594   0.142   1.202  15.436  0.9442 -2.0390  0.0727
  467TIP3   OH225595   6.214   1.066  14.768  0.2946  0.2322 -0.2998
  467TIP3    H125596   6.136   1.062  14.712  0.2750 -0.9756 -0.2214
  467TIP3    H225597   6.179   1.063  14.857  0.4345 -2.1516 -0.2492
  468TIP3   OH225598   2.592   0.467  16.780  0.4476 -0.3199  0.2561
  468TIP3    H125599   2.614   0.545  16.831  0.7307 -0.9916  1.1960
  468TIP3    H225600   2.642   0.397  16.821  1.3544 -0.7576 -1.4927
  469TIP3   OH225601   3.056   5.679  17.204  0.0789  0.9267  0.1636
  469TIP3    H125602   3.112   5.741  17.158  0.9722 -0.3251 -0.5275
  469TIP3    H225603   3.092   5.593  17.181 -0.5763  0.1779  1.7546
  470TIP3   OH225604   1.762   6.439  14.288 -0.0675 -0.2926 -0.0391
  470TIP3    H125605   1.737   6.445  14.380  0.7558 -1.2177  0.2536
  470TIP3    H225606   1.718   6.361  14.256 -3.6856  2.1241 -1.5584
  471TIP3   OH225607   6.309   6.215  14.497 -0.0468 -0.1165  0.3424
  471TIP3    H125608   6.378   6.174  14.446 -1.0883 -0.7105 -0.6401
  471TIP3    H225609   6.294   6.154  14.570  1.3963  0.7019  1.3708
  472TIP3   OH225610   3.341   1.983  17.123  0.2158  0.1598 -0.5653
  472TIP3    H125611   3.322   1.958  17.033  0.3457  0.1056 -0.5774
  472TIP3    H225612   3.282   2.056  17.141  0.5207  0.4808 -0.8530
  473TIP3   OH225613   5.364   6.556  16.032  0.1267  0.5895 -0.1646
  473TIP3    H125614   5.322   6.478  16.071 -1.9445  1.5970 -0.2182
  473TIP3    H225615   5.350   6.546  15.938  0.0229  0.9400 -0.1848
  474TIP3   OH225616   5.311   4.711  15.592 -0.1752  0.0626  0.2479
  474TIP3    H125617   5.278   4.732  15.505  0.5671  1.0384  0.1874
  474TIP3    H225618   5.359   4.789  15.620  0.1212 -0.4617  1.2767
  475TIP3   OH225619   2.067   1.984  15.876 -0.0119  0.2461  0.4872
  475TIP3    H125620   2.039   2.003  15.787 -0.5603 -1.1299  0.3408
  475TIP3    H225621   2.005   2.031  15.932 -0.0122  0.6382  0.1623
  476TIP3   OH225622   0.445   4.310  14.775  0.1453 -0.2712  0.0237
  476TIP3    H125623   0.393   4.240  14.815  0.8527 -0.4492  0.6551
  476TIP3    H225624   0.385   4.353  14.715 -1.1819  0.4375  1.7676
  477TIP3   OH225625   5.170   1.650  16.543  0.0349 -0.3201  0.5872
  477TIP3    H125626   5.150   1.609  16.458 -2.5335  1.7389  0.0686
  477TIP3    H225627   5.230   1.588  16.585  0.6633 -1.8932 -2.3066
  478TIP3   OH225628   3.436   3.548  15.744  0.5807  0.2191 -0.0354
  478TIP3    H125629   3.516   3.594  15.769  0.1929  0.4715  0.7942
  478TIP3    H225630   3.448   3.527  15.652  0.8061  1.9327 -0.4330
  479TIP3   OH225631   2.885   0.620  13.558  0.3139 -0.3816 -0.6118
  479TIP3    H125632   2.962   0.673  13.578  1.2728 -1.3735 -1.5596
  479TIP3    H225633   2.919   0.532  13.544 -1.1486 -1.1128  0.1284
  480TIP3   OH225634   3.691   3.202  16.261  0.7694 -0.4560 -0.2437
  480TIP3    H125635   3.649   3.191  16.176 -0.4525  0.4833  0.2042
  480TIP3    H225636   3.619   3.206  16.323  1.4279  1.9385  0.4844
  481TIP3   OH225637   4.706   1.294  15.024  0.5519  0.4444 -0.1802
  481TIP3    H125638   4.768   1.329  14.960  0.1663  2.3848  0.4488
  481TIP3    H225639   4.759   1.281  15.103  1.2145 -2.7201 -1.0053
  482TIP3   OH225640   5.039   2.934  16.243  0.0932  0.1095  0.0141
  482TIP3    H125641   5.033   3.026  16.221 -2.0518  0.1129  0.3705
  482TIP3    H225642   4.993   2.889  16.173  2.3024 -0.8844 -0.9003
  483TIP3   OH225643   1.162   2.118  14.566 -0.3499  0.4987 -0.2294
  483TIP3    H125644   1.135   2.047  14.508 -1.4564 -0.5096  1.4217
  483TIP3    H225645   1.257   2.108  14.574 -0.0240  1.1693 -2.4212
  484TIP3   OH225646   3.403   1.910  14.511  0.3077 -0.5444  1.0620
  484TIP3    H125647   3.497   1.892  14.509 -0.0235 -2.5138 -0.5236
  484TIP3    H225648   3.368   1.851  14.577 -0.0838 -1.6820 -0.1154
  485TIP3   OH225649   1.786   0.478  16.131  0.4339  0.1155  0.1637
  485TIP3    H125650   1.855   0.495  16.194  0.4339  1.0175 -0.0759
  485TIP3    H225651   1.792   0.384  16.114  0.6721 -0.0652  1.2126
  486TIP3   OH225652   2.084   2.389  15.395  0.2328 -0.1430 -0.1399
  486TIP3    H125653   2.151   2.328  15.425  1.5607  1.7858  1.0281
  486TIP3    H225654   2.093   2.391  15.300  2.4499  0.6840  0.0394
  487TIP3   OH225655   3.284   1.027  15.740  0.5907 -0.0714 -0.8046
  487TIP3    H125656   3.238   0.945  15.724  1.4769 -1.1452  1.6752
  487TIP3    H225657   3.215   1.093  15.744 -0.4301 -1.1357 -0.1829
  488TIP3   OH225658   6.139   5.927  17.137  0.6679  0.5281 -0.2203
  488TIP3    H125659   6.052   5.961  17.119  0.0288 -1.1868 -0.4845
  488TIP3    H225660   6.192   5.956  17.062  0.1190  0.7977 -0.5107
  489TIP3   OH225661   6.013   0.014  16.884 -0.0371 -0.0201  0.3947
  489TIP3    H125662   6.032   0.087  16.943  1.2792  0.6251 -0.7680
  489TIP3    H225663   6.089   0.010  16.826 -0.6716 -1.5154 -0.3720
  490TIP3   OH225664   0.713   0.360  16.019 -0.2716 -0.0307  0.3288
  490TIP3    H125665   0.764   0.278  16.017  1.6661  1.1321 -0.4977
  490TIP3    H225666   0.653   0.348  16.093  1.4153 -1.3745  1.5789
  491TIP3   OH225667   6.679   2.824  14.381 -0.1329 -0.1289  0.2263
  491TIP3    H125668   6.636   2.757  14.435 -1.6375 -0.0784 -0.8396
  491TIP3    H225669   6.615   2.844  14.313  0.4627  2.0977  0.2531
  492TIP3   OH225670   2.197   3.460  15.994  0.2091 -0.6416 -0.0304
  492TIP3    H125671   2.243   3.512  16.060 -0.2106  0.5467 -0.6432
  492TIP3    H225672   2.200   3.513  15.915 -1.9521 -0.6258 -0.1737
  493TIP3   OH225673   3.173   4.943  14.985  0.1534 -0.2940  0.7485
  493TIP3    H125674   3.083   4.921  15.010  0.1805 -1.2775  0.0203
  493TIP3    H225675   3.224   4.930  15.065 -0.1866 -0.7868  0.8885
  494TIP3   OH225676   3.155   4.698  15.672  0.0431 -0.4093 -0.7372
  494TIP3    H125677   3.243   4.684  15.637  0.6384 -0.4777  0.7220
  494TIP3    H225678   3.125   4.611  15.697 -0.2135 -0.3055 -0.6816
  495TIP3   OH225679   0.029   4.801  16.224  0.8759  0.0719 -0.4074
  495TIP3    H125680  -0.042   4.864  16.211 -0.7622 -1.5194  0.4197
  495TIP3    H225681   0.042   4.799  16.319  0.7552 -0.9714 -0.4012
  496TIP3   OH225682   2.121   4.626  14.985  0.2597  0.0056 -0.6413
  496TIP3    H125683   2.174   4.684  14.930  1.0085 -0.7680 -0.7586
  496TIP3    H225684   2.149   4.647  15.074 -0.0313  0.3603 -0.6294
  497TIP3   OH225685   6.138   5.243  16.808  0.6077  0.0160 -0.3667
  497TIP3    H125686   6.146   5.260  16.714 -3.2400 -0.4445 -0.9631
  497TIP3    H225687   6.170   5.153  16.819  2.8442  0.7004 -0.8037
  498TIP3   OH225688   0.598   1.643  16.743 -0.6785 -0.0834  0.6103
  498TIP3    H125689   0.632   1.718  16.694  0.2480 -1.2905 -0.6798
  498TIP3    H225690   0.519   1.675  16.785 -2.1641  0.7666 -2.5436
  499TIP3   OH225691   5.576   1.259  14.845 -0.0982 -0.1493 -0.1096
  499TIP3    H125692   5.584   1.335  14.788 -1.3876  0.3648  0.3633
  499TIP3    H225693   5.588   1.184  14.787 -0.6674  0.3776 -0.9298
  500TIP3   OH225694   2.870   2.800  15.507  0.1139  0.4825 -0.1441
  500TIP3    H125695   2.889   2.835  15.595 -0.1345 -1.4478  0.7274
  500TIP3    H225696   2.955   2.800  15.463  0.7065 -0.6274  0.9272
  501TIP3   OH225697   5.227   6.036  15.192 -0.2230  0.3626 -0.0941
  501TIP3    H125698   5.278   6.118  15.185  2.3895 -1.1029  0.4920
  501TIP3    H225699   5.237   5.995  15.106  0.3600 -0.3287  0.2894
  502TIP3   OH225700   5.145   0.028  16.626 -0.0497  0.0339 -0.5043
  502TIP3    H125701   5.196   0.107  16.644  2.1110 -0.6999 -2.7935
  502TIP3    H225702   5.059   0.045  16.665  0.6555  3.0699 -0.0336
  503TIP3   OH225703   0.175   4.388  15.139 -0.2764 -0.6119  0.3469
  503TIP3    H125704   0.240   4.458  15.146 -0.1799 -0.3417 -2.1968
  503TIP3    H225705   0.109   4.409  15.205 -1.2550  3.0785 -1.5199
  504TIP3   OH225706   5.387   1.321  16.326  0.0739  0.3051  0.0762
  504TIP3    H125707   5.383   1.384  16.254 -0.7357  0.3300  0.1330
  504TIP3    H225708   5.432   1.246  16.289  0.1673  0.5377 -0.2922
  505TIP3   OH225709   0.599   1.023  16.332 -0.1845  0.3050  0.3212
  505TIP3    H125710   0.602   0.969  16.252 -1.8827  1.9145 -0.9251
  505TIP3    H225711   0.640   1.105  16.307 -2.9775  1.7921  0.2005
  506TIP3   OH225712   1.744   0.542  14.381  0.0882  0.0962  0.2764
  506TIP3    H125713   1.707   0.621  14.419  1.0993  0.1500  1.1821
  506TIP3    H225714   1.670   0.481  14.378 -0.5195  0.8133  0.2662
  507TIP3   OH225715   3.142   4.895  13.575 -0.0845  0.5082 -0.2298
  507TIP3    H125716   3.092   4.946  13.511 -3.1233  0.5137  1.9560
  507TIP3    H225717   3.130   4.804  13.548  0.3661  0.5918 -0.7527
  508TIP3   OH225718   3.624   1.904  16.055 -0.3831 -0.1667 -0.0285
  508TIP3    H125719   3.541   1.876  16.016 -1.1397 -0.1098  1.4649
  508TIP3    H225720   3.689   1.844  16.020 -0.9858  0.0028 -1.4980
  509TIP3   OH225721   5.618   6.021  15.229 -0.0286  0.1820  0.2411
  509TIP3    H125722   5.663   6.080  15.168  0.4484 -0.2780  0.1405
  509TIP3    H225723   5.562   5.967  15.174  0.3669 -0.2013  0.2040
  510TIP3   OH225724   5.553   2.942  14.589  0.1281 -0.0247  0.1634
  510TIP3    H125725   5.476   2.888  14.607 -0.0790  0.1601 -0.1524
  510TIP3    H225726   5.571   2.987  14.672 -0.4410  0.3552  0.0848
  511TIP3   OH225727   3.687   1.538  17.005  0.5077  0.3417 -0.6894
  511TIP3    H125728   3.764   1.502  16.960  0.1987 -0.3314 -0.6935
  511TIP3    H225729   3.626   1.560  16.934  0.6387  0.7576 -0.6781
  512TIP3   OH225730   1.903   5.685  16.783 -0.0190 -0.2130 -0.0101
  512TIP3    H125731   1.939   5.769  16.752  0.0628 -0.5722 -0.9052
  512TIP3    H225732   1.808   5.699  16.785 -0.0140 -0.1308 -0.2665
  513TIP3   OH225733   5.909   2.215  15.433  0.2099 -0.0073 -0.2122
  513TIP3    H125734   5.849   2.185  15.501 -0.1227 -0.2929 -0.6276
  513TIP3    H225735   5.861   2.204  15.351  0.5716  0.4206 -0.4902
  514TIP3   OH225736   4.380   4.215  15.978  0.1424 -0.7136 -0.6642
  514TIP3    H125737   4.366   4.124  16.003 -0.6462 -0.9107 -1.7447
  514TIP3    H225738   4.308   4.263  16.021  0.3587 -0.6489 -0.3729
  515TIP3   OH225739   6.736   4.099  16.471  0.3582  0.2319  0.3168
  515TIP3    H125740   6.642   4.116  16.462  0.6416  1.9114  0.2227
  515TIP3    H225741   6.741   4.020  16.525 -1.1130 -0.4750 -0.5142
  516TIP3   OH225742   0.437   2.493  15.475 -0.0523  0.1290  0.4547
  516TIP3    H125743   0.436   2.403  15.509  1.7320 -0.2716 -0.4291
  516TIP3    H225744   0.435   2.548  15.553 -1.0051 -0.6598  1.0149
  517TIP3   OH225745   5.390   4.612  14.396  0.2519 -0.6946  0.2334
  517TIP3    H125746   5.353   4.540  14.447  3.2589 -3.1396 -0.7038
  517TIP3    H225747   5.467   4.640  14.446 -0.5171  1.5647  0.2707
  518TIP3   OH225748   4.789   3.878  13.895 -0.5329 -0.1588 -0.0113
  518TIP3    H125749   4.780   3.949  13.832 -1.4095 -0.2793 -0.0439
  518TIP3    H225750   4.790   3.922  13.980  0.4345 -0.0123 -0.0891
  519TIP3   OH225751   3.307   1.860  15.225  0.7320 -0.0063 -0.4229
  519TIP3    H125752   3.403   1.861  15.233  0.7171  0.4034 -0.2380
  519TIP3    H225753   3.286   1.945  15.187  0.2991  0.7872  1.4539
  520TIP3   OH225754   2.324   1.669  15.168 -0.1056 -0.4639 -0.4000
  520TIP3    H125755   2.254   1.702  15.225 -0.5836  1.3420 -1.9414
  520TIP3    H225756   2.377   1.614  15.226 -2.0974 -0.9440  1.1020
  521TIP3   OH225757   6.720   3.046  15.597  0.5222  0.4951 -0.4946
  521TIP3    H125758   6.744   2.992  15.673 -0.0873  1.7454  0.6394
  521TIP3    H225759   6.704   2.983  15.527 -1.4834 -0.9456  1.1232
  522TIP3   OH225760   3.894   0.529  15.528 -0.0332  0.1311  0.8317
  522TIP3    H125761   3.815   0.581  15.541  0.1162  0.5814  0.0416
  522TIP3    H225762   3.868   0.439  15.550 -1.1810  0.0266 -0.7388
  523TIP3   OH225763   4.331   3.169  15.579 -0.1247 -0.6944 -0.6919
  523TIP3    H125764   4.267   3.109  15.618 -0.0790 -0.2090  0.1557
  523TIP3    H225765   4.312   3.166  15.486 -2.0154  0.1498 -0.3782
  524TIP3   OH225766   3.305   1.071  16.606  0.0400 -0.2227  0.2311
  524TIP3    H125767   3.361   0.999  16.634 -1.5750 -1.4931  0.3695
  524TIP3    H225768   3.217   1.032  16.603 -0.6021  1.2589 -1.5085
  525TIP3   OH225769   1.539   3.037  16.781  0.6998  0.0862 -0.3241
  525TIP3    H125770   1.476   3.086  16.833  0.3241  0.0383 -0.7329
  525TIP3    H225771   1.534   3.076  16.693  2.9451  1.6864  0.1719
  526TIP3   OH225772   5.558   6.062  13.944 -0.4878  0.0105 -0.3589
  526TIP3    H125773   5.509   6.084  13.865 -0.3458  1.6962 -0.0157
  526TIP3    H225774   5.649   6.084  13.924 -0.4097  0.1988  0.1769
  527TIP3   OH225775   2.286   4.712  14.271  0.2450 -0.1635 -0.0738
  527TIP3    H125776   2.341   4.715  14.193 -1.4165  0.2436 -1.2710
  527TIP3    H225777   2.219   4.648  14.250  0.1238 -0.5128  1.2919
  528TIP3   OH225778   6.144   6.444  16.835 -0.1283 -0.2895 -0.0765
  528TIP3    H125779   6.050   6.450  16.821  0.1895  0.2758 -2.2549
  528TIP3    H225780   6.171   6.535  16.851 -0.0489 -0.5689  1.6391
  529TIP3   OH225781   2.581   1.905  17.059  0.3654  0.3976  0.0123
  529TIP3    H125782   2.669   1.940  17.078  0.3203  1.0806 -0.9745
  529TIP3    H225783   2.522   1.977  17.082  0.2336  0.7928 -1.4950
  530TIP3   OH225784   1.601   6.614  16.874  0.2020  0.1418 -0.0158
  530TIP3    H125785   1.574   6.534  16.828  0.8819  0.6575 -1.3507
  530TIP3    H225786   1.521   6.666  16.881  0.0781  0.0257 -0.5500
  531TIP3   OH225787   2.838   6.290  17.198 -0.0848 -0.5542  0.2927
  531TIP3    H125788   2.768   6.269  17.137 -1.5356  1.0907  1.3333
  531TIP3    H225789   2.836   6.218  17.261 -0.9660 -0.4218  0.4234
  532TIP3   OH225790   6.226   0.794  16.422  0.3117 -0.4406 -0.0917
  532TIP3    H125791   6.274   0.864  16.466 -0.6456 -0.8513  1.7146
  532TIP3    H225792   6.184   0.836  16.348  0.0888  0.8457  0.7358
  533TIP3   OH225793   5.249   5.560  14.335 -0.5415 -0.5050 -0.1193
  533TIP3    H125794   5.245   5.466  14.357  0.4976 -0.4297  0.4370
  533TIP3    H225795   5.342   5.581  14.336 -0.7203  0.3887 -0.9381
  534TIP3   OH225796   2.420   3.387  14.768  1.1418  0.9434 -0.5468
  534TIP3    H125797   2.442   3.303  14.726  1.1297  0.9522 -0.5701
  534TIP3    H225798   2.373   3.436  14.701 -2.2199 -0.4503  0.5959
  535TIP3   OH225799   6.021   3.777  15.079  0.1250 -0.0657  0.3716
  535TIP3    H125800   5.945   3.791  15.022  0.4852  0.5068  0.0209
  535TIP3    H225801   6.083   3.729  15.025  0.1691 -0.1914  0.5330
  536TIP3   OH225802   6.138   1.787  13.732  0.1202  0.1201 -0.1191
  536TIP3    H125803   6.148   1.848  13.806  1.1035  0.6962 -0.7078
  536TIP3    H225804   6.046   1.796  13.705  0.2691  1.4023 -0.2422
  537TIP3   OH225805   2.981   3.588  14.685  0.6560 -0.5201  0.0284
  537TIP3    H125806   3.001   3.500  14.654 -1.0243 -0.0287 -2.7130
  537TIP3    H225807   2.890   3.584  14.713  0.4932  0.3770 -0.3310
  538TIP3   OH225808   6.663   4.998  15.627 -0.2703  0.1207 -0.4331
  538TIP3    H125809   6.669   4.904  15.645 -0.4027  0.2061  0.0836
  538TIP3    H225810   6.573   5.021  15.649  0.2793  0.7430  1.3637
  539TIP3   OH225811   6.745   2.321  16.102 -0.4914  0.3034  0.2292
  539TIP3    H125812   6.709   2.378  16.035 -0.2628 -1.1825 -1.2426
  539TIP3    H225813   6.827   2.363  16.129  1.0410 -0.4937 -2.7249
  540TIP3   OH225814   3.180   5.750  14.656 -0.0994 -0.6374 -0.1283
  540TIP3    H125815   3.136   5.676  14.613 -0.6698 -0.9696  0.9805
  540TIP3    H225816   3.235   5.709  14.723  1.0683 -0.1526 -0.7564
  541TIP3   OH225817   6.185   5.417  17.039  0.2730  0.0531  0.1374
  541TIP3    H125818   6.122   5.364  17.087  0.1448  0.2084  0.1426
  541TIP3    H225819   6.182   5.383  16.950 -0.5247  0.6842 -0.0939
  542TIP3   OH225820   1.449   5.667  16.848 -0.2938  0.2041  0.0153
  542TIP3    H125821   1.449   5.707  16.935 -0.7683  0.0985  0.0690
  542TIP3    H225822   1.538   5.634  16.836  0.0160  1.0017  0.0948
  543TIP3   OH225823   5.499   5.889  15.902 -0.1090  0.0052 -0.0102
  543TIP3    H125824   5.497   5.953  15.972  0.6780 -0.9559  0.9201
  543TIP3    H225825   5.463   5.935  15.826 -1.0083  1.0432  1.0189
  544TIP3   OH225826   5.604   2.555  16.222 -0.3590 -0.0687 -0.4794
  544TIP3    H125827   5.570   2.468  16.204 -0.8682 -0.2185  1.0477
  544TIP3    H225828   5.552   2.586  16.296 -0.4490  1.6985 -1.2345
  545TIP3   OH225829   1.456   5.412  16.997  0.7532  0.0244  0.2292
  545TIP3    H125830   1.420   5.490  16.956 -0.6236 -0.8630 -0.3166
  545TIP3    H225831   1.550   5.431  17.006  0.7169  1.1328 -1.2831
  546TIP3   OH225832   6.467   3.038  16.195 -1.1172  0.4969 -0.2589
  546TIP3    H125833   6.493   2.964  16.140 -0.9839 -0.4103  0.9897
  546TIP3    H225834   6.527   3.035  16.269 -2.9185  0.0772  1.2526
  547TIP3   OH225835   3.841   5.500  14.026  0.0170 -0.0693  0.4174
  547TIP3    H125836   3.894   5.574  14.055 -0.3566  0.7362 -0.8612
  547TIP3    H225837   3.776   5.539  13.968 -0.4630 -1.3514  0.0632
  548TIP3   OH225838   4.541   4.070  16.467  0.3536 -0.1729  0.2177
  548TIP3    H125839   4.577   4.066  16.379  1.5151  0.4385  0.6470
  548TIP3    H225840   4.554   4.161  16.494 -1.4538  0.0700  0.4392
  549TIP3   OH225841   6.684   4.536  16.027  0.3255 -0.0862  0.4289
  549TIP3    H125842   6.630   4.590  15.970 -0.4937  1.5649  2.6129
  549TIP3    H225843   6.769   4.533  15.984 -0.5192  0.2665 -1.3349
  550TIP3   OH225844   1.813   3.373  15.582 -0.0327 -0.2654 -0.4085
  550TIP3    H125845   1.748   3.437  15.609  1.1445  0.9686 -0.3544
  550TIP3    H225846   1.848   3.408  15.500  0.6782 -0.7854 -0.3398
  551TIP3   OH225847   1.940   0.596  14.155 -0.5324 -0.0530  0.7484
  551TIP3    H125848   2.007   0.665  14.158 -0.4355 -0.0912 -0.2094
  551TIP3    H225849   1.973   0.529  14.215 -1.0869  1.1081  2.4266
  552TIP3   OH225850   0.948   0.111  16.940  0.4006 -0.7409  0.5918
  552TIP3    H125851   0.908   0.032  16.975 -1.2129 -0.1285  0.1843
  552TIP3    H225852   0.907   0.124  16.855 -0.8004  1.5640  1.4410
  553TIP3   OH225853   2.118   1.230  16.179 -0.2567  0.3292  0.0787
  553TIP3    H125854   2.029   1.266  16.186 -0.2532  0.4710 -0.5646
  553TIP3    H225855   2.174   1.298  16.216 -0.3931  0.3293  0.2897
  554TIP3   OH225856   3.663   6.290  17.209 -0.6040  0.1810 -0.0656
  554TIP3    H125857   3.710   6.321  17.287  1.1695  1.8700 -1.7125
  554TIP3    H225858   3.589   6.350  17.201 -1.3684 -0.6045  0.8151
  555TIP3   OH225859   1.563   1.623  14.982 -0.5355 -0.1951 -0.0739
  555TIP3    H125860   1.579   1.703  14.931 -0.7328  0.3238  0.6564
  555TIP3    H225861   1.650   1.583  14.992 -0.2596  0.5015  0.4567
  556TIP3   OH225862   0.090   5.209  17.300  0.4449 -0.1556  0.4187
  556TIP3    H125863   0.172   5.160  17.289 -0.1040 -0.9338 -0.3553
  556TIP3    H225864   0.116   5.288  17.347  1.6466 -0.3857  0.1874
  557TIP3   OH225865   1.941   6.685  14.350 -0.2041  0.1372 -0.3245
  557TIP3    H125866   1.885   6.763  14.349  1.7915  1.6895 -1.0870
  557TIP3    H225867   1.881   6.611  14.352 -2.2119  1.6652  2.3392
  558TIP3   OH225868   4.931   3.384  16.040 -0.5230  0.3285 -0.1523
  558TIP3    H125869   4.936   3.479  16.031  0.8640  0.3070  0.0560
  558TIP3    H225870   4.974   3.351  15.960 -2.1422 -0.1613 -0.8504
  559TIP3   OH225871   4.317   2.790  14.409 -0.2106 -0.1941 -0.3190
  559TIP3    H125872   4.291   2.739  14.486  0.7421 -1.4955 -0.8259
  559TIP3    H225873   4.399   2.832  14.435  0.4072 -1.0851 -0.7979
  560TIP3   OH225874   3.537   4.169  15.307 -0.5129 -0.0602  0.0302
  560TIP3    H125875   3.620   4.188  15.351  0.0033 -1.0426 -0.4971
  560TIP3    H225876   3.474   4.162  15.378  0.0808 -0.4534  0.5378
  561TIP3   OH225877   1.098   6.148  17.224 -0.6629  0.0030 -0.3676
  561TIP3    H125878   1.028   6.170  17.162 -2.0316 -0.8130  0.8324
  561TIP3    H225879   1.053   6.130  17.306  0.7805 -2.1418  0.0551
  562TIP3   OH225880   4.820   4.875  15.749  0.3799 -0.2654 -0.5850
  562TIP3    H125881   4.741   4.865  15.696  1.0438 -0.3298 -1.5693
  562TIP3    H225882   4.877   4.803  15.723  0.0180 -1.4158  1.5345
  563TIP3   OH225883   3.012   5.052  16.707  0.0276 -0.5214 -0.1548
  563TIP3    H125884   2.941   5.004  16.664  0.3824 -2.5826  1.4084
  563TIP3    H225885   3.072   4.984  16.737  1.3149  1.0155  0.9252
  564TIP3   OH225886   5.562   4.116  14.683 -0.0438  0.3103 -0.3339
  564TIP3    H125887   5.493   4.171  14.645  2.1103  2.9587 -0.6995
  564TIP3    H225888   5.551   4.126  14.778 -0.4952  0.2765 -0.3820
  565TIP3   OH225889   3.820   2.868  15.942  0.0899  0.1586 -0.2478
  565TIP3    H125890   3.806   2.873  16.037  0.1535 -1.1658 -0.1417
  565TIP3    H225891   3.755   2.803  15.913  1.5976 -1.1843 -0.7458
  566TIP3   OH225892   1.828   2.130  15.908  0.0496 -0.2575  0.5691
  566TIP3    H125893   1.801   2.123  16.000  0.9173 -0.9936  0.7809
  566TIP3    H225894   1.796   2.049  15.868  0.9581 -0.6163  0.5655
  567TIP3   OH225895   0.673   3.645  13.468 -0.3303  0.3317  0.7071
  567TIP3    H125896   0.752   3.605  13.506  0.1070 -0.2811 -0.7762
  567TIP3    H225897   0.684   3.739  13.482  1.2719  0.3672 -0.5308
  568TIP3   OH225898   5.858   3.062  13.870 -0.2935  0.7872  0.4919
  568TIP3    H125899   5.836   3.154  13.886 -2.5322  0.0472  2.0713
  568TIP3    H225900   5.870   3.024  13.957  1.1982 -0.3212 -0.1554
  569TIP3   OH225901   3.552   3.889  16.753  0.0079  0.1255  0.4123
  569TIP3    H125902   3.537   3.801  16.787  1.2730  0.1034  0.9715
  569TIP3    H225903   3.611   3.930  16.816  0.2632  1.0188 -0.3749
  570TIP3   OH225904   6.450   3.114  15.931 -0.8536 -0.3922 -0.0960
  570TIP3    H125905   6.434   3.084  16.021  0.1468 -1.7764 -0.3544
  570TIP3    H225906   6.504   3.192  15.941  1.2740 -1.8468  0.5071
  571TIP3   OH225907   5.777   0.697  15.134 -0.5155 -0.8836 -0.5001
  571TIP3    H125908   5.694   0.669  15.173 -0.1655 -1.0224  0.1552
  571TIP3    H225909   5.831   0.618  15.133 -0.2209 -0.6821 -0.4854
  572TIP3   OH225910   0.441   6.660  16.650 -0.3840 -0.1593 -0.1048
  572TIP3    H125911   0.478   6.586  16.601  1.5643 -0.1718  1.2486
  572TIP3    H225912   0.460   6.736  16.595  2.1242 -0.1224  0.6567
  573TIP3   OH225913   6.016   1.814  16.996  0.0800  0.0059 -0.2486
  573TIP3    H125914   5.985   1.889  16.945  1.5593  0.2511 -0.8367
  573TIP3    H225915   6.093   1.783  16.948 -1.0266 -2.5166 -0.5787
  574TIP3   OH225916   6.624   0.498  15.577 -0.0313  0.3859 -0.6130
  574TIP3    H125917   6.666   0.548  15.506 -0.8781  0.2510 -1.2225
  574TIP3    H225918   6.608   0.412  15.538  1.8871 -0.5862  0.5818
  575TIP3   OH225919   3.410   1.806  15.869  0.3746 -0.1866  0.0761
  575TIP3    H125920   3.394   1.715  15.896  2.1627 -0.0657  1.7640
  575TIP3    H225921   3.330   1.853  15.895  0.6235 -0.7550  1.9925
  576TIP3   OH225922   6.240   0.441  14.794  0.1870 -0.2515  0.4555
  576TIP3    H125923   6.302   0.480  14.732 -0.9110 -0.1527 -0.6027
  576TIP3    H225924   6.271   0.470  14.879  0.0494  2.0350 -0.2102
  577TIP3   OH225925   0.013   0.540  14.187 -0.2099  0.4258 -0.5283
  577TIP3    H125926  -0.068   0.502  14.220 -0.1046  0.3668 -0.3373
  577TIP3    H225927   0.040   0.481  14.117  0.1642 -0.0761  0.0296
  578TIP3   OH225928   3.826   2.912  15.519 -0.1487 -0.0278  0.0370
  578TIP3    H125929   3.891   2.959  15.468  0.6171  1.1841  2.0290
  578TIP3    H225930   3.743   2.956  15.499  0.1025  0.2797 -0.3279
  579TIP3   OH225931   2.923   0.949  16.030 -0.3873  0.1475  0.5587
  579TIP3    H125932   3.016   0.937  16.047 -0.3556 -1.1511 -0.3725
  579TIP3    H225933   2.889   0.993  16.108  0.9429  0.3762  1.0218
  580TIP3   OH225934   2.911   4.995  16.055 -0.6217  0.0083 -0.5315
  580TIP3    H125935   2.904   5.082  16.016  1.3256  0.0975 -0.7789
  580TIP3    H225936   2.963   4.944  15.993  0.3385 -0.6023  0.7374
  581TIP3   OH225937   3.270   5.509  14.206 -0.5263  0.4294 -0.3890
  581TIP3    H125938   3.209   5.443  14.172  1.7952 -2.0926 -0.0619
  581TIP3    H225939   3.338   5.458  14.251 -0.0423  3.2396  2.4518
  582TIP3   OH225940   3.042   4.529  15.348 -0.5608  0.5909 -0.3351
  582TIP3    H125941   3.086   4.607  15.314  1.2123 -0.1564  0.1262
  582TIP3    H225942   3.105   4.458  15.334 -1.7305 -0.5852  0.1545
  583TIP3   OH225943   3.520   5.615  15.775  0.2107  0.1442 -0.1896
  583TIP3    H125944   3.528   5.581  15.864 -1.8524 -0.6203 -0.2485
  583TIP3    H225945   3.558   5.702  15.779 -0.3705  0.3517  1.5896
  584TIP3   OH225946   4.138   1.856  14.823 -0.0008 -0.4944 -0.2048
  584TIP3    H125947   4.231   1.836  14.833 -0.0179 -1.0485 -1.1259
  584TIP3    H225948   4.137   1.943  14.782  0.0968 -0.2569  0.2824
  585TIP3   OH225949   5.526   3.722  14.952  0.1690  0.4467 -0.7579
  585TIP3    H125950   5.534   3.767  14.868  0.4061  0.6820 -0.6100
  585TIP3    H225951   5.570   3.638  14.938 -0.3533  0.2196 -1.0613
  586TIP3   OH225952   1.594   4.600  16.922  0.2468 -0.4401 -0.6258
  586TIP3    H125953   1.525   4.596  16.856 -1.1651 -1.2050  0.8201
  586TIP3    H225954   1.566   4.537  16.989  1.8408 -0.0156  0.4885
  587TIP3   OH225955   5.127   2.729  14.853  0.2569 -0.2528  0.8224
  587TIP3    H125956   5.091   2.817  14.842  2.1382  0.2815 -2.2171
  587TIP3    H225957   5.095   2.680  14.777  3.9315 -0.3180 -0.9100
  588TIP3   OH225958   2.496   4.219  15.150 -0.6786 -0.0088  0.2428
  588TIP3    H125959   2.439   4.150  15.117 -1.2763  0.8771 -0.6211
  588TIP3    H225960   2.437   4.281  15.194 -0.1862  0.1000  0.7662
  589TIP3   OH225961   1.463   2.241  16.420  0.9866 -0.2704  0.1316
  589TIP3    H125962   1.551   2.238  16.458 -0.1430  0.7086  3.1014
  589TIP3    H225963   1.410   2.187  16.479 -0.7430  0.5575 -0.6121
  590TIP3   OH225964   4.560   5.417  13.703 -0.3407 -0.2626  0.4540
  590TIP3    H125965   4.528   5.412  13.613  0.4813  0.9353  0.0605
  590TIP3    H225966   4.482   5.401  13.757 -0.6339 -2.0864 -0.4334
  591TIP3   OH225967   4.039   6.485  14.646  0.6860 -0.3253 -0.2131
  591TIP3    H125968   3.947   6.504  14.629  0.2248 -0.3741  1.9419
  591TIP3    H225969   4.042   6.390  14.658  1.0607 -0.3419 -0.4158
  592TIP3   OH225970   0.436   2.653  15.699 -0.2383  0.2099  0.3732
  592TIP3    H125971   0.384   2.733  15.700 -0.9842 -0.2455 -0.3897
  592TIP3    H225972   0.438   2.624  15.790  0.2902  1.2442  0.7059
  593TIP3   OH225973   1.766   2.575  15.917  0.2801 -0.1423  0.2803
  593TIP3    H125974   1.706   2.622  15.859 -0.5898 -3.8728 -2.1703
  593TIP3    H225975   1.709   2.533  15.981 -0.0322 -3.7548 -2.0960
  594TIP3   OH225976   3.891   3.850  14.722 -0.1361  0.3183  0.0828
  594TIP3    H125977   3.804   3.869  14.757 -0.9389  0.3240 -1.7606
  594TIP3    H225978   3.886   3.759  14.692  0.2416  0.5493 -0.7150
  595TIP3   OH225979   3.589   4.344  16.013 -0.0042  0.4223  0.4591
  595TIP3    H125980   3.517   4.281  16.028  1.1159 -0.7875  0.9643
  595TIP3    H225981   3.660   4.290  15.977  1.0614  1.3683  1.1001
  596TIP3   OH225982   3.952   0.586  14.642 -0.3372  0.2192  0.1053
  596TIP3    H125983   3.956   0.653  14.574  0.2295 -0.5923 -0.6764
  596TIP3    H225984   3.859   0.575  14.660 -0.4555  0.9503 -0.0151
  597TIP3   OH225985   4.140   1.097  13.725 -0.6904  0.1588 -0.9290
  597TIP3    H125986   4.129   1.010  13.765 -0.2228  0.3845 -0.2924
  597TIP3    H225987   4.068   1.104  13.663 -0.8208 -0.6300 -0.8797
  598TIP3   OH225988   1.468   5.895  13.914  0.6862 -0.5733 -0.3094
  598TIP3    H125989   1.461   5.922  14.005  1.5253  0.0564 -0.4185
  598TIP3    H225990   1.382   5.861  13.892 -0.5372  2.2406 -0.2319
  599TIP3   OH225991   1.837   1.127  14.433 -0.1973 -0.2567  0.4202
  599TIP3    H125992   1.748   1.092  14.435 -0.2495 -0.2085 -0.4276
  599TIP3    H225993   1.858   1.132  14.339  0.5459  0.1105  0.6003
  600TIP3   OH225994   1.031   3.364  15.246  0.3792  0.0876  0.2739
  600TIP3    H125995   1.099   3.369  15.179  1.1318 -0.3932  0.9857
  600TIP3    H225996   1.020   3.454  15.276  0.0856  0.2934 -0.4410
  601TIP3   OH225997   4.461   5.327  15.607 -0.2639 -0.2965  0.4371
  601TIP3    H125998   4.455   5.413  15.649  0.2532  0.7713 -1.5013
  601TIP3    H225999   4.392   5.274  15.648 -0.9845  1.2344  1.2784
  602TIP3   OH226000   3.762   3.334  15.168  0.5361 -0.3679  0.0472
  602TIP3    H126001   3.676   3.336  15.125  0.1653  0.4198  0.7820
  602TIP3    H226002   3.750   3.387  15.247  1.7175 -0.2037  0.1381
  603TIP3   OH226003   4.539   6.501  15.454  0.0342 -0.1793 -0.5158
  603TIP3    H126004   4.555   6.581  15.504 -0.4544  0.8254 -1.8999
  603TIP3    H226005   4.453   6.515  15.414  0.3132 -1.0396 -1.4348
  604TIP3   OH226006   2.440   2.333  16.662  0.2224  0.1761 -0.4668
  604TIP3    H126007   2.530   2.300  16.671 -0.0047 -1.2885 -2.6299
  604TIP3    H226008   2.440   2.416  16.709  2.8816  0.4838 -0.8424
  605TIP3   OH226009   0.594   0.585  16.295 -0.0202  0.3957  0.2624
  605TIP3    H126010   0.527   0.615  16.357 -0.3307 -0.0371  0.1400
  605TIP3    H226011   0.552   0.513  16.247 -1.0640  2.8847 -2.9068
  606TIP3   OH226012   5.893   6.554  15.341  0.4255  0.4434 -0.0947
  606TIP3    H126013   5.819   6.571  15.282 -1.2657 -0.8785  1.4985
  606TIP3    H226014   5.940   6.637  15.346  0.3625  0.7233 -2.8760
  607TIP3   OH226015   2.462   0.128  14.702 -0.3143  0.1662 -0.3789
  607TIP3    H126016   2.525   0.082  14.647 -0.5757  0.6319 -1.0823
  607TIP3    H226017   2.463   0.218  14.670 -0.2739  0.5155  0.5628
  608TIP3   OH226018   1.186   4.505  13.555  0.0405 -0.5844  0.4144
  608TIP3    H126019   1.109   4.449  13.548 -0.3929 -0.0086  0.4138
  608TIP3    H226020   1.153   4.584  13.598  0.7148 -0.4815  0.7576
  609TIP3   OH226021   6.390   5.794  15.630  0.2844  0.3019 -0.0786
  609TIP3    H126022   6.470   5.757  15.592  0.0592  0.4176 -0.6880
  609TIP3    H226023   6.319   5.747  15.586  0.0130 -0.7775  1.4519
  610TIP3   OH226024   3.029   1.363  13.554  0.4131 -0.2374  0.1906
  610TIP3    H126025   3.034   1.298  13.625 -0.2274  1.1099  1.5425
  610TIP3    H226026   2.943   1.349  13.515 -0.4005  0.7681  1.5254
  611TIP3   OH226027   1.194   0.037  15.201 -0.0386 -0.4051  0.3809
  611TIP3    H126028   1.175  -0.055  15.218 -0.7192 -0.3682 -0.1609
  611TIP3    H226029   1.229   0.070  15.284  1.0394 -1.3551  0.3300
  612TIP3   OH226030   3.587   4.279  16.969  0.2679 -0.6595 -0.1094
  612TIP3    H126031   3.601   4.290  16.875 -1.1303  1.1454 -0.1567
  612TIP3    H226032   3.496   4.253  16.977  0.0340  0.3465  0.7857
  613TIP3   OH226033   0.268   2.977  15.214 -0.0932  0.1134  0.4504
  613TIP3    H126034   0.194   3.026  15.179 -0.5646 -1.8278 -1.4528
  613TIP3    H226035   0.234   2.889  15.229  1.3113 -0.2829  1.5909
  614TIP3   OH226036   0.878   4.898  17.125  0.2864  0.1615  0.2342
  614TIP3    H126037   0.805   4.836  17.123  0.8079 -0.4702 -0.2299
  614TIP3    H226038   0.946   4.855  17.072  0.4190  1.4486 -0.6717
  615TIP3   OH226039   3.710   1.560  16.672  0.5076 -0.1467  0.0935
  615TIP3    H126040   3.729   1.472  16.705  2.8313  0.9714  2.0747
  615TIP3    H226041   3.629   1.551  16.623  0.5713 -3.3398  0.3983
  616TIP3   OH226042   4.311   0.034  17.034  0.4826  0.5515 -0.5464
  616TIP3    H126043   4.313  -0.012  16.951  0.3726 -2.1573  0.8576
  616TIP3    H226044   4.228   0.008  17.074  2.6111 -2.4109  2.5053
  617TIP3   OH226045   5.886   0.782  15.497  0.1158 -0.6317 -0.2828
  617TIP3    H126046   5.931   0.865  15.510 -0.9550 -0.2391  0.9676
  617TIP3    H226047   5.802   0.805  15.458  0.2469 -1.2306 -0.9576
  618TIP3   OH226048   3.906   5.676  14.489  0.6203 -0.1667 -0.0737
  618TIP3    H126049   3.884   5.768  14.471 -1.3816 -0.5650  0.0882
  618TIP3    H226050   3.978   5.657  14.429  1.4949  1.6624  0.3047
  619TIP3   OH226051   5.758   2.770  16.309 -0.3533  0.1653 -0.7214
  619TIP3    H126052   5.717   2.803  16.229 -0.6584  0.1072 -0.5893
  619TIP3    H226053   5.746   2.675  16.305 -0.1929  0.1437 -0.7026
  620TIP3   OH226054   6.407   4.861  16.092 -0.1029  0.0633 -0.5485
  620TIP3    H126055   6.474   4.817  16.039  1.1506 -0.0894  1.0762
  620TIP3    H226056   6.400   4.948  16.054  0.1473 -0.3031 -1.4656
  621TIP3   OH226057   0.937   1.260  15.989  0.4582  0.1621  0.0089
  621TIP3    H126058   0.956   1.236  15.898  0.2344  0.8966 -0.2449
  621TIP3    H226059   0.921   1.355  15.985  1.0188  0.3025  0.9078
  622TIP3   OH226060   3.345   5.992  14.601 -1.0226 -0.3832 -0.1215
  622TIP3    H126061   3.291   6.069  14.582 -0.9925 -0.2720  0.2403
  622TIP3    H226062   3.289   5.935  14.654 -0.5471  0.0573  0.8667
  623TIP3   OH226063   6.358   5.404  13.699 -0.7040 -0.5383  0.2928
  623TIP3    H126064   6.363   5.429  13.791 -0.9910 -0.2460  0.2319
  623TIP3    H226065   6.350   5.308  13.701 -1.1991 -0.4946  0.5908
  624TIP3   OH226066   2.825   1.199  16.882  0.0135 -0.2260 -0.3179
  624TIP3    H126067   2.767   1.275  16.895 -0.3514 -0.8963  2.9586
  624TIP3    H226068   2.912   1.232  16.902 -0.1435 -0.6019  1.0935
  625TIP3   OH226069   5.523   5.817  14.663 -0.4266 -0.1343 -0.2941
  625TIP3    H126070   5.430   5.824  14.683 -0.4708 -0.5458 -0.3525
  625TIP3    H226071   5.555   5.907  14.665 -0.5176 -0.1261  1.1831
  626TIP3   OH226072   6.378   3.896  15.401  0.1184 -0.0125 -0.3134
  626TIP3    H126073   6.368   3.804  15.423 -2.9250  0.1918 -0.4410
  626TIP3    H226074   6.381   3.897  15.305  2.2820 -0.0611 -0.3013
  627TIP3   OH226075   0.257   6.485  14.551  0.3770 -0.0161 -0.3906
  627TIP3    H126076   0.325   6.503  14.486 -0.8005  0.3739 -1.5583
  627TIP3    H226077   0.211   6.568  14.562 -0.8400 -0.6088 -0.7602
  628TIP3   OH226078   4.200   6.128  14.179 -0.4589 -0.2033 -0.4179
  628TIP3    H126079   4.266   6.098  14.116 -0.4911  0.9170 -1.0298
  628TIP3    H226080   4.205   6.224  14.174  0.4600 -0.0143  2.2679
  629TIP3   OH226081   6.432   3.227  13.471 -0.2182  0.0815 -0.0717
  629TIP3    H126082   6.445   3.287  13.397 -2.0772 -0.9615 -1.3457
  629TIP3    H226083   6.355   3.176  13.446  0.1303 -1.4919  1.8517
  630TIP3   OH226084   2.440   1.895  15.049 -0.2370  0.3212  0.2340
  630TIP3    H126085   2.394   1.815  15.071 -1.2324  1.3226  1.9698
  630TIP3    H226086   2.498   1.911  15.124 -0.6425  1.6290  0.2920
  631TIP3   OH226087   2.157   2.878  16.601  0.2334  0.2585 -0.0694
  631TIP3    H126088   2.124   2.838  16.681  1.1314 -0.6011 -0.1098
  631TIP3    H226089   2.089   2.860  16.536 -0.4999  0.9631  0.4849
  632TIP3   OH226090   4.669   1.135  16.146 -0.2933  0.3294 -0.0484
  632TIP3    H126091   4.594   1.191  16.128 -0.1111  0.2589 -1.0793
  632TIP3    H226092   4.688   1.092  16.063 -1.3253 -2.3798  0.9918
  633TIP3   OH226093   0.888   5.989  15.426  0.0216 -0.3693 -0.5364
  633TIP3    H126094   0.899   6.084  15.416 -2.0931 -0.0238 -0.1096
  633TIP3    H226095   0.972   5.959  15.462 -0.1759  1.8069  2.1061
  634TIP3   OH226096   2.699   0.174  16.721 -0.0676  0.0559 -0.5277
  634TIP3    H126097   2.638   0.168  16.794 -0.1992 -0.4111 -0.6704
  634TIP3    H226098   2.667   0.109  16.658  0.1836  0.2815 -0.8959
  635TIP3   OH226099   6.593   0.201  15.066  0.3466 -0.7276 -0.0742
  635TIP3    H126100   6.671   0.153  15.041  0.5784 -0.3769 -0.0343
  635TIP3    H226101   6.625   0.283  15.103 -0.0168 -0.9392  0.7429
  636TIP3   OH226102   2.959   2.041  16.765 -0.0886 -0.0653 -0.8737
  636TIP3    H126103   2.881   1.994  16.734 -0.0674  0.5681 -1.9414
  636TIP3    H226104   2.978   2.104  16.695  0.5639  0.7392  0.0168
  637TIP3   OH226105   3.079   0.032  14.784 -0.1779  0.6206  0.3473
  637TIP3    H126106   3.127  -0.042  14.749 -1.4227  0.8817 -2.1281
  637TIP3    H226107   3.006  -0.007  14.832 -1.4178  0.1669 -1.8071
  638TIP3   OH226108   2.649   5.028  16.801 -0.5937 -0.1552 -0.3725
  638TIP3    H126109   2.659   5.022  16.706 -1.6203  1.3412 -0.6018
  638TIP3    H226110   2.571   5.082  16.814  1.6013  2.9701  1.2719
  639TIP3   OH226111   6.503   3.773  15.817  0.8403 -0.1492  0.6097
  639TIP3    H126112   6.458   3.689  15.812 -2.0845  1.3245 -0.6968
  639TIP3    H226113   6.574   3.767  15.752  0.7752 -1.6364  0.6537
  640TIP3   OH226114   4.668   1.115  16.820 -0.1879  0.3051 -0.1667
  640TIP3    H126115   4.723   1.086  16.893  0.2724 -1.4781 -1.1736
  640TIP3    H226116   4.709   1.076  16.742 -2.2244 -0.1289 -1.0709
  641TIP3   OH226117   1.655   0.999  16.564 -0.5467 -0.1030  1.1139
  641TIP3    H126118   1.654   0.931  16.497 -1.0940  0.6943  0.2892
  641TIP3    H226119   1.673   1.079  16.516  0.7287  0.2586  2.1579
  642TIP3   OH226120   0.749   6.066  16.676  0.6920  0.4384 -0.1614
  642TIP3    H126121   0.827   6.024  16.640  0.7388 -0.3946  0.8594
  642TIP3    H226122   0.752   6.045  16.769 -2.2466 -2.1613 -0.4718
  643TIP3   OH226123   0.342   0.426  14.035  0.0367  0.4437 -0.0351
  643TIP3    H126124   0.384   0.394  13.955 -0.2465 -1.5949  0.5810
  643TIP3    H226125   0.249   0.408  14.021 -0.4392  2.8686 -0.4501
  644TIP3   OH226126   0.642   2.834  15.854  0.0278  0.1425  0.1909
  644TIP3    H126127   0.724   2.866  15.893  0.8906 -2.3354  0.6029
  644TIP3    H226128   0.670   2.783  15.778 -1.2739  0.3984 -0.4908
  645TIP3   OH226129   1.279   1.699  15.889  0.2892  0.0020  0.4339
  645TIP3    H126130   1.266   1.605  15.877  2.6415 -0.3079 -0.2837
  645TIP3    H226131   1.371   1.707  15.914  0.1866  2.1374  0.3227
  646TIP3   OH226132   3.529   0.381  16.401 -0.4086  0.3666 -0.1541
  646TIP3    H126133   3.580   0.410  16.478 -1.6785  1.4274  0.3247
  646TIP3    H226134   3.465   0.319  16.437  0.1160 -0.4786 -0.6513
  647TIP3   OH226135   4.723   3.787  14.916  0.1620  0.0219  0.0873
  647TIP3    H126136   4.669   3.750  14.987  1.2696  0.6784  1.3013
  647TIP3    H226137   4.801   3.820  14.960 -0.4191  3.1556 -1.0124
  648TIP3   OH226138   2.798   5.851  13.761 -0.6835  0.2334 -0.1917
  648TIP3    H126139   2.735   5.797  13.808 -2.0743  0.1354 -2.0193
  648TIP3    H226140   2.767   5.941  13.773 -0.5955  0.2738 -0.2658
  649TIP3   OH226141   2.027   6.544  16.620 -0.4702  0.1565  0.4024
  649TIP3    H126142   2.007   6.471  16.679  0.8629  0.3577  1.1601
  649TIP3    H226143   2.093   6.507  16.560  0.2648  0.7353  0.8365
  650TIP3   OH226144   1.589   3.999  13.456 -0.0195 -0.3358  0.4717
  650TIP3    H126145   1.653   4.009  13.386  1.2173  0.1581  1.6378
  650TIP3    H226146   1.530   4.073  13.445 -0.0515 -0.4549 -0.2423
  651TIP3   OH226147   2.546   6.617  14.442  0.4151  0.3392  0.1722
  651TIP3    H126148   2.462   6.638  14.401  0.2110 -1.5245 -0.4588
  651TIP3    H226149   2.592   6.701  14.447 -1.1240  1.2590 -0.2558
  652TIP3   OH226150   5.688   2.973  15.254  0.5376  0.0389 -0.1392
  652TIP3    H126151   5.695   2.888  15.296  0.5302  0.5011  0.8223
  652TIP3    H226152   5.738   3.032  15.310  2.1284  0.3384 -1.7836
  653TIP3   OH226153   0.918   5.729  15.604 -0.4752 -0.1278 -0.2822
  653TIP3    H126154   0.883   5.721  15.693  0.0531  0.3006 -0.0214
  653TIP3    H226155   0.917   5.823  15.587  0.7221 -0.0681 -0.1703
  654TIP3   OH226156   0.947   3.369  16.536 -0.2319  0.3110 -0.2074
  654TIP3    H126157   1.033   3.328  16.530 -0.2018  0.5478 -1.8923
  654TIP3    H226158   0.889   3.298  16.563  0.1040 -0.4752 -1.4344
  655TIP3   OH226159   2.507   2.958  16.075 -0.5089  0.1741  0.0117
  655TIP3    H126160   2.545   3.011  16.145 -1.5257  0.0044  0.7166
  655TIP3    H226161   2.499   2.870  16.113  1.1220 -0.5297 -1.1276
  656TIP3   OH226162   5.942   3.725  16.257 -0.0111 -0.0430 -0.7609
  656TIP3    H126163   5.902   3.692  16.177 -0.6147  0.6193 -0.7458
  656TIP3    H226164   6.029   3.686  16.259 -0.3765 -0.9023 -1.1937
  657TIP3   OH226165   6.186   3.146  13.373  0.7916 -0.4766  0.0131
  657TIP3    H126166   6.156   3.178  13.288 -0.8659  1.7752  1.3493
  657TIP3    H226167   6.130   3.070  13.391  0.6890 -0.5462 -0.5724
  658TIP3   OH226168   1.964   0.323  16.828 -0.3239 -0.3525  0.2068
  658TIP3    H126169   1.893   0.338  16.767 -0.0130 -0.9100 -0.3061
  658TIP3    H226170   1.995   0.235  16.808  2.4463  0.8651 -1.6345
  659TIP3   OH226171   5.914   4.308  14.167 -0.0422 -0.0273 -0.2098
  659TIP3    H126172   5.890   4.291  14.258 -0.7117 -0.1058 -0.3988
  659TIP3    H226173   5.994   4.257  14.153 -0.4933 -0.8109  0.0398
  660TIP3   OH226174   0.331   0.100  14.599 -0.0633 -0.3619  0.6271
  660TIP3    H126175   0.290   0.156  14.533 -1.8509 -2.1513  0.1327
  660TIP3    H226176   0.424   0.101  14.576 -0.1970  1.4243 -0.0573
  661TIP3   OH226177   3.198   6.235  14.581 -0.0360  0.1137 -0.1855
  661TIP3    H126178   3.160   6.247  14.668  1.6231 -0.3444  0.6470
  661TIP3    H226179   3.205   6.324  14.546 -0.1748  0.3649  0.4066
  662TIP3   OH226180   4.823   1.849  15.518  0.1149  0.0124 -0.0571
  662TIP3    H126181   4.733   1.880  15.527  0.4371  1.2667 -0.8968
  662TIP3    H226182   4.869   1.922  15.476  1.6079 -0.4590  0.7034
  663TIP3   OH226183   0.991   6.439  14.724  0.4735 -0.5293 -0.1168
  663TIP3    H126184   0.972   6.375  14.655  0.2136 -0.3605 -0.2034
  663TIP3    H226185   0.937   6.411  14.798  1.9897 -1.6936  0.6082
  664TIP3   OH226186   5.970   2.751  16.540  0.2380  0.2429  0.2217
  664TIP3    H126187   5.919   2.772  16.462 -1.6391 -1.5535  0.8551
  664TIP3    H226188   5.921   2.791  16.612  1.8952  1.7979  0.5546
  665TIP3   OH226189   1.435   1.528  15.671 -0.5002  0.2037  0.5186
  665TIP3    H126190   1.527   1.505  15.657 -0.4082  0.3298  0.9003
  665TIP3    H226191   1.410   1.482  15.751 -1.1912 -0.9900 -0.3536
  666TIP3   OH226192   6.739   2.846  15.411  0.2483  0.0241  0.4616
  666TIP3    H126193   6.701   2.776  15.464  0.8173 -1.3378 -0.8713
  666TIP3    H226194   6.833   2.829  15.413  0.3251  0.2618 -0.5212
  667TIP3   OH226195   2.019   2.457  16.276  0.0834  0.3714  0.0469
  667TIP3    H126196   2.078   2.415  16.339 -1.6623 -0.2504  1.3609
  667TIP3    H226197   2.026   2.403  16.197  1.2894  0.3324  0.1697
  668TIP3   OH226198   1.229   2.092  15.945 -0.7443  0.1527  0.1384
  668TIP3    H126199   1.283   2.171  15.939 -1.4116  0.7526  1.4510
  668TIP3    H226200   1.253   2.053  16.030  0.7335 -1.9756 -1.1617
  669TIP3   OH226201   2.580   6.158  16.422 -0.1979 -0.3150 -0.4426
  669TIP3    H126202   2.643   6.199  16.482  0.3229  0.1482 -1.2823
  669TIP3    H226203   2.561   6.073  16.461 -0.1717  0.1366  0.5780
  670TIP3   OH226204   1.992   4.142  16.496 -0.4892  0.5294  0.4639
  670TIP3    H126205   1.938   4.164  16.571 -0.1521  1.3016  0.4921
  670TIP3    H226206   2.015   4.050  16.508  0.2985  0.8837  1.7665
  671TIP3   OH226207   2.028   4.917  14.499 -0.7131  0.3999 -0.1083
  671TIP3    H126208   1.947   4.967  14.501 -1.4580 -0.7545 -1.0174
  671TIP3    H226209   2.097   4.984  14.505 -1.6988  1.3683  1.0244
  672TIP3   OH226210   1.280   0.401  16.511 -0.6805  0.2863 -0.1925
  672TIP3    H126211   1.330   0.397  16.593 -0.8677  0.4458 -0.0720
  672TIP3    H226212   1.192   0.373  16.535 -0.8367  0.7117 -0.2582
  673TIP3   OH226213   1.581   0.164  14.492 -0.4127 -0.0402  0.3033
  673TIP3    H126214   1.537   0.239  14.453 -0.4115  0.2492  0.8507
  673TIP3    H226215   1.557   0.090  14.436  2.0337  0.8053 -2.0935
  674TIP3   OH226216   4.940   0.408  15.722 -0.2605  0.7469 -0.5428
  674TIP3    H126217   4.939   0.315  15.744  1.8634  0.5529 -1.0433
  674TIP3    H226218   4.971   0.451  15.802  2.3109  0.5812 -1.3494
  675TIP3   OH226219   4.501   4.415  15.818 -0.1788  0.0641 -0.0356
  675TIP3    H126220   4.478   4.330  15.857 -0.3796 -0.8859 -2.0990
  675TIP3    H226221   4.424   4.469  15.833 -0.6071 -0.5595  0.0931
  676TIP3   OH226222   5.715   2.140  15.616 -0.2155  0.2326  0.3561
  676TIP3    H126223   5.636   2.195  15.612 -0.9503 -0.6430  1.8252
  676TIP3    H226224   5.681   2.050  15.616  0.7003 -0.1510  2.1021
  677TIP3   OH226225   4.350   5.718  14.253  0.0789 -0.0516 -0.3315
  677TIP3    H126226   4.349   5.715  14.348 -1.6626  1.0498 -0.2698
  677TIP3    H226227   4.440   5.740  14.230  0.5489 -0.4743  1.0366
  678TIP3   OH226228   3.019   6.103  16.010 -0.3112 -0.3599  0.0742
  678TIP3    H126229   2.961   6.068  16.077 -0.7551 -0.3350 -0.2926
  678TIP3    H226230   2.961   6.150  15.950 -0.2230 -2.0378 -1.4295
  679TIP3   OH226231   0.006   4.687  15.379  0.5223  0.3759 -0.0565
  679TIP3    H126232  -0.033   4.694  15.291  1.6011 -1.7068 -0.7631
  679TIP3    H226233   0.046   4.600  15.380  1.5001  0.8078  2.1294
  680TIP3   OH226234   3.035   5.248  15.262 -0.0001  0.2765 -0.3679
  680TIP3    H126235   3.103   5.198  15.308 -0.0087  1.3494  0.8737
  680TIP3    H226236   3.080   5.288  15.188 -0.0131 -1.5986 -1.4402
  681TIP3   OH226237   5.968   3.870  15.559 -0.2327 -0.2397 -0.0547
  681TIP3    H126238   5.949   3.832  15.473 -0.5091 -0.4553  0.1024
  681TIP3    H226239   5.919   3.952  15.560  0.7460  0.3756 -0.5851
  682TIP3   OH226240   1.384   0.635  16.303  0.4837  0.0289  0.5388
  682TIP3    H126241   1.365   0.580  16.380 -0.8958 -0.3962 -0.0674
  682TIP3    H226242   1.407   0.573  16.234 -0.3206  0.2448  0.0611
  683TIP3   OH226243   2.464   1.079  14.839 -0.2109 -0.1890 -0.0067
  683TIP3    H126244   2.552   1.097  14.872  0.1187 -0.0957 -0.9117
  683TIP3    H226245   2.406   1.110  14.909  0.4268  1.2071 -0.0535
  684TIP3   OH226246   5.513   3.972  16.143 -0.1016  0.0873  0.2804
  684TIP3    H126247   5.602   3.964  16.178 -0.0234  0.3269  0.1411
  684TIP3    H226248   5.516   4.051  16.089 -1.0836  1.6548  2.3771
  685TIP3   OH226249   2.670   1.932  14.618 -0.7096  0.0888 -0.3805
  685TIP3    H126250   2.613   1.957  14.545 -1.0610  0.3331 -0.0284
  685TIP3    H226251   2.610   1.908  14.688 -0.4033 -2.1939 -0.8215
  686TIP3   OH226252   1.828   4.797  13.498  0.1722  0.2213  0.2932
  686TIP3    H126253   1.764   4.863  13.527 -0.4065  0.5227 -1.5199
  686TIP3    H226254   1.889   4.847  13.444  0.2141 -0.5789 -0.4108
  687TIP3   OH226255   6.476   5.127  14.067 -0.1321 -0.0765 -0.0224
  687TIP3    H126256   6.540   5.123  14.138  1.8556 -0.1671 -1.7070
  687TIP3    H226257   6.486   5.215  14.030 -1.1957  0.0087 -0.1459
  688TIP3   OH226258   6.569   4.455  14.835  0.1013  0.1302  0.5353
  688TIP3    H126259   6.522   4.531  14.799  0.3031  0.7605  1.5701
  688TIP3    H226260   6.660   4.485  14.843 -0.0198  0.1434  1.9503
  689TIP3   OH226261   4.601   2.754  14.232 -0.3514  0.3135  0.1731
  689TIP3    H126262   4.659   2.815  14.278  0.7648 -0.5928  0.0096
  689TIP3    H226263   4.567   2.805  14.158  0.7143  0.6940 -0.0746
  690TIP3   OH226264   5.759   4.893  15.817 -0.2381  0.7076  0.4486
  690TIP3    H126265   5.752   4.806  15.778 -0.1009 -0.8300  3.5824
  690TIP3    H226266   5.807   4.945  15.752 -1.6710 -1.0381 -2.1863
  691TIP3   OH226267   3.142   3.590  15.975 -0.1674  0.3411  0.4438
  691TIP3    H126268   3.181   3.672  16.005  1.9299 -0.7161  0.8057
  691TIP3    H226269   3.201   3.522  16.007 -1.1752 -1.2515 -0.8818
  692TIP3   OH226270   1.242   6.500  16.070 -0.4528  0.6756 -0.3025
  692TIP3    H126271   1.314   6.548  16.112 -0.4134 -1.4978  2.3782
  692TIP3    H226272   1.267   6.496  15.978  3.0790 -0.2122  0.5350
  693TIP3   OH226273   5.223   6.177  15.592 -0.1131  0.0973  0.1065
  693TIP3    H126274   5.242   6.238  15.521  0.2818  1.4799  1.3524
  693TIP3    H226275   5.138   6.204  15.626 -0.8977 -1.3472 -0.6057
  694TIP3   OH226276   0.162   5.465  14.459 -0.1415 -0.7893  0.2218
  694TIP3    H126277   0.222   5.393  14.441  0.0642 -0.3571 -0.8668
  694TIP3    H226278   0.075   5.427  14.450 -0.0516 -1.2897  1.2889
  695TIP3   OH226279   5.301   2.298  13.848 -0.0681 -0.2076 -0.0897
  695TIP3    H126280   5.381   2.308  13.796 -0.2565  2.4906 -0.0007
  695TIP3    H226281   5.230   2.310  13.785 -0.3289  0.8029  0.3752
  696TIP3   OH226282   6.691   4.623  15.101 -0.4845  0.1242  0.3458
  696TIP3    H126283   6.731   4.588  15.021  0.6292 -0.5464  1.1601
  696TIP3    H226284   6.634   4.693  15.070 -0.4552 -0.4417 -1.0757
  697TIP3   OH226285   2.964   4.377  16.829 -0.5147  0.0266  0.3071
  697TIP3    H126286   2.978   4.290  16.865 -0.3711  0.3252  0.9875
  697TIP3    H226287   2.874   4.399  16.854 -0.3847  0.2721  0.5552
  698TIP3   OH226288   0.433   2.415  14.478 -0.3178  0.0339  0.2052
  698TIP3    H126289   0.411   2.507  14.468  0.5020  0.3029  0.7415
  698TIP3    H226290   0.524   2.409  14.450 -0.1657 -0.4893  0.7909
  699TIP3   OH226291   2.589   5.168  16.540 -0.0930 -0.1262  0.0530
  699TIP3    H126292   2.641   5.242  16.572 -1.3844  0.3442  1.1486
  699TIP3    H226293   2.499   5.192  16.559 -0.6166 -1.5512 -0.5125
  700TIP3   OH226294   4.332   0.158  15.696 -0.1946 -0.2654 -0.3651
  700TIP3    H126295   4.330   0.228  15.630  3.0050 -0.5654 -0.9612
  700TIP3    H226296   4.337   0.203  15.780  2.3858  0.3463 -0.7707
  701TIP3   OH226297   5.905   4.362  16.358 -0.9362 -0.4257 -0.3835
  701TIP3    H126298   5.824   4.410  16.372 -0.4902 -0.3342  2.5141
  701TIP3    H226299   5.882   4.292  16.297 -2.4836  1.2309 -1.7892
  702TIP3   OH226300   2.308   2.973  15.864 -0.1093 -0.2491  1.1502
  702TIP3    H126301   2.359   2.971  15.945  0.0086  1.6093  1.1539
  702TIP3    H226302   2.272   3.062  15.860 -1.4625 -0.8139 -0.0176
  703TIP3   OH226303   2.766   5.304  17.376  0.5407 -0.3496  0.2574
  703TIP3    H126304   2.745   5.398  17.383 -1.6184 -0.8565  1.9049
  703TIP3    H226305   2.814   5.285  17.456  0.5812 -0.7343  0.1413
  704TIP3   OH226306   2.710   1.699  15.679  0.0061 -0.1636  0.6773
  704TIP3    H126307   2.735   1.786  15.648 -3.1260  0.8802  0.6577
  704TIP3    H226308   2.774   1.677  15.746  1.9258  1.3275 -0.5576
  705TIP3   OH226309   4.730   6.277  16.169 -0.4706 -0.4827  0.1081
  705TIP3    H126310   4.690   6.305  16.252 -1.1135  1.7151 -0.8501
  705TIP3    H226311   4.657   6.247  16.116 -0.4267  0.3983 -0.4775
  706TIP3   OH226312   0.108   1.568  15.779 -0.2336 -0.1673  0.1801
  706TIP3    H126313   0.120   1.474  15.766 -2.6994 -0.5207 -0.0240
  706TIP3    H226314   0.182   1.595  15.833  0.9795 -2.0418 -0.4664
  707TIP3   OH226315   2.783   6.558  15.653  0.4057  0.3332  0.4229
  707TIP3    H126316   2.762   6.466  15.635  1.4972 -0.0451  0.9959
  707TIP3    H226317   2.847   6.581  15.585 -0.4761  0.9358 -0.2280
  708TIP3   OH226318   5.419   3.347  14.232  1.1181  0.0844  0.3192
  708TIP3    H126319   5.490   3.307  14.281  1.0232 -0.2221  0.2100
  708TIP3    H226320   5.448   3.345  14.141  1.1269  0.2938  0.3170
  709TIP3   OH226321   3.326   1.010  14.253  0.1983  0.5555 -0.2017
  709TIP3    H126322   3.263   1.070  14.214  1.5023  2.4014  0.4004
  709TIP3    H226323   3.411   1.050  14.236  1.0650 -0.6820  1.0071
  710TIP3   OH226324   0.648   5.865  17.227  0.7560  0.1030 -0.2014
  710TIP3    H126325   0.635   5.829  17.139  3.4480  1.2252 -1.1666
  710TIP3    H226326   0.593   5.943  17.229 -1.1727 -1.1898  0.0616
  711TIP3   OH226327   6.511   5.536  14.630  0.2396 -0.8032 -0.9972
  711TIP3    H126328   6.506   5.515  14.724  1.3374  0.4968 -0.6206
  711TIP3    H226329   6.593   5.583  14.621  0.6100 -1.7483 -2.8046
  712TIP3   OH226330   5.855   4.362  13.885  0.2941 -0.6517  0.4183
  712TIP3    H126331   5.912   4.320  13.819  0.0035 -0.8462  0.2899
  712TIP3    H226332   5.913   4.379  13.959  0.6277 -0.4227  0.1068
  713TIP3   OH226333   5.781   1.293  15.059  0.1997  0.3165 -0.1636
  713TIP3    H126334   5.846   1.234  15.021  0.7395  1.7795 -1.6553
  713TIP3    H226335   5.702   1.280  15.005  0.7974  1.9952 -1.5460
  714TIP3   OH226336   0.705   3.945  14.003  0.0866 -0.1313 -0.1548
  714TIP3    H126337   0.629   3.920  14.055  0.6472 -1.0388  0.2707
  714TIP3    H226338   0.710   3.879  13.934  1.7779 -1.5101  1.1764
  715TIP3   OH226339   4.695   5.609  16.895 -0.3845  0.1529 -0.0220
  715TIP3    H126340   4.606   5.584  16.921  0.2780 -2.0619  0.3366
  715TIP3    H226341   4.692   5.609  16.799 -0.2505 -2.3618 -0.0981
  716TIP3   OH226342   2.847   5.818  16.417 -0.6933  0.5274  0.5506
  716TIP3    H126343   2.813   5.729  16.415 -1.0925  0.6545 -1.7187
  716TIP3    H226344   2.835   5.847  16.507  0.4201 -2.0398  1.6093
  717TIP3   OH226345   0.212   3.538  15.343  0.7681 -0.3686 -0.5556
  717TIP3    H126346   0.259   3.459  15.368 -0.0260 -0.5933  0.2814
  717TIP3    H226347   0.281   3.600  15.320  1.4162 -1.1362 -0.7313
  718TIP3   OH226348   1.431   4.122  14.114 -0.2299  0.3730  0.7009
  718TIP3    H126349   1.477   4.125  14.030 -0.9014 -1.4922  0.2180
  718TIP3    H226350   1.430   4.030  14.138 -2.2829  0.5336  1.4905
  719TIP3   OH226351   0.556   4.646  16.797 -0.1098 -0.3595 -0.7526
  719TIP3    H126352   0.601   4.570  16.836 -2.3618 -1.4636 -0.1120
  719TIP3    H226353   0.535   4.617  16.708 -0.6252 -0.3452 -0.6370
  720TIP3   OH226354   3.254   6.488  15.310 -0.0264  0.6433  0.0987
  720TIP3    H126355   3.336   6.466  15.354 -0.2997 -1.5855 -0.3749
  720TIP3    H226356   3.198   6.522  15.380  0.9349  1.1955  0.6243
  721TIP3   OH226357   2.088   5.941  14.594  0.0509 -0.4943  0.7490
  721TIP3    H126358   2.054   5.998  14.525  0.9510 -2.2091 -1.2217
  721TIP3    H226359   2.017   5.937  14.658 -0.9420  0.9577 -0.1842
  722TIP3   OH226360   3.989   0.082  16.128  0.3185 -0.1296 -0.1735
  722TIP3    H126361   4.083   0.084  16.142  0.0364  0.0446  1.9268
  722TIP3    H226362   3.961  -0.002  16.164 -0.2446 -0.5739 -1.5742
  723TIP3   OH226363   4.801   2.375  14.405 -0.6444  0.4052  0.2780
  723TIP3    H126364   4.728   2.402  14.461 -1.1187  0.5465 -0.3989
  723TIP3    H226365   4.773   2.396  14.316  1.4006  3.2033  0.1574
  724TIP3   OH226366   0.357   3.586  14.601  0.4392  0.3158  0.6513
  724TIP3    H126367   0.415   3.526  14.555 -0.3932  2.1641 -3.2607
  724TIP3    H226368   0.402   3.670  14.598 -1.7550  1.5575 -1.4743
  725TIP3   OH226369   3.668   3.656  14.757  0.2250  0.2339  0.3855
  725TIP3    H126370   3.620   3.704  14.824 -0.5162  0.3506 -0.2203
  725TIP3    H226371   3.603   3.638  14.689  0.6134 -1.1823  0.3649
  726TIP3   OH226372   3.713   0.196  16.990  0.1181 -0.4106  0.0861
  726TIP3    H126373   3.684   0.139  17.061  1.7024  1.1451  2.1154
  726TIP3    H226374   3.791   0.153  16.955  0.6895 -0.0477  0.8908
  727TIP3   OH226375   6.076   3.993  15.991 -0.0924  0.2848  0.0098
  727TIP3    H126376   6.000   3.939  15.972  0.2809 -0.1079 -0.3682
  727TIP3    H226377   6.077   4.059  15.921 -0.7540  1.0115  0.6713
  728TIP3   OH226378   3.121   6.387  16.589  0.2045 -0.2206 -0.7708
  728TIP3    H126379   3.029   6.387  16.561  0.3405 -1.2122 -1.2574
  728TIP3    H226380   3.159   6.464  16.545 -1.0779  2.1764  1.9636
  729TIP3   OH226381   2.008   3.409  14.496 -0.8575  0.4499 -0.0689
  729TIP3    H126382   2.041   3.319  14.497 -1.1194  0.3366  1.4258
  729TIP3    H226383   2.027   3.441  14.409  2.3817  0.1122  0.4064
  730TIP3   OH226384   6.135   4.877  16.697 -0.2261 -0.4805 -0.2051
  730TIP3    H126385   6.181   4.938  16.754  1.6890 -2.6872  0.7701
  730TIP3    H226386   6.076   4.828  16.755 -0.8588 -0.3971 -0.7550
  731TIP3   OH226387   4.068   2.555  15.870 -0.4943 -0.0871 -0.3798
  731TIP3    H126388   4.063   2.627  15.807 -1.6766 -0.5533 -0.8359
  731TIP3    H226389   4.147   2.507  15.846 -0.4642  0.2465 -0.9505
  732TIP3   OH226390   1.505   0.169  16.216  0.0030 -0.5156 -0.2109
  732TIP3    H126391   1.541   0.211  16.294 -0.8973  0.6566 -0.4012
  732TIP3    H226392   1.416   0.203  16.209 -0.1172 -1.0293 -1.4462
  733TIP3   OH226393   0.540   2.499  16.210 -0.3872 -0.2484  0.3685
  733TIP3    H126394   0.520   2.587  16.181  2.1362  0.3042  0.0491
  733TIP3    H226395   0.584   2.511  16.294  0.3790 -1.1361  0.1159
  734TIP3   OH226396   5.328   2.929  13.447 -0.3761  0.2283 -0.0326
  734TIP3    H126397   5.285   2.969  13.371  0.9748 -0.0549 -0.9847
  734TIP3    H226398   5.386   2.862  13.409 -0.0229 -0.2386  1.2836
  735TIP3   OH226399   6.220   1.690  14.057 -0.4184  0.3435 -0.4181
  735TIP3    H126400   6.261   1.775  14.039 -2.4613  1.3630 -0.5311
  735TIP3    H226401   6.260   1.631  13.993 -0.4424  1.7032 -1.7501
  736TIP3   OH226402   5.569   4.201  14.300 -0.0672 -0.6359 -0.0818
  736TIP3    H126403   5.624   4.133  14.262 -0.1588 -1.8725  1.9052
  736TIP3    H226404   5.628   4.276  14.312  0.4007 -0.8720 -0.8174
  737TIP3   OH226405   1.082   1.034  15.067  0.4516 -0.0065  0.2715
  737TIP3    H126406   1.063   1.079  14.985 -0.3326 -0.2733  0.2989
  737TIP3    H226407   1.011   1.061  15.126  0.6686 -0.3038  0.6725
  738TIP3   OH226408   1.042   1.059  14.170  0.1247 -0.0310  0.3291
  738TIP3    H126409   1.030   1.088  14.080  0.6334 -0.3696  0.1443
  738TIP3    H226410   1.048   0.963  14.163 -1.5062 -0.2111  0.9148
  739TIP3   OH226411   1.166   5.014  14.617 -0.5007  0.0127 -0.5868
  739TIP3    H126412   1.076   5.005  14.586 -0.2546  0.5698 -1.5122
  739TIP3    H226413   1.206   5.077  14.557  0.2204  0.5720  0.4452
  740TIP3   OH226414   4.367   2.515  17.039 -0.2526 -0.0641 -0.3818
  740TIP3    H126415   4.404   2.601  17.017  1.7394 -0.3705  1.3542
  740TIP3    H226416   4.432   2.477  17.099 -3.7347 -0.3818  3.6271
  741TIP3   OH226417   3.335   0.261  16.211 -0.1612  0.2227 -0.5339
  741TIP3    H126418   3.269   0.217  16.264 -0.8529 -0.1155 -1.6400
  741TIP3    H226419   3.286   0.303  16.141  0.6886  1.0125 -0.6772
  742TIP3   OH226420   0.171   3.536  14.788 -1.1092 -0.0317  0.0137
  742TIP3    H126421   0.105   3.472  14.764 -0.8226 -1.0673  1.7787
  742TIP3    H226422   0.245   3.519  14.729 -1.2100 -1.0639  0.1601
  743TIP3   OH226423   5.662   0.123  15.411  0.0680  0.3918 -0.0126
  743TIP3    H126424   5.607   0.139  15.488 -0.5967  0.2766 -0.4547
  743TIP3    H226425   5.748   0.159  15.435  0.2323 -0.7906  1.2569
  744TIP3   OH226426   5.600   4.487  14.272  0.2905  0.7322 -0.2168
  744TIP3    H126427   5.510   4.516  14.282  0.1739  0.8230 -1.3920
  744TIP3    H226428   5.608   4.464  14.179  1.3268  0.2279 -0.0222
  745TIP3   OH226429   1.051   4.091  15.711 -0.2327  0.1454 -0.1388
  745TIP3    H126430   1.023   4.064  15.798 -0.5347 -0.4368 -0.4070
  745TIP3    H226431   1.081   4.181  15.721 -1.6595  0.5909  0.2702
  746TIP3   OH226432   5.341   0.792  15.252  0.3428  0.2740  0.5549
  746TIP3    H126433   5.254   0.752  15.253  0.1916  0.2772 -2.3941
  746TIP3    H226434   5.325   0.885  15.241  0.6390  0.1275 -1.5304
  747TIP3   OH226435   0.253   2.479  14.971 -0.6923  0.0830  0.1115
  747TIP3    H126436   0.289   2.391  14.977 -0.4302  0.0817 -1.1603
  747TIP3    H226437   0.200   2.478  14.891 -0.5480  1.1220 -0.0093
  748TIP3   OH226438   0.858   5.730  17.337 -0.0802 -0.0180  0.0202
  748TIP3    H126439   0.789   5.787  17.303 -0.1512 -0.1790 -0.1119
  748TIP3    H226440   0.836   5.719  17.430 -0.7186 -0.7458 -0.2001
  749TIP3   OH226441   0.600   2.200  15.865  0.0098  0.5936 -0.2351
  749TIP3    H126442   0.582   2.138  15.936  1.2650 -0.3323 -0.6757
  749TIP3    H226443   0.534   2.181  15.799  1.0753 -1.1777 -0.8805
  750TIP3   OH226444   5.367   3.940  14.974 -0.0489  0.3821  0.4042
  750TIP3    H126445   5.427   3.866  14.984  0.1617  0.3816 -0.7103
  750TIP3    H226446   5.425   4.016  14.964 -0.1968  0.3506 -0.9277
  751TIP3   OH226447   6.616   6.191  15.032  0.3272  0.1955 -0.4802
  751TIP3    H126448   6.631   6.263  14.970  0.2341 -0.2265 -0.9995
  751TIP3    H226449   6.670   6.213  15.108  0.9154  0.4150 -0.9524
  752TIP3   OH226450   3.365   3.408  14.603 -0.9049 -0.2072 -0.0192
  752TIP3    H126451   3.354   3.410  14.698  1.0221 -2.2380  0.3338
  752TIP3    H226452   3.425   3.481  14.584 -1.2311  0.1528  0.3253
  753TIP3   OH226453   5.018   6.423  16.400 -0.6122  0.4568 -0.5167
  753TIP3    H126454   5.104   6.407  16.439 -1.2315 -1.2570  0.1945
  753TIP3    H226455   5.035   6.428  16.306  0.3496  0.8156 -0.3363
  754TIP3   OH226456   3.306   6.290  16.231 -0.6046  0.6335 -0.0068
  754TIP3    H126457   3.217   6.260  16.246 -0.2878 -0.9833 -1.0496
  754TIP3    H226458   3.347   6.288  16.317 -1.1371 -0.1531  0.2373
  755TIP3   OH226459   1.034   6.744  16.040 -0.5785 -0.2488 -0.2544
  755TIP3    H126460   0.954   6.715  15.995 -1.9259  0.9740  1.2243
  755TIP3    H226461   1.104   6.692  16.000 -1.9127 -0.4813 -2.4860
  756TIP3   OH226462   5.873   2.999  13.122  0.6417  0.4194  0.4521
  756TIP3    H126463   5.786   2.977  13.088  1.3699 -0.6743 -0.7736
  756TIP3    H226464   5.873   2.964  13.211 -0.2890  0.7476  0.5945
  757TIP3   OH226465   0.979   6.589  15.634  0.0036 -0.3756  0.8894
  757TIP3    H126466   0.986   6.541  15.717 -0.9924 -4.2236 -1.0359
  757TIP3    H226467   0.892   6.630  15.638  0.6436  0.9747  2.3389
  758TIP3   OH226468   5.589   1.378  14.588  0.3499  0.5003 -0.0775
  758TIP3    H126469   5.561   1.404  14.500  0.9422  0.1322 -0.3843
  758TIP3    H226470   5.595   1.460  14.637  0.9152  0.8143 -0.6504
  759TIP3   OH226471   2.501   5.752  15.229  0.1895  0.2335  0.3001
  759TIP3    H126472   2.560   5.745  15.304  0.1223  0.4044  0.3698
  759TIP3    H226473   2.500   5.664  15.191 -0.0058  0.0720  0.6754
  760TIP3   OH226474   3.611   0.056  16.308 -1.0558  0.1507  0.1318
  760TIP3    H126475   3.609   0.053  16.404  0.1757  0.2528  0.1725
  760TIP3    H226476   3.621  -0.036  16.282 -0.6455  0.1953  0.1301
  761TIP3   OH226477   5.981   0.530  16.936  0.3050  0.1914 -0.0589
  761TIP3    H126478   5.942   0.531  16.848 -1.7632  1.1062  0.8018
  761TIP3    H226479   5.980   0.622  16.963  0.3003 -0.1506  1.1690
  762TIP3   OH226480   6.529   4.185  14.687 -1.5613 -0.2679  0.1513
  762TIP3    H126481   6.571   4.109  14.726  1.9406  1.8764  1.0074
  762TIP3    H226482   6.514   4.244  14.761 -0.3504  1.4901 -0.9445
  763TIP3   OH226483   1.621   5.066  16.222  0.2491 -0.9674  0.4345
  763TIP3    H126484   1.590   5.095  16.136 -0.7563 -0.1151  1.0560
  763TIP3    H226485   1.641   5.147  16.269  0.5416 -1.4131  1.0979
  764TIP3   OH226486   6.681   2.179  15.792 -0.0076 -0.4091  0.3933
  764TIP3    H126487   6.599   2.153  15.835 -1.2603  0.7163 -1.1950
  764TIP3    H226488   6.686   2.273  15.806  1.9339 -0.6764  1.8904
  765TIP3   OH226489   4.444   5.109  15.420 -0.4309 -0.2474 -0.1156
  765TIP3    H126490   4.390   5.042  15.461 -0.4482 -0.8884 -1.1473
  765TIP3    H226491   4.457   5.175  15.488  0.7666 -1.9516  1.3766
  766TIP3   OH226492   0.443   2.134  16.727  0.3362 -0.2245 -0.0931
  766TIP3    H126493   0.501   2.209  16.741  0.3287 -0.4591  1.3020
  766TIP3    H226494   0.363   2.172  16.691  0.4246  0.4012  0.3598
  767TIP3   OH226495   4.413   0.917  16.015  0.0137  0.1209  0.6498
  767TIP3    H126496   4.467   0.841  16.036 -0.0384  0.7957  3.9073
  767TIP3    H226497   4.474   0.980  15.976  0.5241 -0.8232 -0.0917
  768TIP3   OH226498   6.602   0.006  16.270  0.6709 -0.0893 -0.5433
  768TIP3    H126499   6.658   0.065  16.221  1.0147 -0.8801 -1.1304
  768TIP3    H226500   6.661  -0.040  16.330  0.3606  0.3767  0.1234
  769TIP3   OH226501   4.594   1.540  16.104 -0.2711 -0.1591  0.0216
  769TIP3    H126502   4.551   1.455  16.112 -0.2366 -0.2570 -0.7095
  769TIP3    H226503   4.675   1.531  16.154 -0.0374 -0.7222 -0.4419
  770TIP3   OH226504   0.498   1.880  15.342 -0.0659  0.0918  1.1339
  770TIP3    H126505   0.528   1.832  15.419  2.3024 -1.4977 -0.6331
  770TIP3    H226506   0.578   1.900  15.293 -1.3685  2.2117 -0.3119
  771TIP3   OH226507   2.390   3.895  15.718 -0.2791  0.2806  0.2088
  771TIP3    H126508   2.305   3.937  15.727  0.2538  1.1004  1.9216
  771TIP3    H226509   2.418   3.878  15.808  0.7630 -1.2429 -0.3667
  772TIP3   OH226510   1.077   4.801  16.952 -0.0365  0.0723 -0.5382
  772TIP3    H126511   1.085   4.819  16.858  0.6449 -0.1940 -0.5390
  772TIP3    H226512   1.076   4.705  16.958  1.6385  0.0499 -0.1643
  773TIP3   OH226513   2.733   0.979  15.481 -0.0173 -0.4955  0.4222
  773TIP3    H126514   2.715   0.894  15.440 -0.0759 -0.7637  0.9959
  773TIP3    H226515   2.676   1.040  15.435 -0.2922 -0.8436  0.2944
  774TIP3   OH226516   4.541   4.345  15.271 -0.1144 -0.3605  0.1878
  774TIP3    H126517   4.603   4.319  15.339  0.3155 -0.5458 -0.2735
  774TIP3    H226518   4.559   4.439  15.258 -1.0421 -0.0151  1.1994
  775TIP3   OH226519   4.216   6.032  16.026  0.1041  0.3169 -0.4056
  775TIP3    H126520   4.287   5.970  16.043  0.0635  0.2938 -0.3204
  775TIP3    H226521   4.179   6.004  15.942 -0.5854 -0.4078  0.1361
  776TIP3   OH226522   4.537   1.191  15.361  0.1231 -0.0481  0.3786
  776TIP3    H126523   4.539   1.096  15.349  1.1131  0.1011 -0.8030
  776TIP3    H226524   4.456   1.219  15.318 -0.2591 -0.3522  0.8768
  777TIP3   OH226525   6.151   5.612  16.648  0.0185 -0.1365 -0.3079
  777TIP3    H126526   6.201   5.693  16.638  0.1383  0.0664  1.5341
  777TIP3    H226527   6.210   5.554  16.698 -0.9396 -0.4800  0.4539
  778TIP3   OH226528   5.221   3.682  15.627  0.1470  0.2620  0.1760
  778TIP3    H126529   5.128   3.665  15.611 -0.1564  0.2797  1.7607
  778TIP3    H226530   5.230   3.776  15.615 -0.1468  0.3324  0.4777
  779TIP3   OH226531   6.731   5.068  16.216  1.0204 -0.3556  0.1534
  779TIP3    H126532   6.774   5.039  16.297  1.0140 -0.0539  0.2660
  779TIP3    H226533   6.803   5.095  16.159  0.9116  2.0723  1.0789
  780TIP3   OH226534   5.240   1.023  17.094  0.5208 -0.5237  0.1477
  780TIP3    H126535   5.214   1.109  17.061 -1.0001 -2.3984 -4.3840
  780TIP3    H226536   5.187   1.011  17.173 -1.5979  1.4615 -0.8482
  781TIP3   OH226537   6.162   0.369  17.265  0.1891  0.2168  0.4175
  781TIP3    H126538   6.131   0.406  17.348 -1.3545 -0.1911  0.0540
  781TIP3    H226539   6.085   0.327  17.227  0.5715  1.3060 -1.7380
  782TIP3   OH226540   4.012   5.026  16.455 -0.3274  0.9177 -0.2914
  782TIP3    H126541   3.935   4.974  16.433  0.3875  0.2341 -1.2321
  782TIP3    H226542   4.007   5.103  16.398  0.5618  0.0368 -1.6113
  783TIP3   OH226543   4.999   6.704  13.881 -0.5103  0.3514 -0.2988
  783TIP3    H126544   4.915   6.707  13.835 -0.1806 -1.4346 -1.0949
  783TIP3    H226545   5.048   6.778  13.844 -1.3594  0.8053 -0.5545
  784TIP3   OH226546   1.453   5.683  13.668 -0.2008 -0.1417  0.0807
  784TIP3    H126547   1.521   5.745  13.642  1.8889 -1.8418  1.1745
  784TIP3    H226548   1.400   5.731  13.732  0.8226  0.7922  0.2670
  785TIP3   OH226549   6.039   1.888  15.633 -0.2403 -0.0881 -0.4675
  785TIP3    H126550   5.997   1.973  15.646 -0.8198 -0.3397 -0.6576
  785TIP3    H226551   6.071   1.890  15.543 -2.7248 -1.0863 -1.4827
  786TIP3   OH226552   4.765   1.336  15.301 -0.3374 -0.0139  0.8085
  786TIP3    H126553   4.684   1.288  15.318 -0.7127  0.8938  1.7130
  786TIP3    H226554   4.741   1.428  15.311  0.2728  0.4266 -1.2705
  787TIP3   OH226555   3.876   2.949  14.707  0.0247  0.1493 -0.0598
  787TIP3    H126556   3.888   2.930  14.614 -0.5145  1.5391 -0.4326
  787TIP3    H226557   3.801   3.009  14.710  0.6552  0.9046  1.1830
  788TIP3   OH226558   0.076   0.404  14.980  0.3202  0.6326 -0.4953
  788TIP3    H126559   0.039   0.367  14.900  0.1325 -0.4391  0.0650
  788TIP3    H226560   0.104   0.493  14.956 -0.0703  0.4527 -1.6386
  789TIP3   OH226561   1.839   0.178  15.374 -0.3681  0.0613 -0.3741
  789TIP3    H126562   1.875   0.256  15.332 -1.3300  2.2876  2.6099
  789TIP3    H226563   1.749   0.201  15.397 -0.4839 -1.6682  1.1762
  790TIP3   OH226564   6.135   0.302  14.144 -0.4267  0.2718 -0.1809
  790TIP3    H126565   6.061   0.281  14.200 -1.4985  0.2257 -1.5535
  790TIP3    H226566   6.207   0.250  14.179 -1.4976 -1.0804  0.1238
  791TIP3   OH226567   1.766   3.079  14.376 -0.1952  0.2224  0.1856
  791TIP3    H126568   1.834   3.108  14.437  0.0118  0.0267  0.0484
  791TIP3    H226569   1.685   3.115  14.413  0.0397  0.8877  0.0772
  792TIP3   OH226570   1.343   5.055  15.785  0.2174  0.2704  0.1168
  792TIP3    H126571   1.259   5.101  15.786  0.3771  0.5698 -0.0555
  792TIP3    H226572   1.385   5.085  15.704  0.4723  0.0875  0.1812
  793TIP3   OH226573   4.577   2.864  15.082 -0.2501  0.0054 -0.1484
  793TIP3    H126574   4.648   2.820  15.037  0.6121  0.3967  0.7939
  793TIP3    H226575   4.604   2.867  15.174 -1.4287  0.2627  0.2123
  794TIP3   OH226576   5.590   0.918  15.083 -0.0979 -0.1521 -0.1972
  794TIP3    H126577   5.592   0.898  15.177 -0.2874  0.4490 -0.0597
  794TIP3    H226578   5.671   0.880  15.049  0.5183  0.5952  0.4093
  795TIP3   OH226579   0.790   4.505  15.316  0.2420 -0.0039  0.5336
  795TIP3    H126580   0.849   4.571  15.279 -0.2216  0.1429  0.0424
  795TIP3    H226581   0.792   4.521  15.410  2.1495 -0.9600  0.7095
  796TIP3   OH226582   4.893   4.085  15.577  0.2335 -0.4306 -0.6973
  796TIP3    H126583   4.914   3.998  15.611  0.6997  0.0306  0.2573
  796TIP3    H226584   4.962   4.141  15.612 -0.0559  0.3261 -1.3084
  797TIP3   OH226585   3.848   4.124  14.594  0.2738  0.4021 -0.2854
  797TIP3    H126586   3.826   4.181  14.521  1.6396  2.4850  0.8207
  797TIP3    H226587   3.944   4.127  14.598  0.4125 -2.0821 -0.2107
  798TIP3   OH226588   1.014   5.844  16.571  0.4806 -0.1909 -0.0124
  798TIP3    H126589   1.029   5.753  16.545 -1.2451 -0.2743 -0.8030
  798TIP3    H226590   0.985   5.838  16.662  0.1934 -0.4499 -0.1192
  799TIP3   OH226591   0.807   1.128  16.189 -0.3970 -0.0462  0.4993
  799TIP3    H126592   0.856   1.159  16.265 -0.0069 -0.5034  0.4372
  799TIP3    H226593   0.858   1.159  16.114  1.0862 -2.4290  0.4075
  800TIP3   OH226594   5.987   4.026  14.059 -0.2008  0.4568 -0.3846
  800TIP3    H126595   6.065   4.070  14.093  0.0364 -1.1231  1.2216
  800TIP3    H226596   6.008   4.007  13.968  0.9761  0.7188 -0.1819
  801TIP3   OH226597   5.545   5.668  15.720  0.2913  0.1888  0.1584
  801TIP3    H126598   5.470   5.651  15.663 -1.3292 -2.1836  2.7039
  801TIP3    H226599   5.519   5.746  15.770  0.2243  0.3120 -0.0694
  802TIP3   OH226600   3.371   0.810  16.729  0.0741  0.2117  0.2511
  802TIP3    H126601   3.317   0.862  16.788 -0.1043 -1.1661  1.3324
  802TIP3    H226602   3.406   0.739  16.783  1.5902  0.0855 -0.8229
  803TIP3   OH226603   3.281   1.715  16.790 -0.1471  0.0972 -0.6115
  803TIP3    H126604   3.286   1.672  16.875  1.3224 -1.3552 -1.3684
  803TIP3    H226605   3.188   1.714  16.768 -0.4307 -0.3600  0.5478
  804TIP3   OH226606   5.315   5.236  15.887  0.4442  0.3695 -0.2245
  804TIP3    H126607   5.242   5.184  15.854  0.5336  0.7499 -1.0549
  804TIP3    H226608   5.275   5.314  15.924  0.3105 -0.2557  1.0133
  805TIP3   OH226609   2.428   0.460  14.686  0.0069 -0.0261  0.0569
  805TIP3    H126610   2.415   0.552  14.708  1.0311 -0.2818  1.9012
  805TIP3    H226611   2.352   0.437  14.633 -1.9552  1.0406  2.2218
  806TIP3   OH226612   0.574   6.557  15.108  0.0218 -0.5243  0.0844
  806TIP3    H126613   0.612   6.582  15.192  0.0144 -0.3001  0.0204
  806TIP3    H226614   0.481   6.544  15.127  0.0019 -0.3728  0.0885
  807TIP3   OH226615   1.473   0.390  14.369 -0.5162 -0.6705 -0.7636
  807TIP3    H126616   1.396   0.385  14.425 -0.6171  0.0133 -0.8270
  807TIP3    H226617   1.449   0.454  14.301  0.8810  1.3202  0.5125
  808TIP3   OH226618   2.734   1.261  14.539  0.3444 -0.4466 -0.0365
  808TIP3    H126619   2.807   1.283  14.482 -0.5500 -1.6792 -1.7748
  808TIP3    H226620   2.759   1.293  14.625  2.2815  0.4285 -0.8770
  809TIP3   OH226621   0.841   5.453  16.561 -0.3717 -0.2307  0.0684
  809TIP3    H126622   0.926   5.440  16.603 -1.3964  1.1627  2.8601
  809TIP3    H226623   0.818   5.544  16.581 -2.0816 -0.2672 -1.4612
  810TIP3   OH226624   6.293   1.872  14.662  0.1071 -0.7048 -0.2828
  810TIP3    H126625   6.282   1.777  14.665 -2.6310 -0.4244  1.2987
  810TIP3    H226626   6.212   1.907  14.697  0.8116  2.2782 -1.3248
  811TIP3   OH226627   1.415   6.452  14.271 -0.1990  0.1917 -0.1368
  811TIP3    H126628   1.448   6.468  14.360 -0.1661 -1.9916  0.2780
  811TIP3    H226629   1.369   6.369  14.276 -3.3879  1.6948 -1.3731
  812TIP3   OH226630   2.318   1.050  14.588 -0.3642 -0.0341 -0.4270
  812TIP3    H126631   2.350   1.049  14.678  0.1166  1.7160 -0.5409
  812TIP3    H226632   2.392   1.018  14.536  0.6935  2.4041 -0.5216
  813TIP3   OH226633   3.832   4.451  15.452  0.3332 -0.2820  0.4210
  813TIP3    H126634   3.798   4.376  15.403  0.3585 -0.4821  0.7109
  813TIP3    H226635   3.857   4.415  15.537 -1.9858  0.4779  1.5064
  814TIP3   OH226636   1.294   3.820  15.815 -0.1107  0.5835  0.3121
  814TIP3    H126637   1.252   3.823  15.901 -0.6789  0.6109  0.0337
  814TIP3    H226638   1.366   3.883  15.822  1.0021 -0.7228  1.3632
  815TIP3   OH226639   5.337   3.284  14.897 -0.2500  0.1557 -0.3845
  815TIP3    H126640   5.252   3.302  14.937 -0.6608 -0.4417 -0.9683
  815TIP3    H226641   5.392   3.253  14.969 -0.8217 -0.4106 -0.1865
  816TIP3   OH226642   4.106   5.919  16.258 -0.9684 -0.1261 -0.0025
  816TIP3    H126643   4.019   5.953  16.276 -0.0926  1.9934  0.5287
  816TIP3    H226644   4.148   5.987  16.205  0.0780 -1.5063 -1.0173
  817TIP3   OH226645   6.602   5.382  16.216  0.0923  0.4876  0.4434
  817TIP3    H126646   6.618   5.298  16.260 -0.0983  0.8812  1.2904
  817TIP3    H226647   6.511   5.402  16.237 -0.0037  0.6765 -0.1538
  818TIP3   OH226648   0.934   2.676  14.269 -0.0499 -0.8429  0.1713
  818TIP3    H126649   0.994   2.724  14.327  0.1266  1.3236 -1.6493
  818TIP3    H226650   0.847   2.695  14.305 -0.0203  1.3051 -0.7220
  819TIP3   OH226651   2.586   4.532  15.994 -0.6073  0.9781 -0.2518
  819TIP3    H126652   2.572   4.448  15.950 -1.1001  0.8469  0.1490
  819TIP3    H226653   2.654   4.515  16.059 -0.3711  1.0088 -0.4872
  820TIP3   OH226654   6.013   0.552  15.085  0.4479  0.4172 -0.1367
  820TIP3    H126655   6.032   0.621  15.021  3.8630 -1.9474 -1.9518
  820TIP3    H226656   6.087   0.555  15.146 -1.0474  0.4070  1.7916
  821TIP3   OH226657   2.810   2.410  15.650 -0.3696  0.0590 -0.4905
  821TIP3    H126658   2.737   2.369  15.603 -0.4690  0.5680 -0.7951
  821TIP3    H226659   2.866   2.444  15.581 -0.7245  1.1745 -0.2504
  822TIP3   OH226660   5.630   6.184  15.445 -0.5409  0.1939 -0.4803
  822TIP3    H126661   5.670   6.259  15.400  1.0826  0.4108  1.2203
  822TIP3    H226662   5.610   6.122  15.374 -0.9695  1.7811 -1.8095
  823TIP3   OH226663   0.691   6.629  15.359  0.4418  0.4294 -0.1383
  823TIP3    H126664   0.766   6.683  15.336  0.7787 -0.2059 -0.5533
  823TIP3    H226665   0.666   6.659  15.446  1.9313 -0.1614  0.5214
  824TIP3   OH226666   5.665   6.419  16.956  0.3636 -0.1324  0.4119
  824TIP3    H126667   5.597   6.361  16.990  0.1515  0.5986  1.2886
  824TIP3    H226668   5.694   6.469  17.032  1.0562  0.3941 -0.1802
  825TIP3   OH226669   5.526   6.205  15.701 -0.2312  0.6388 -0.0774
  825TIP3    H126670   5.562   6.191  15.614 -1.6218 -0.4348 -0.5202
  825TIP3    H226671   5.433   6.220  15.687 -0.4126  0.8716  1.1959
  826TIP3   OH226672   3.108   1.536  16.052  0.4211 -0.3456  0.0161
  826TIP3    H126673   3.028   1.583  16.073 -0.3407  0.1534 -3.4108
  826TIP3    H226674   3.178   1.590  16.089 -0.6697  0.9018  0.3134
  827TIP3   OH226675   2.735   2.461  17.320 -0.5196 -0.1928 -0.1629
  827TIP3    H126676   2.824   2.496  17.332 -0.7594  0.6746 -0.8761
  827TIP3    H226677   2.747   2.387  17.261 -0.3371  0.2766 -0.7208
  828TIP3   OH226678   3.837   1.789  15.540 -0.0655 -0.1472 -0.1094
  828TIP3    H126679   3.747   1.793  15.572 -0.1742 -0.2629 -0.4028
  828TIP3    H226680   3.890   1.778  15.619 -0.2926  0.1298  0.0825
  829TIP3   OH226681   1.526   2.438  14.997 -0.3184 -0.1389 -0.0231
  829TIP3    H126682   1.540   2.428  15.091 -1.4277  1.3515  0.3366
  829TIP3    H226683   1.478   2.360  14.970  1.6995 -1.5378  0.2171
  830TIP3   OH226684   0.338   3.725  13.696 -0.0683 -0.0346  0.4193
  830TIP3    H126685   0.270   3.772  13.646  0.5091  1.2530  0.8091
  830TIP3    H226686   0.289   3.663  13.750 -0.6774 -2.2348 -2.4191
  831TIP3   OH226687   3.870   2.944  14.990 -0.1502 -0.6366  0.2435
  831TIP3    H126688   3.878   2.915  14.899  3.3298 -0.7707  0.4507
  831TIP3    H226689   3.813   2.879  15.031 -1.9719 -0.4554 -1.8342
  832TIP3   OH226690   2.294   5.830  14.885 -0.4068 -0.6526 -0.0095
  832TIP3    H126691   2.350   5.843  14.808 -0.8896 -0.1368 -0.2842
  832TIP3    H226692   2.301   5.736  14.904  0.7722 -0.5391  0.1435
  833TIP3   OH226693   1.289   2.446  16.294  0.4751  0.7884 -0.4629
  833TIP3    H126694   1.334   2.363  16.306 -1.7610 -0.1990  2.0245
  833TIP3    H226695   1.244   2.437  16.209  0.2245 -0.5766 -0.2058
  834TIP3   OH226696   1.831   3.805  14.541  0.1052  0.2255 -0.7625
  834TIP3    H126697   1.925   3.798  14.524 -0.4399 -1.5904 -3.6877
  834TIP3    H226698   1.800   3.872  14.480 -0.6416  0.2149 -0.4094
  835TIP3   OH226699   1.072   5.362  16.689 -0.2605 -0.0012 -0.6061
  835TIP3    H126700   1.047   5.387  16.778 -1.4860  0.4305 -1.0430
  835TIP3    H226701   1.161   5.396  16.679 -0.6061  1.1439  0.0094
  836TIP3   OH226702   2.451   1.628  15.718 -0.2548  0.1220 -0.1703
  836TIP3    H126703   2.437   1.536  15.697 -1.5018 -0.4341  2.5976
  836TIP3    H226704   2.546   1.637  15.723 -0.0988 -1.6113  1.4716
  837TIP3   OH226705   5.779   6.476  15.769 -0.9083  0.1690 -0.4572
  837TIP3    H126706   5.824   6.444  15.848 -0.7376 -1.7623 -1.2770
  837TIP3    H226707   5.808   6.567  15.760  1.8885 -0.6002 -0.2337
  838TIP3   OH226708   0.713   0.686  16.667  0.3789  0.2168  0.1369
  838TIP3    H126709   0.618   0.677  16.671  0.3373  0.8365  0.9330
  838TIP3    H226710   0.746   0.596  16.664 -0.2602 -0.0004 -1.9072
  839TIP3   OH226711   2.444   5.826  14.267  0.5366 -0.0758  0.1421
  839TIP3    H126712   2.491   5.908  14.248  1.1497 -0.5257 -0.3136
  839TIP3    H226713   2.502   5.757  14.236 -0.2893 -0.6626 -0.1326
  840TIP3   OH226714   2.001   0.537  15.895 -0.8594  0.3910 -0.0844
  840TIP3    H126715   2.006   0.570  15.985  1.4072  0.6117 -0.2245
  840TIP3    H226716   2.022   0.444  15.902 -0.6189  0.4201 -0.3725
  841TIP3   OH226717   5.628   2.065  16.095 -0.1288 -0.0233 -0.9164
  841TIP3    H126718   5.556   2.020  16.052 -0.9953  1.1284 -0.7359
  841TIP3    H226719   5.693   2.080  16.026 -0.7621  0.3121 -1.4464
  842TIP3   OH226720   6.135   0.241  15.718  0.2382 -0.3972 -0.9414
  842TIP3    H126721   6.161   0.200  15.801  0.7376  1.1331 -0.3072
  842TIP3    H226722   6.208   0.223  15.659  0.2457 -0.8006 -0.8184
  843TIP3   OH226723   2.268   4.116  16.373  0.0587 -0.0398 -0.0786
  843TIP3    H126724   2.264   4.023  16.352  0.4971  0.0612 -0.6515
  843TIP3    H226725   2.235   4.122  16.462  3.5190 -1.2779  1.4867
  844TIP3   OH226726   4.106   4.047  15.028  0.5108  0.3566  0.4458
  844TIP3    H126727   4.091   4.027  14.935  2.9335  0.7261 -0.1093
  844TIP3    H226728   4.029   4.096  15.055 -0.2300  0.2876 -1.3969
  845TIP3   OH226729   6.415   5.811  14.054  0.7459 -0.0546  0.6208
  845TIP3    H126730   6.367   5.817  13.972 -1.3510 -2.3077  1.5849
  845TIP3    H226731   6.507   5.806  14.027  0.4423  2.6580 -1.3442
  846TIP3   OH226732   6.518   5.311  15.758  0.0414 -0.8806 -0.3350
  846TIP3    H126733   6.583   5.354  15.702 -0.1064 -2.0805 -1.4902
  846TIP3    H226734   6.475   5.247  15.700 -1.1709 -1.1222  0.7772
  847TIP3   OH226735   5.056   3.029  15.220 -0.0986  0.0984  0.8591
  847TIP3    H126736   5.066   3.123  15.234  1.2882 -0.0796  1.1994
  847TIP3    H226737   5.102   3.012  15.137 -0.4115 -0.2769  0.7572
  848TIP3   OH226738   1.455   0.238  15.107 -0.0703  0.3361 -0.2997
  848TIP3    H126739   1.479   0.157  15.062  0.3853  0.6909 -0.7025
  848TIP3    H226740   1.368   0.260  15.072 -0.3317 -0.1478  0.0464
  849TIP3   OH226741   3.445   2.514  16.820 -0.1172  0.3712 -0.1250
  849TIP3    H126742   3.486   2.487  16.738 -0.5047  0.5750 -0.3879
  849TIP3    H226743   3.499   2.587  16.852  0.9968 -0.7509  0.6422
  850TIP3   OH226744   6.621   1.920  15.070  0.0715 -0.4242  0.5797
  850TIP3    H126745   6.585   1.833  15.055  0.6750 -0.5707 -0.0989
  850TIP3    H226746   6.613   1.964  14.986 -0.4425  0.2678  0.9781
  851TIP3   OH226747   0.343   2.221  14.959 -0.2307  0.4023  0.1960
  851TIP3    H126748   0.407   2.166  15.003  0.0823  0.4496 -0.1947
  851TIP3    H226749   0.368   2.219  14.866  0.3990  2.0136  0.2950
  852TIP3   OH226750   5.660   3.018  14.353  0.5621 -0.0587 -0.6244
  852TIP3    H126751   5.620   3.000  14.438  0.8483 -1.1609 -0.7097
  852TIP3    H226752   5.630   2.946  14.297  0.5752  0.5236 -1.3972
  853TIP3   OH226753   5.801   6.452  17.219 -0.2850 -0.0457 -0.9906
  853TIP3    H126754   5.838   6.538  17.202 -3.1160  1.6024  0.6036
  853TIP3    H226755   5.802   6.443  17.314 -3.3322 -0.1024 -0.8705
  854TIP3   OH226756   5.390   0.144  15.264  0.3971 -0.4612  0.4533
  854TIP3    H126757   5.469   0.154  15.317  0.3131  0.6830  0.3927
  854TIP3    H226758   5.388   0.223  15.209 -1.1730 -0.1002  0.9782
  855TIP3   OH226759   4.537   1.119  14.645 -0.1494 -0.0109 -0.2776
  855TIP3    H126760   4.494   1.203  14.663  0.8044  0.6482 -1.0145
  855TIP3    H226761   4.495   1.058  14.706 -2.0273  0.6283 -0.8504
  856TIP3   OH226762   1.698   0.875  14.783 -0.1404 -0.1547  0.0676
  856TIP3    H126763   1.719   0.967  14.765  1.6572 -0.9469 -2.4014
  856TIP3    H226764   1.781   0.836  14.809 -0.5546 -1.4062 -0.4236
  857TIP3   OH226765   1.623   5.549  16.348 -0.0829  0.2751 -0.5752
  857TIP3    H126766   1.640   5.633  16.305  0.2851  1.8019  2.3062
  857TIP3    H226767   1.710   5.514  16.368 -0.2173  0.5804  0.6259
  858TIP3   OH226768   5.672   3.731  15.426  0.1425 -0.1492  0.2379
  858TIP3    H126769   5.625   3.689  15.354  0.7745 -0.9741  0.2868
  858TIP3    H226770   5.763   3.732  15.398  0.5760 -1.4865  1.4556
  859TIP3   OH226771   4.128   2.528  14.099 -0.0240  0.7116  0.8054
  859TIP3    H126772   4.204   2.540  14.155  0.0916  0.0631  0.7894
  859TIP3    H226773   4.101   2.437  14.113 -0.2024  0.6464  0.0740
  860TIP3   OH226774   5.994   2.105  14.927  0.0219 -0.2693  0.0822
  860TIP3    H126775   5.974   2.196  14.906 -0.2281  0.2337  2.2413
  860TIP3    H226776   6.080   2.108  14.969  0.0461 -1.0358  0.1029
  861TIP3   OH226777   3.820   0.530  14.196  0.2909  0.2000 -0.3143
  861TIP3    H126778   3.727   0.550  14.208  0.1821 -0.5741  0.2112
  861TIP3    H226779   3.821   0.463  14.127  0.5049  0.6524 -0.7505
  862TIP3   OH226780   5.117   1.723  15.876 -0.5079  0.6931 -0.0361
  862TIP3    H126781   5.094   1.785  15.945 -4.2200 -1.1093  0.6320
  862TIP3    H226782   5.037   1.712  15.825  0.5153 -2.0780 -1.2899
  863TIP3   OH226783   4.505   0.861  16.359  0.0328 -0.0305  1.1727
  863TIP3    H126784   4.565   0.851  16.285  1.2700 -2.5616  2.3775
  863TIP3    H226785   4.423   0.823  16.328  0.6869 -1.5454  1.1673
  864TIP3   OH226786   5.974   0.661  14.253  0.6817  0.6226  0.2541
  864TIP3    H126787   5.917   0.659  14.329  0.2708  0.5139 -0.0516
  864TIP3    H226788   5.925   0.711  14.187  0.6552 -0.0211 -0.2276
  865TIP3   OH226789   3.613   6.476  15.054 -0.3593  0.7500 -0.0687
  865TIP3    H126790   3.571   6.460  15.138 -1.0856  0.3943 -0.4976
  865TIP3    H226791   3.573   6.556  15.022  1.3335  2.0335  0.8156
  866TIP3   OH226792   0.952   0.629  14.798  0.2926  0.4577  0.6916
  866TIP3    H126793   0.902   0.566  14.745 -3.7375  2.8878  1.2767
  866TIP3    H226794   0.970   0.582  14.879 -1.7317 -0.3409  0.7390
  867TIP3   OH226795   1.880   4.094  14.756 -0.1885 -0.7688  0.3377
  867TIP3    H126796   1.812   4.034  14.789 -0.0646 -0.3817  1.3290
  867TIP3    H226797   1.840   4.135  14.679 -0.3714 -1.9317 -0.2067
  868TIP3   OH226798   6.377   3.811  14.873 -0.1649  0.3426 -0.6364
  868TIP3    H126799   6.422   3.895  14.873 -0.0347  0.2752 -0.3279
  868TIP3    H226800   6.430   3.755  14.815 -0.2379  0.4634 -0.8209
  869TIP3   OH226801   3.337   2.761  15.223  0.1155  0.0025 -0.0719
  869TIP3    H126802   3.429   2.737  15.230 -0.0396 -0.3004  1.5002
  869TIP3    H226803   3.325   2.789  15.133  1.3186 -1.7366 -0.8181
  870TIP3   OH226804   3.845   1.918  13.964 -0.1678 -0.1060 -0.2022
  870TIP3    H126805   3.938   1.926  13.982 -0.2603 -1.0047  0.7290
  870TIP3    H226806   3.832   1.970  13.884  0.8280  1.3317  0.5266
  871TIP3   OH226807   6.491   6.664  16.707 -0.0298 -0.1523  0.0997
  871TIP3    H126808   6.502   6.759  16.703  0.6199 -0.2019  0.5510
  871TIP3    H226809   6.406   6.648  16.667  0.5106  0.4802 -1.3977
  872TIP3   OH226810   3.404   6.252  16.511  0.2393  0.3890  0.0070
  872TIP3    H126811   3.480   6.271  16.566 -0.0040  0.1185  0.4429
  872TIP3    H226812   3.329   6.261  16.569 -0.0601  0.5734 -0.3998
  873TIP3   OH226813   4.600   6.160  15.965  0.0954  0.3937  0.1732
  873TIP3    H126814   4.670   6.098  15.988 -0.4174 -0.0139  0.6501
  873TIP3    H226815   4.555   6.119  15.891 -0.7846 -0.2355  1.0321
  874TIP3   OH226816   4.514   3.773  14.302  0.1345  0.7417  0.0436
  874TIP3    H126817   4.608   3.756  14.305  0.3028  0.8536 -2.2414
  874TIP3    H226818   4.507   3.869  14.305  0.2467  0.8144 -1.2336
  875TIP3   OH226819   0.466   1.687  16.213 -0.3578  0.0716  0.2805
  875TIP3    H126820   0.447   1.769  16.258  1.2126  0.5749  0.0917
  875TIP3    H226821   0.548   1.657  16.251 -0.7175 -1.2400  0.0827
  876TIP3   OH226822   4.612   6.373  15.191 -0.5072 -0.0520  0.3835
  876TIP3    H126823   4.573   6.326  15.264  0.8918  0.2282  1.3574
  876TIP3    H226824   4.582   6.326  15.113 -1.4561 -0.7868  1.1752
  877TIP3   OH226825   5.718   1.585  16.860 -0.6382  0.0505 -0.3429
  877TIP3    H126826   5.747   1.551  16.776  0.4394  1.7694 -0.7128
  877TIP3    H226827   5.625   1.607  16.847 -1.3413 -2.4925 -0.1212
  878TIP3   OH226828   1.118   0.994  15.826 -0.1805 -0.0281 -0.0035
  878TIP3    H126829   1.166   0.913  15.845 -2.0002 -0.7034  2.1701
  878TIP3    H226830   1.026   0.969  15.833 -0.8798  1.6379 -2.1420
  879TIP3   OH226831   0.433   4.234  16.124 -0.3977 -0.0554 -0.2013
  879TIP3    H126832   0.445   4.144  16.096 -1.0111 -0.0156 -0.6250
  879TIP3    H226833   0.504   4.250  16.185  0.0136 -0.6647 -0.5089
  880TIP3   OH226834   5.280   6.639  15.444 -0.5604  0.0459 -0.2129
  880TIP3    H126835   5.316   6.710  15.497 -0.7587 -1.0159  1.4291
  880TIP3    H226836   5.352   6.611  15.388 -0.1590  0.7958 -0.0844
  881TIP3   OH226837   3.736   5.168  16.598  0.4080  0.5324  0.1357
  881TIP3    H126838   3.693   5.171  16.683  0.7803  0.6569  0.3227
  881TIP3    H226839   3.795   5.093  16.605 -0.6591 -0.4109 -0.5454
  882TIP3   OH226840   5.512   4.782  14.001  0.2319  0.1581  0.7459
  882TIP3    H126841   5.565   4.702  14.011  1.6322  1.1359  1.5606
  882TIP3    H226842   5.512   4.798  13.906  0.3999 -0.5033  0.6236
  883TIP3   OH226843   4.977   3.103  13.790 -0.9029 -0.1204  0.0141
  883TIP3    H126844   5.011   3.130  13.705 -0.1968 -0.8192  0.0577
  883TIP3    H226845   5.011   3.014  13.802 -2.0977 -0.5443  0.4290
  884TIP3   OH226846   3.095   1.548  13.999  0.2505 -0.0140  0.2575
  884TIP3    H126847   3.039   1.589  13.933  0.7050 -1.3686 -1.0320
  884TIP3    H226848   3.184   1.568  13.971  0.4566 -0.9220  0.2144
  885TIP3   OH226849   4.630   2.057  16.097 -0.3957 -0.1040  0.0303
  885TIP3    H126850   4.584   2.138  16.073 -0.5030  0.7224  2.7000
  885TIP3    H226851   4.689   2.040  16.024  0.3528  2.9508 -0.1864
  886TIP3   OH226852   3.070   2.882  14.407  0.1914  0.0978  0.3311
  886TIP3    H126853   3.094   2.813  14.345  0.0341  1.5726 -1.4449
  886TIP3    H226854   3.125   2.956  14.383 -1.1786  1.2905  0.7310
  887TIP3   OH226855   0.591   4.504  14.616  0.1988  0.2888 -0.6851
  887TIP3    H126856   0.549   4.579  14.658 -2.0664 -1.3625  0.1846
  887TIP3    H226857   0.585   4.433  14.680  1.0365 -1.0208 -1.9840
  888TIP3   OH226858   6.018   4.715  15.096  0.1237 -0.1145  0.1720
  888TIP3    H126859   6.051   4.628  15.075 -2.2836 -0.7771 -1.1804
  888TIP3    H226860   5.979   4.706  15.182 -0.7272 -0.5948 -0.2482
  889TIP3   OH226861   2.932   0.192  14.477  0.0631 -0.1843 -0.2697
  889TIP3    H126862   2.952   0.148  14.394 -1.3610  0.9778 -1.2624
  889TIP3    H226863   2.962   0.282  14.464 -0.7633  0.1723  0.2258
  890TIP3   OH226864   3.272   5.368  15.600 -0.1113 -0.0045 -0.0032
  890TIP3    H126865   3.203   5.433  15.589 -0.0059  0.0115 -0.6295
  890TIP3    H226866   3.258   5.306  15.528  1.0017  0.4415 -0.6289
  891TIP3   OH226867   3.676   1.643  13.747 -0.3387  0.4705  0.1397
  891TIP3    H126868   3.701   1.590  13.823  1.8976  1.8308  0.4351
  891TIP3    H226869   3.645   1.579  13.683  1.6212 -1.1742  0.7238
  892TIP3   OH226870   3.255   3.997  15.043  0.0914  0.2214  0.3728
  892TIP3    H126871   3.287   4.000  14.953  2.5322 -0.2220  1.1410
  892TIP3    H226872   3.194   3.924  15.045 -0.9605  1.0147 -1.1791
  893TIP3   OH226873   1.492   6.627  16.477 -0.6507  1.0932 -0.2604
  893TIP3    H126874   1.429   6.571  16.523  0.1015 -0.0484 -0.5840
  893TIP3    H226875   1.567   6.633  16.537 -0.5365  1.3564 -0.4291
  894TIP3   OH226876   5.052   2.004  15.911 -0.2372 -0.1176 -0.0964
  894TIP3    H126877   5.147   2.014  15.902 -0.1331 -1.6900 -1.2616
  894TIP3    H226878   5.015   2.075  15.858  0.3054 -0.0241 -0.3607
  895TIP3   OH226879   4.310   6.738  16.756  0.0103 -0.1349  0.2332
  895TIP3    H126880   4.247   6.683  16.710 -0.7814 -0.1587  1.3165
  895TIP3    H226881   4.386   6.740  16.698 -0.2588 -1.6814 -0.2172
  896TIP3   OH226882   3.826   3.145  13.484  0.1814 -0.0107  0.0783
  896TIP3    H126883   3.843   3.071  13.542 -1.9127  0.0042  0.7752
  896TIP3    H226884   3.748   3.120  13.435  1.0155  0.6316 -1.6426
  897TIP3   OH226885   2.153   5.114  16.736 -0.6013  0.2169  0.1119
  897TIP3    H126886   2.084   5.171  16.702 -0.9902 -0.0262  0.4798
  897TIP3    H226887   2.183   5.065  16.660 -0.4849  0.6803 -0.1472
  898TIP3   OH226888   5.556   1.280  15.307 -0.1885 -0.0096  0.2797
  898TIP3    H126889   5.638   1.312  15.269 -0.9894  0.8129 -0.8132
  898TIP3    H226890   5.524   1.215  15.244  0.2976 -1.3938  1.3927
  899TIP3   OH226891   5.346   5.880  16.469  0.2649  0.4836 -0.0599
  899TIP3    H126892   5.430   5.902  16.509 -0.4095  0.7836  1.2482
  899TIP3    H226893   5.365   5.805  16.413  1.0446 -0.6653  1.6763
  900TIP3   OH226894   4.975   3.106  14.506 -0.4855 -0.3985 -0.2566
  900TIP3    H126895   4.984   3.192  14.464  1.8130 -0.7213 -0.5327
  900TIP3    H226896   5.065   3.079  14.524 -1.0828 -3.1316 -0.9427
  901TIP3   OH226897   1.181   0.798  13.499  0.4437  0.4962  0.1406
  901TIP3    H126898   1.261   0.831  13.541  0.2569  0.6922  0.3402
  901TIP3    H226899   1.182   0.837  13.411  1.7780 -1.3239 -0.7310
  902TIP3   OH226900   0.056   5.029  14.541 -0.3597 -0.2786  0.3611
  902TIP3    H126901   0.106   5.099  14.498  1.9684 -1.0249  1.6546
  902TIP3    H226902   0.123   4.976  14.585 -2.2347 -2.1281  1.1350
  903TIP3   OH226903   2.837   4.177  16.550 -0.0281  0.1403  0.1744
  903TIP3    H126904   2.761   4.230  16.575  0.0352 -0.2964  1.3734
  903TIP3    H226905   2.911   4.238  16.556 -0.4358  1.0593 -2.7557
  904TIP3   OH226906   0.277   2.612  16.560  0.1524 -0.5814  0.4276
  904TIP3    H126907   0.359   2.659  16.572 -0.2880 -0.0252  1.4045
  904TIP3    H226908   0.214   2.680  16.537  0.0421 -1.0642 -0.7797
  905TIP3   OH226909   3.154   0.783  15.657  0.6569  0.1207 -0.9916
  905TIP3    H126910   3.082   0.770  15.595 -1.2695 -0.3662  1.2321
  905TIP3    H226911   3.147   0.711  15.719  2.3340  0.7304 -0.0057
  906TIP3   OH226912   4.666   5.075  16.784 -0.1291 -0.3517  0.3570
  906TIP3    H126913   4.717   4.994  16.784  1.7237  0.7537  1.1516
  906TIP3    H226914   4.613   5.069  16.864 -1.8832 -1.8137 -0.8229
  907TIP3   OH226915   4.900   5.610  15.454 -0.6336 -0.8828 -0.2040
  907TIP3    H126916   4.928   5.607  15.363 -0.5347  0.6804 -0.2612
  907TIP3    H226917   4.970   5.567  15.503  0.5538  0.4872 -0.6276
  908TIP3   OH226918   4.695   6.616  16.203  0.5242  0.1215  0.4975
  908TIP3    H126919   4.751   6.605  16.127 -0.4784  0.2342 -0.2858
  908TIP3    H226920   4.755   6.637  16.275  1.3489  2.4305 -0.7352
  909TIP3   OH226921   3.525   5.682  16.291 -0.0402 -0.0935 -0.9514
  909TIP3    H126922   3.532   5.708  16.383  0.4288  1.9398 -1.5197
  909TIP3    H226923   3.583   5.605  16.284  2.6524  1.7225 -0.2215
  910TIP3   OH226924   3.234   6.202  17.098 -0.1889  0.6900  0.3514
  910TIP3    H126925   3.219   6.219  17.005 -2.1983 -2.6565 -0.1204
  910TIP3    H226926   3.314   6.150  17.100  1.1141  2.6140  0.8295
  911TIP3   OH226927   2.143   0.713  28.347 -0.1810  0.5342  0.0116
  911TIP3    H126928   2.154   0.797  28.303  0.1806  0.8768  0.7432
  911TIP3    H226929   2.056   0.719  28.387 -0.4598  0.2686 -0.5383
  912TIP3   OH226930   6.701   4.512  16.466 -0.2282 -0.0050  0.3613
  912TIP3    H126931   6.772   4.558  16.510 -1.2577  1.0445  0.9369
  912TIP3    H226932   6.643   4.483  16.536  0.6337 -2.6858  0.0807
  913TIP3   OH226933   4.154   0.666  17.197  0.1052  0.2868  0.1419
  913TIP3    H126934   4.149   0.607  17.273  1.4411  2.1022  1.7220
  913TIP3    H226935   4.065   0.667  17.162 -1.1783  1.0963  3.1016
  914TIP3   OH226936   5.425   0.336  15.894  0.3484  0.6677  0.2468
  914TIP3    H126937   5.368   0.288  15.954  0.8018  0.8927  0.8714
  914TIP3    H226938   5.383   0.327  15.809  1.8519 -3.4072 -0.2956
  915TIP3   OH226939   5.810   3.057  16.262 -0.4462  0.0876 -0.0876
  915TIP3    H126940   5.716   3.072  16.259 -0.3046  1.0053 -0.2891
  915TIP3    H226941   5.819   2.963  16.273 -1.3974  0.0559  0.5537
  916TIP3   OH226942   0.711   5.999  16.941  0.4346 -0.2655 -0.0746
  916TIP3    H126943   0.741   6.060  17.008  0.7453  0.9641 -1.2943
  916TIP3    H226944   0.643   5.948  16.984  1.0482  0.0613  1.3545
  917TIP3   OH226945   1.144   3.666  15.311  0.1990  0.0862 -0.1900
  917TIP3    H126946   1.141   3.747  15.361 -2.2495  0.6419 -1.1030
  917TIP3    H226947   1.218   3.677  15.252  0.8324  0.9867  0.7461
  918TIP3   OH226948   4.338   0.085  14.967  0.2477  0.6754 -0.0287
  918TIP3    H126949   4.337   0.014  14.903 -1.1486  1.0966 -0.5056
  918TIP3    H226950   4.322   0.164  14.915  0.2060  1.1558  0.7020
  919TIP3   OH226951   1.524   4.115  13.848 -0.5137 -0.1728 -0.5776
  919TIP3    H126952   1.556   4.034  13.808  1.6360  0.0860  0.4409
  919TIP3    H226953   1.515   4.176  13.775 -0.0629 -0.7230 -1.1069
  920TIP3   OH226954   0.171   2.095  15.949  0.0320  0.2335  0.5855
  920TIP3    H126955   0.220   2.153  15.890  0.5250 -1.4439 -0.7579
  920TIP3    H226956   0.084   2.134  15.954  0.7765  1.9170  0.9968
  921TIP3   OH226957   5.534   5.668  16.842 -0.5708 -0.2511 -0.2999
  921TIP3    H126958   5.452   5.705  16.812 -0.3048  0.0092 -0.7110
  921TIP3    H226959   5.602   5.720  16.798 -0.1914 -0.6451 -0.1892
  922TIP3   OH226960   2.643   1.424  16.893 -0.0147  0.0669 -0.6919
  922TIP3    H126961   2.570   1.420  16.832 -0.3971 -1.2596 -0.1898
  922TIP3    H226962   2.610   1.475  16.967 -0.0280  0.4651 -0.9718
  923TIP3   OH226963   0.909   2.625  13.176  0.1279 -0.3782 -0.0278
  923TIP3    H126964   0.837   2.607  13.237  0.6646  0.7070  0.9925
  923TIP3    H226965   0.962   2.546  13.177 -0.6028 -0.8735 -0.1383
  924TIP3   OH226966   6.047   4.805  16.442  0.6359  0.1864 -0.1787
  924TIP3    H126967   5.958   4.777  16.460  0.3967  0.5855 -0.7107
  924TIP3    H226968   6.075   4.849  16.523  0.3240  0.1372 -0.0434
  925TIP3   OH226969   6.185   2.414  15.615 -1.0020 -0.4840 -0.2234
  925TIP3    H126970   6.098   2.451  15.605  0.5577  3.8255  0.3326
  925TIP3    H226971   6.222   2.414  15.527 -1.1763 -1.4460 -0.3142
  926TIP3   OH226972   1.259   3.619  14.731  0.0832 -0.2577 -0.0120
  926TIP3    H126973   1.316   3.610  14.654  0.3514 -3.2567  0.4099
  926TIP3    H226974   1.319   3.632  14.804  0.1234 -1.3387  0.1616
  927TIP3   OH226975   2.282   5.299  14.780  0.0390  0.5366  0.4421
  927TIP3    H126976   2.272   5.379  14.728  0.9484  0.1372 -0.3752
  927TIP3    H226977   2.369   5.307  14.819  1.3247 -1.2609 -1.8277
  928TIP3   OH226978   2.121   5.215  15.287  0.0737  0.2522  0.3947
  928TIP3    H126979   2.143   5.186  15.199 -3.3457 -1.5847 -0.0507
  928TIP3    H226980   2.047   5.275  15.275 -0.3270  0.1362  1.9994
  929TIP3   OH226981   5.388   0.984  13.983  0.0949 -0.5103 -0.1630
  929TIP3    H126982   5.484   0.988  13.986  0.0686  1.8868 -0.4954
  929TIP3    H226983   5.361   1.034  14.061 -0.9713 -3.9134  1.8359
  930TIP3   OH226984   2.363   1.050  16.617 -0.0049 -0.4388 -0.1211
  930TIP3    H126985   2.294   0.988  16.594  0.3564 -0.3632 -1.5196
  930TIP3    H226986   2.317   1.131  16.638 -0.3578 -0.0374 -2.1810
  931TIP3   OH226987   1.116   5.953  14.332  0.0043 -0.1522  0.1889
  931TIP3    H126988   1.060   5.891  14.285 -0.7936  0.8442 -0.2028
  931TIP3    H226989   1.173   5.990  14.264 -0.5620  0.6549  0.1387
  932TIP3   OH226990   0.388   4.074  16.674  0.7742 -0.4070  0.1385
  932TIP3    H126991   0.346   4.154  16.641  1.2521  0.2651  1.1369
  932TIP3    H226992   0.449   4.050  16.605  0.5607  0.0322 -0.2159
  933TIP3   OH226993   0.631   3.355  15.186 -0.0068  0.0507  0.0536
  933TIP3    H126994   0.695   3.298  15.229  0.0847  0.8484  0.9924
  933TIP3    H226995   0.562   3.295  15.157 -0.9602 -0.3532  2.8929
  934TIP3   OH226996   1.868   3.371  16.010  0.1842 -0.2271  0.9175
  934TIP3    H126997   1.847   3.288  16.053 -1.7212 -0.1155  0.2708
  934TIP3    H226998   1.937   3.347  15.948 -0.0416 -1.2485  1.0313
  935TIP3   OH226999   3.392   3.952  14.497 -0.0127 -0.8065 -0.2302
  935TIP3    H127000   3.349   4.028  14.458  0.7363 -0.4426 -0.3533
  935TIP3    H227001   3.352   3.877  14.453  1.1704 -0.4020 -2.0935
  936TIP3   OH227002   3.263   2.334  16.881 -0.0660  0.0395  0.1858
  936TIP3    H127003   3.271   2.283  16.801  1.0787 -1.4231  1.1685
  936TIP3    H227004   3.306   2.417  16.862 -0.7044  0.1167 -1.0101
  937TIP3   OH227005   5.685   4.586  16.321  0.3039  0.0986 -0.3139
  937TIP3    H127006   5.742   4.628  16.385  2.0625  1.8721 -2.8616
  937TIP3    H227007   5.733   4.590  16.238 -1.7353 -2.2764 -1.7773
  938TIP3   OH227008   6.532   6.379  14.318  0.5971 -0.7654 -0.0446
  938TIP3    H127009   6.587   6.390  14.395 -1.4079  1.3581  1.1986
  938TIP3    H227010   6.503   6.287  14.322 -0.3907 -0.4168  2.4592
  939TIP3   OH227011   6.481   1.202  15.525  0.0144  0.1922 -0.2305
  939TIP3    H127012   6.451   1.229  15.438 -0.8171 -1.9385 -0.6612
  939TIP3    H227013   6.417   1.137  15.553 -0.4746  1.7578  2.5816
  940TIP3   OH227014   0.257   1.420  14.965  0.1319 -0.0719 -0.0205
  940TIP3    H127015   0.177   1.440  15.014 -0.2620 -1.0527 -0.2321
  940TIP3    H227016   0.327   1.424  15.030 -0.5170 -2.5237  0.9662
  941TIP3   OH227017   6.498   3.631  16.273 -0.8208  0.1127 -0.3649
  941TIP3    H127018   6.576   3.625  16.327 -0.8994 -0.9119 -0.3559
  941TIP3    H227019   6.529   3.616  16.184 -1.1584 -1.4739 -0.2382
  942TIP3   OH227020   2.660   0.713  16.918 -0.6494 -0.4691  0.1947
  942TIP3    H127021   2.627   0.801  16.903 -1.1925 -0.7515 -0.3606
  942TIP3    H227022   2.661   0.702  17.013 -0.1177  0.2960  0.2841
  943TIP3   OH227023   3.379   1.162  14.523 -0.4300 -0.2527  0.3826
  943TIP3    H127024   3.446   1.178  14.590 -1.6658 -0.3398  1.6834
  943TIP3    H227025   3.427   1.163  14.441  0.8702  1.7752  1.0815
  944TIP3   OH227026   0.001   5.898  16.532  0.2959  0.8407  0.4648
  944TIP3    H127027  -0.014   5.830  16.467 -0.4202  0.3381  1.1455
  944TIP3    H227028   0.063   5.958  16.490 -0.1698  0.5383 -0.6782
  945TIP3   OH227029   1.112   4.001  16.740 -0.0473  0.4618  0.1587
  945TIP3    H127030   1.185   4.039  16.789 -1.0890  0.2494  1.9521
  945TIP3    H227031   1.037   4.057  16.761 -0.6555  0.0068 -0.7413
  946TIP3   OH227032   1.305   1.035  15.240 -0.3562 -0.1398  0.0761
  946TIP3    H127033   1.226   1.045  15.186 -0.0446  1.3842 -0.1384
  946TIP3    H227034   1.275   0.989  15.318 -0.9066 -2.0074 -1.1702
  947TIP3   OH227035   1.670   5.523  16.756 -0.5834  0.3896 -0.0426
  947TIP3    H127036   1.720   5.509  16.675  0.4887 -0.1486  0.6907
  947TIP3    H227037   1.680   5.442  16.805 -1.6973  0.4986  0.3993
  948TIP3   OH227038   1.636   0.577  16.495 -0.0116  0.1534 -0.1060
  948TIP3    H127039   1.598   0.645  16.551  0.9357  0.6609 -0.0471
  948TIP3    H227040   1.657   0.622  16.413  0.6192 -0.0646 -0.0673
  949TIP3   OH227041   4.593   0.720  16.084 -0.0532 -0.2811  0.3722
  949TIP3    H127042   4.625   0.696  15.997  0.7147  0.1147  0.5357
  949TIP3    H227043   4.670   0.756  16.128 -0.9958  1.8414  0.3753
  950TIP3   OH227044   4.672   2.712  14.633  0.5120  0.4586 -0.1746
  950TIP3    H127045   4.607   2.782  14.640  0.8387  0.5689  2.8347
  950TIP3    H227046   4.756   2.757  14.626  0.5413  0.3083 -0.9849
  951TIP3   OH227047   3.769   4.138  15.831  0.2360  0.3664 -0.0444
  951TIP3    H127048   3.808   4.065  15.879 -1.4868  0.7971  2.1944
  951TIP3    H227049   3.694   4.101  15.786  0.0288  0.5180  0.1686
  952TIP3   OH227050   2.685   5.140  14.647  0.3174 -0.3031 -0.3425
  952TIP3    H127051   2.758   5.156  14.588 -0.2528  0.3554 -0.8848
  952TIP3    H227052   2.644   5.060  14.613  0.1492 -0.0734 -0.6828
  953TIP3   OH227053   6.612   0.680  15.154 -0.5960 -0.0340  0.5738
  953TIP3    H127054   6.536   0.738  15.160  1.2211  2.4457  1.6358
  953TIP3    H227055   6.631   0.675  15.061 -0.2625  1.9485  0.4841
  954TIP3   OH227056   3.866   5.225  14.448 -0.0071 -0.2073 -0.4486
  954TIP3    H127057   3.922   5.244  14.373 -1.0062  1.9017 -0.7432
  954TIP3    H227058   3.883   5.297  14.509  0.3124 -1.5420  1.0904
  955TIP3   OH227059   1.300   6.278  15.626  0.4168  0.7251  0.1360
  955TIP3    H127060   1.387   6.239  15.619  0.0750  0.0594 -0.6026
  955TIP3    H227061   1.255   6.225  15.692  0.0883  0.1169 -0.5669
  956TIP3   OH227062   0.213   0.661  14.965  0.0493  0.6218 -0.5096
  956TIP3    H127063   0.183   0.750  14.984  0.4726  0.6610  0.0036
  956TIP3    H227064   0.244   0.628  15.049 -0.6949 -0.2471 -0.5587
  957TIP3   OH227065   2.554   1.415  16.444  0.3765 -0.1707 -0.0651
  957TIP3    H127066   2.461   1.416  16.424  0.3411 -2.6212 -0.3372
  957TIP3    H227067   2.590   1.345  16.390  2.0447 -0.4717  1.3333
  958TIP3   OH227068   6.290   2.318  16.221 -0.5662  0.0058 -0.1082
  958TIP3    H127069   6.342   2.300  16.299  0.9631  1.1110 -0.8320
  958TIP3    H227070   6.348   2.369  16.164 -1.1482 -1.8416 -2.5473
  959TIP3   OH227071   4.441   1.926  15.900  0.8192  0.5938 -0.6692
  959TIP3    H127072   4.471   1.972  15.978 -0.3334  1.4055 -0.6863
  959TIP3    H227073   4.396   1.993  15.848 -0.9168 -0.5212 -0.6845
  960TIP3   OH227074   1.205   3.441  13.931  0.3391  0.0740 -0.3503
  960TIP3    H127075   1.185   3.471  13.842  1.9631  0.2841 -0.6671
  960TIP3    H227076   1.181   3.348  13.930  2.8971 -0.6784 -1.9188
  961TIP3   OH227077   3.574   3.090  16.708 -0.0405  0.2532 -0.4219
  961TIP3    H127078   3.578   3.138  16.791  1.2789 -0.6829  0.0890
  961TIP3    H227079   3.650   3.121  16.659  0.0058 -0.2592 -0.6783
  962TIP3   OH227080   4.219   3.362  16.033  0.3273 -0.2665 -0.5449
  962TIP3    H127081   4.187   3.411  16.109  0.2173 -0.5964 -0.3764
  962TIP3    H227082   4.186   3.273  16.046 -0.7551 -0.0505 -1.6046
  963TIP3   OH227083   4.105   4.670  14.991  0.2770 -0.0707 -0.5398
  963TIP3    H127084   4.096   4.763  14.970 -1.3438 -0.5402 -2.2328
  963TIP3    H227085   4.189   4.645  14.955 -0.0452  0.3789 -1.6483
  964TIP3   OH227086   3.306   4.105  15.531 -0.2064 -0.0255  0.2470
  964TIP3    H127087   3.317   4.041  15.601  0.0290  0.4095  0.6136
  964TIP3    H227088   3.241   4.065  15.472 -0.5891 -0.2912  0.8348
  965TIP3   OH227089   1.355   2.043  14.245  0.2362 -0.9090 -0.2021
  965TIP3    H127090   1.336   2.120  14.299  1.1810  0.4046 -1.6251
  965TIP3    H227091   1.451   2.041  14.241  0.1918 -1.0687 -1.6468
  966TIP3   OH227092   0.404   4.711  15.521  0.0351 -0.1272 -0.2006
  966TIP3    H127093   0.450   4.632  15.550 -1.1345 -0.7661 -0.0026
  966TIP3    H227094   0.322   4.710  15.571  0.6196  2.0145  0.9225
  967TIP3   OH227095   4.074   6.196  15.031  0.1693  0.2582  0.6392
  967TIP3    H127096   4.020   6.233  15.100  2.0713  1.3541  1.6400
  967TIP3    H227097   4.124   6.127  15.074  1.0121  0.6152  0.2647
  968TIP3   OH227098   1.187   1.012  14.375  0.3002 -0.2885  0.2377
  968TIP3    H127099   1.142   1.027  14.291 -0.9242 -2.0471  0.5246
  968TIP3    H227100   1.171   1.092  14.425  1.4652  1.0068 -1.3303
  969TIP3   OH227101   5.860   0.823  16.458 -0.0919  0.1518 -0.1914
  969TIP3    H127102   5.923   0.868  16.402 -0.0738  0.2557 -0.0884
  969TIP3    H227103   5.791   0.794  16.398  0.4242 -0.6205 -0.4137
  970TIP3   OH227104   3.913   3.141  14.368 -0.4044  0.6839  0.6011
  970TIP3    H127105   3.971   3.122  14.294 -1.8268  1.5941 -0.8103
  970TIP3    H227106   3.906   3.058  14.416  0.5024  0.0690 -0.2971
  971TIP3   OH227107   1.720   1.299  15.214  0.1731 -0.3971  0.1948
  971TIP3    H127108   1.805   1.325  15.180 -0.9708 -0.2289 -2.9572
  971TIP3    H227109   1.675   1.382  15.233 -0.0124 -0.3870 -0.2617
  972TIP3   OH227110   4.339   4.368  14.290 -0.2484 -0.6110 -0.2637
  972TIP3    H127111   4.353   4.414  14.208  0.0101  0.1092  0.1736
  972TIP3    H227112   4.426   4.338  14.316 -0.4444 -1.5334 -0.6467
  973TIP3   OH227113   4.699   0.706  15.806  0.2433  0.7808  0.4483
  973TIP3    H127114   4.664   0.795  15.802  0.1820  0.7262 -2.6465
  973TIP3    H227115   4.765   0.703  15.737  0.3327 -1.5422  0.5427
  974TIP3   OH227116   6.729   0.354  15.256 -0.2185 -0.4069 -0.0198
  974TIP3    H127117   6.748   0.437  15.300  0.2221 -0.6840  0.3172
  974TIP3    H227118   6.797   0.346  15.189  0.9825 -1.4642  1.2730
  975TIP3   OH227119   4.995   3.349  14.460 -0.0493  0.3344  0.6829
  975TIP3    H127120   5.078   3.398  14.460  0.1604  0.0039  1.5783
  975TIP3    H227121   4.932   3.409  14.500 -0.3983  0.8133 -0.5504
  976TIP3   OH227122   4.693   1.589  14.003 -0.4706 -0.6349  0.2278
  976TIP3    H127123   4.609   1.615  13.964 -0.4406  2.3210  1.8627
  976TIP3    H227124   4.670   1.524  14.069 -1.4128 -0.2225  0.3211
  977TIP3   OH227125   1.700   6.697  15.681 -0.5549 -0.1494 -0.0581
  977TIP3    H127126   1.683   6.709  15.775 -1.4950 -0.6143 -0.1622
  977TIP3    H227127   1.650   6.619  15.657 -0.0342 -0.2438 -0.8772
  978TIP3   OH227128   2.707   1.671  14.540 -0.1497 -0.4827 -0.1173
  978TIP3    H127129   2.700   1.758  14.580  0.5554 -0.1921 -0.6037
  978TIP3    H227130   2.701   1.610  14.613  1.1332  0.0358  0.4611
  979TIP3   OH227131   6.497   1.156  14.193 -0.2051 -0.7219 -0.1123
  979TIP3    H127132   6.495   1.086  14.259  2.9970  0.8862  1.9490
  979TIP3    H227133   6.559   1.124  14.127 -1.4057 -1.2048 -1.0543
  980TIP3   OH227134   1.891   4.313  14.363  0.1608 -0.1728  0.1525
  980TIP3    H127135   1.932   4.227  14.351  0.6152  0.0667 -0.0776
  980TIP3    H227136   1.797   4.297  14.359  0.1923 -0.9170  1.8947
  981TIP3   OH227137   3.155   6.328  14.830  0.5422 -0.1544  0.2919
  981TIP3    H127138   3.189   6.403  14.878  0.8679  0.9031 -1.4909
  981TIP3    H227139   3.107   6.277  14.895  0.9423  1.1943  1.7015
  982TIP3   OH227140   4.416   1.291  16.154 -0.1502 -0.3863  0.0052
  982TIP3    H127141   4.328   1.319  16.181 -0.4114  0.5490 -1.6223
  982TIP3    H227142   4.408   1.278  16.059  1.1794 -1.4885  0.0250
  983TIP3   OH227143   5.591   4.746  14.513 -0.7215  0.1747 -0.1037
  983TIP3    H127144   5.654   4.793  14.568 -1.5528 -0.3468  1.3194
  983TIP3    H227145   5.575   4.806  14.440  1.8452  0.0999 -0.8562
  984TIP3   OH227146   6.549   3.859  14.453 -0.1806  0.2622 -0.3260
  984TIP3    H127147   6.601   3.781  14.474 -1.2402  0.1658  2.2172
  984TIP3    H227148   6.603   3.907  14.391  1.9389 -0.9241  0.4935
  985TIP3   OH227149   5.529   3.853  14.696  0.1038 -0.0658 -0.2059
  985TIP3    H127150   5.529   3.949  14.696 -0.0221 -0.0456  1.0353
  985TIP3    H227151   5.550   3.829  14.606  1.2736  1.1245 -0.2782
  986TIP3   OH227152   1.399   0.659  14.997 -0.1721 -0.1610  0.4100
  986TIP3    H127153   1.332   0.597  15.023  0.5899 -1.3038 -0.2403
  986TIP3    H227154   1.435   0.693  15.079 -0.4173 -0.7831  0.7734
  987TIP3   OH227155   0.612   4.742  14.348  0.3109 -0.4878 -0.1393
  987TIP3    H127156   0.619   4.822  14.400 -1.4447 -0.2461 -0.2188
  987TIP3    H227157   0.608   4.772  14.258  1.9416 -0.8289 -0.3535
  988TIP3   OH227158   6.658   3.498  16.592  0.0916 -0.1628  1.1780
  988TIP3    H127159   6.671   3.591  16.576  0.3663 -0.3908 -0.0172
  988TIP3    H227160   6.728   3.474  16.653 -0.0263  0.4248  1.5475
  989TIP3   OH227161   5.143   2.604  15.136 -0.3280 -0.1099  0.3491
  989TIP3    H127162   5.119   2.631  15.048 -1.5155 -0.7052  0.4664
  989TIP3    H227163   5.105   2.670  15.193 -0.6962 -0.4297  0.4788
  990TIP3   OH227164   1.786   2.443  15.254 -0.1802  0.5831 -0.1754
  990TIP3    H127165   1.731   2.454  15.331 -1.3457 -3.3648 -0.2338
  990TIP3    H227166   1.874   2.430  15.289 -0.1118  1.9781  0.2247
  991TIP3   OH227167   0.440   0.125  16.064 -0.4457  0.4526 -0.6206
  991TIP3    H127168   0.352   0.090  16.048 -0.4986  1.2119 -2.2547
  991TIP3    H227169   0.485   0.056  16.113 -1.8706 -0.0430  0.0352
  992TIP3   OH227170   5.171   4.959  15.478  0.2673  0.0090 -0.4628
  992TIP3    H127171   5.130   4.874  15.464  1.9757 -0.7314 -1.2499
  992TIP3    H227172   5.228   4.947  15.554  1.4706  0.0470 -1.3249
  993TIP3   OH227173   1.554   0.790  15.178 -0.6032  0.0824 -0.3410
  993TIP3    H127174   1.561   0.792  15.273  0.7171  2.4203 -0.4268
  993TIP3    H227175   1.644   0.794  15.146 -0.9521 -1.5443 -1.7597
  994TIP3   OH227176   2.009   5.245  16.045  0.0305 -0.2543  0.3497
  994TIP3    H127177   2.061   5.211  15.972 -0.0922 -1.1309  0.6531
  994TIP3    H227178   1.950   5.173  16.067 -0.8931  0.5090  0.4097
  995TIP3   OH227179   4.276   1.339  13.919 -0.5190 -0.0771  0.0446
  995TIP3    H127180   4.336   1.277  13.960  0.7926  2.1471  1.6965
  995TIP3    H227181   4.198   1.337  13.976  0.4198  1.3716  1.4530
  996TIP3   OH227182   4.524   5.138  13.830 -0.2870 -0.4073  0.1758
  996TIP3    H127183   4.459   5.209  13.828 -0.6530 -0.7221  0.6453
  996TIP3    H227184   4.520   5.104  13.919  0.9865 -0.0229  0.3844
  997TIP3   OH227185   0.418   3.089  14.436  0.0372  0.2907 -0.2164
  997TIP3    H127186   0.499   3.121  14.477 -0.2016  1.8017 -0.8572
  997TIP3    H227187   0.348   3.137  14.480 -0.5684 -1.3225  0.6254
  998TIP3   OH227188   0.815   0.892  16.489  0.5750 -0.1626  0.2140
  998TIP3    H127189   0.737   0.936  16.453  0.7600  0.9556  1.1263
  998TIP3    H227190   0.780   0.819  16.539  0.3068 -1.8392 -2.2224
  999TIP3   OH227191   5.911   0.931  15.131 -0.3131  0.1116  0.3835
  999TIP3    H127192   5.858   0.982  15.192 -1.1004 -1.0324  0.6810
  999TIP3    H227193   5.878   0.842  15.138  0.9309 -0.4334 -0.2409
 1000TIP3   OH227194   4.500   4.033  15.268  0.0266  0.6633 -0.3309
 1000TIP3    H127195   4.580   3.993  15.233 -0.1333  0.0573 -0.0297
 1000TIP3    H227196   4.531   4.108  15.318  0.5067 -0.0841  0.5434
 1001TIP3   OH227197   2.589   6.701  16.605 -0.3163  0.0682 -0.0072
 1001TIP3    H127198   2.622   6.712  16.516 -0.8102 -0.3546 -0.2449
 1001TIP3    H227199   2.495   6.690  16.595 -0.3244 -0.4013  0.5302
 1002TIP3   OH227200   6.625   1.476  16.494  0.0548 -0.0146 -0.0900
 1002TIP3    H127201   6.689   1.519  16.438 -1.2759  0.5605 -1.2163
 1002TIP3    H227202   6.677   1.413  16.545  1.6571  1.1575 -0.1870
 1003TIP3   OH227203   0.176   4.689  14.662 -0.1488  0.0491  0.2957
 1003TIP3    H127204   0.251   4.740  14.695 -0.3844  1.3863 -1.1013
 1003TIP3    H227205   0.214   4.605  14.636  1.2094  1.2080 -1.7370
 1004TIP3   OH227206   5.512   2.300  16.159  0.3612 -0.1604  0.0133
 1004TIP3    H127207   5.571   2.232  16.125  0.5746  0.7357 -1.4962
 1004TIP3    H227208   5.450   2.253  16.214  1.1243 -1.4383 -0.1796
 1005TIP3   OH227209   3.768   1.686  17.225 -0.1574 -0.0462  0.0534
 1005TIP3    H127210   3.689   1.738  17.217 -0.2877 -0.0079  1.3120
 1005TIP3    H227211   3.744   1.600  17.189 -1.1583 -0.3882  1.4298
 1006TIP3   OH227212   2.878   0.655  14.626 -0.3156  0.3997  0.1168
 1006TIP3    H127213   2.938   0.661  14.701  0.6201  0.0640 -0.5744
 1006TIP3    H227214   2.913   0.719  14.563 -1.8783  1.6727  0.4666
 1007TIP3   OH227215   2.676   6.541  14.980  0.0887 -0.3431 -0.1423
 1007TIP3    H127216   2.603   6.602  14.993 -0.9329 -1.7553  1.1527
 1007TIP3    H227217   2.664   6.475  15.048  1.3549 -1.7862 -1.2525
 1008TIP3   OH227218   0.108   6.584  15.675  0.3593  0.2214 -0.4967
 1008TIP3    H127219   0.086   6.524  15.747  0.7983 -1.4271 -1.6920
 1008TIP3    H227220   0.196   6.615  15.696  0.7397 -0.7493 -0.6423
 1009TIP3   OH227221   5.362   3.753  14.088 -0.3547  0.1227 -0.0689
 1009TIP3    H127222   5.341   3.696  14.014  0.5495  0.5642 -0.7002
 1009TIP3    H227223   5.345   3.700  14.165  0.9062 -1.1847 -0.6377
 1010TIP3   OH227224   4.030   0.844  15.387 -0.0943  0.2531 -0.3627
 1010TIP3    H127225   4.061   0.784  15.455 -1.8363 -1.4575 -0.9634
 1010TIP3    H227226   4.105   0.858  15.330 -0.0637 -3.0935 -1.3638
 1011TIP3   OH227227   4.508   5.955  16.881  0.0742  0.0735 -0.5722
 1011TIP3    H127228   4.584   5.917  16.925 -1.0012 -0.7358  0.6843
 1011TIP3    H227229   4.531   5.954  16.788  1.5929 -0.1318 -0.2185
 1012TIP3   OH227230   0.162   6.145  16.809  0.0263 -0.1026  0.5949
 1012TIP3    H127231   0.076   6.162  16.847 -0.1926 -0.2278  0.1702
 1012TIP3    H227232   0.192   6.065  16.851 -0.2066 -0.2350  0.5094
 1013TIP3   OH227233   3.819   5.301  16.090 -0.5545  0.0656  0.1450
 1013TIP3    H127234   3.856   5.307  16.002  1.3612 -2.9815  0.5841
 1013TIP3    H227235   3.735   5.256  16.078  0.4716 -1.9375 -0.1067
 1014TIP3   OH227236   3.970   1.520  16.065 -0.4965  0.1130  0.3823
 1014TIP3    H127237   4.034   1.584  16.096 -0.9816  0.7753  0.0339
 1014TIP3    H227238   4.023   1.451  16.024  0.0203  0.3807  0.5940
 1015TIP3   OH227239   6.036   0.315  14.626  0.0544  0.2223 -0.1439
 1015TIP3    H127240   6.111   0.353  14.672  1.2264 -3.2232  1.0963
 1015TIP3    H227241   5.980   0.281  14.695 -1.9618  1.3890 -1.1225
 1016TIP3   OH227242   6.048   6.328  14.679  0.1030  0.5474 -0.2211
 1016TIP3    H127243   6.018   6.356  14.592 -1.3807  1.3581  0.5157
 1016TIP3    H227244   6.141   6.309  14.667  0.0060  0.9501 -1.9098
 1017TIP3   OH227245   4.996   5.856  14.992  1.0786 -0.4419 -0.1464
 1017TIP3    H127246   4.951   5.886  14.913  2.1801 -0.9742 -1.0061
 1017TIP3    H227247   4.971   5.920  15.059 -1.9459 -1.3837 -0.2136
 1018TIP3   OH227248   0.435   2.950  14.181 -0.1783  0.2978  0.2390
 1018TIP3    H127249   0.397   3.015  14.122 -0.2764  0.9648  1.0211
 1018TIP3    H227250   0.413   2.981  14.269  1.2274  0.1148  0.6870
 1019TIP3   OH227251   4.004   1.722  13.701  0.0131 -0.1524  0.1269
 1019TIP3    H127252   4.072   1.766  13.651 -0.4590  1.3637  0.7734
 1019TIP3    H227253   3.927   1.778  13.692 -0.6095 -0.8309  1.0003
 1020TIP3   OH227254   5.794   5.290  15.828  0.7080 -0.1480  0.3314
 1020TIP3    H127255   5.751   5.313  15.910 -2.0816  0.7545 -1.2391
 1020TIP3    H227256   5.849   5.366  15.807 -0.7025  0.8442  0.0768
 1021TIP3   OH227257   2.857   6.146  15.736 -0.5708 -0.1785  0.3256
 1021TIP3    H127258   2.834   6.201  15.660 -0.0114 -0.6471 -0.1927
 1021TIP3    H227259   2.825   6.195  15.811  0.9859  1.5016 -0.0152
 1022TIP3   OH227260   6.545   5.861  13.598  0.1151  0.1475 -0.5925
 1022TIP3    H127261   6.561   5.766  13.595 -1.0367 -0.0589 -2.2841
 1022TIP3    H227262   6.626   5.898  13.632  0.3212 -1.4956  0.8574
 1023TIP3   OH227263   2.697   3.189  15.328  0.0446  0.2734 -0.3323
 1023TIP3    H127264   2.606   3.170  15.306  0.0680  0.6224 -0.7486
 1023TIP3    H227265   2.733   3.228  15.248  0.3051  0.9928  0.1242
 1024TIP3   OH227266   4.622   3.357  14.692  0.5205  0.0882  0.0462
 1024TIP3    H127267   4.646   3.296  14.622 -3.5417 -0.4407 -1.1341
 1024TIP3    H227268   4.628   3.443  14.652 -0.6397 -0.1258 -0.6239
 1025TIP3   OH227269   3.590   5.717  14.838 -0.5874  0.2991  0.0801
 1025TIP3    H127270   3.605   5.811  14.832 -1.8077  0.5158  0.0988
 1025TIP3    H227271   3.607   5.696  14.930  3.0439 -0.1766 -0.5748
 1026TIP3   OH227272   1.718   0.429  15.797  0.4755  0.2973  0.4119
 1026TIP3    H127273   1.626   0.402  15.795 -0.0157  1.6068  2.4894
 1026TIP3    H227274   1.739   0.436  15.890  1.7315  3.0399  0.0124
 1027TIP3   OH227275   3.857   2.355  15.847 -0.4703 -0.5056  0.1073
 1027TIP3    H127276   3.920   2.426  15.837 -0.4542 -0.3978  0.8921
 1027TIP3    H227277   3.905   2.276  15.824  0.0260 -0.4505  0.9239
 1028TIP3   OH227278   3.191   6.739  14.061  0.0924 -0.7694 -0.4693
 1028TIP3    H127279   3.240   6.791  13.997 -1.1922  1.2758  0.1114
 1028TIP3    H227280   3.217   6.648  14.043  4.5617  0.1462  0.2566
 1029TIP3   OH227281   6.736   0.198  13.778  0.0065 -0.1741 -0.8924
 1029TIP3    H127282   6.725   0.109  13.813 -2.3988  0.2916 -0.2352
 1029TIP3    H227283   6.649   0.221  13.744  0.8990  1.4650 -2.2448
 1030TIP3   OH227284   2.811   0.634  15.765 -0.0585  0.1997  0.1490
 1030TIP3    H127285   2.722   0.611  15.736 -1.2338  3.8651  0.3205
 1030TIP3    H227286   2.854   0.666  15.686  0.7703 -0.5276  0.2917
 1031TIP3   OH227287   1.331   2.859  15.504 -0.1074 -0.9450 -0.0455
 1031TIP3    H127288   1.422   2.856  15.475  0.2277  0.1887  0.7920
 1031TIP3    H227289   1.308   2.952  15.500 -1.0708 -1.1598  0.2292
 1032TIP3   OH227290   5.970   1.164  16.418 -0.0234  0.4545 -0.0556
 1032TIP3    H127291   5.925   1.241  16.382 -0.7933  0.1289  0.1974
 1032TIP3    H227292   5.946   1.164  16.511 -2.2615 -1.5785 -0.5391
 1033TIP3   OH227293   4.986   5.530  15.214 -0.1229 -0.3316 -0.3883
 1033TIP3    H127294   4.962   5.438  15.224  1.3024 -0.4918  2.6042
 1033TIP3    H227295   5.071   5.528  15.171 -0.4961 -0.3147 -1.1556
 1034TIP3   OH227296   5.571   4.486  15.906 -0.0522  0.3055  0.1356
 1034TIP3    H127297   5.500   4.549  15.900  0.9512  1.4461 -0.2023
 1034TIP3    H227298   5.588   4.460  15.816 -0.1866 -0.1561  0.2378
 1035TIP3   OH227299   3.003   6.656  16.813  0.1588 -0.2054  0.6143
 1035TIP3    H127300   3.026   6.607  16.892 -0.5593 -0.7962  0.4687
 1035TIP3    H227301   2.952   6.594  16.761 -1.3134  0.9017  0.7055
 1036TIP3   OH227302   5.108   3.849  16.015 -0.3872  0.3287 -0.1486
 1036TIP3    H127303   5.119   3.776  16.076 -0.6855 -1.6432 -2.3132
 1036TIP3    H227304   5.196   3.880  15.998 -0.1294 -0.3638 -0.1174
 1037TIP3   OH227305   5.073   4.109  15.049  0.0549 -0.3632  0.1424
 1037TIP3    H127306   5.006   4.056  15.092  2.2579 -1.1984  2.8331
 1037TIP3    H227307   5.090   4.064  14.966 -2.2858 -0.3727 -0.4098
 1038TIP3   OH227308   4.051   0.675  14.889 -0.1695  0.1347 -0.6325
 1038TIP3    H127309   4.145   0.689  14.894  0.1929 -1.9872 -0.5812
 1038TIP3    H227310   4.036   0.636  14.802 -0.7899 -0.7961 -0.1300
 1039TIP3   OH227311   6.539   0.115  17.147  0.1410  0.1174 -0.2702
 1039TIP3    H127312   6.473   0.180  17.125  0.6893  0.6489 -0.3781
 1039TIP3    H227313   6.621   0.165  17.151  0.4843 -0.4711  0.1713
 1040TIP3   OH227314   2.284   4.301  15.303 -0.0632  0.2952  0.0438
 1040TIP3    H127315   2.271   4.395  15.310 -0.5917  0.2257 -0.0215
 1040TIP3    H227316   2.233   4.264  15.376  1.2713  0.1531  0.9468
 1041TIP3   OH227317   3.660   4.895  16.732 -0.6661  0.2477 -0.3466
 1041TIP3    H127318   3.623   4.808  16.751 -0.3654  0.1344 -0.2768
 1041TIP3    H227319   3.629   4.950  16.804  1.8783 -0.5707  1.5192
 1042TIP3   OH227320   0.149   3.024  14.777  0.5538 -0.1015 -0.1285
 1042TIP3    H127321   0.054   3.041  14.775  0.6030  0.1581 -0.1953
 1042TIP3    H227322   0.155   2.932  14.802  0.1372 -1.2457 -3.7182
 1043TIP3   OH227323   3.581   0.425  16.033 -0.4577 -0.3611  0.6735
 1043TIP3    H127324   3.525   0.500  16.012 -0.0560 -0.4260 -0.7172
 1043TIP3    H227325   3.595   0.381  15.949  0.9796 -0.8340  1.1296
 1044TIP3   OH227326   0.905   5.843  16.826 -0.4332 -0.0754 -0.3283
 1044TIP3    H127327   0.826   5.886  16.860 -0.1935 -0.9437  1.4476
 1044TIP3    H227328   0.969   5.855  16.896  0.4294 -1.0476 -0.9385
 1045TIP3   OH227329   4.392   5.763  16.307  0.0873 -0.8560 -0.2681
 1045TIP3    H127330   4.344   5.756  16.224  0.9780 -0.5308 -0.8216
 1045TIP3    H227331   4.342   5.708  16.368 -0.0543 -1.8630 -1.2539
 1046TIP3   OH227332   6.382   1.019  16.834  0.0676 -0.8479 -0.9661
 1046TIP3    H127333   6.298   1.055  16.805 -0.1910  0.1478  0.8662
 1046TIP3    H227334   6.359   0.940  16.882  0.4047 -1.8515 -2.3803
 1047TIP3   OH227335   3.724   2.758  14.217 -0.5229  0.1557  0.5123
 1047TIP3    H127336   3.716   2.691  14.148 -2.6575  3.9313 -3.3894
 1047TIP3    H227337   3.806   2.803  14.197 -1.8206  2.1592 -0.6792
 1048TIP3   OH227338   6.000   5.357  15.198  0.0109  0.4122  0.2879
 1048TIP3    H127339   5.931   5.381  15.137 -2.0168 -0.9663  1.9048
 1048TIP3    H227340   6.049   5.438  15.212 -0.0831  0.9991 -2.2877
 1049TIP3   OH227341   1.447   6.241  15.285 -0.0459 -0.1819  0.1066
 1049TIP3    H127342   1.540   6.231  15.262  0.0774  0.6183  0.2414
 1049TIP3    H227343   1.407   6.279  15.206 -0.2881 -0.6210  0.0113
 1050TIP3   OH227344   1.110   6.191  15.834 -0.5749 -0.4754  0.3211
 1050TIP3    H127345   1.168   6.154  15.901  2.1714 -1.0020 -2.1668
 1050TIP3    H227346   1.054   6.118  15.807 -0.3369 -0.7805  0.6482
 1051TIP3   OH227347   6.420   5.959  15.372  0.1716  0.2249 -0.3623
 1051TIP3    H127348   6.383   5.915  15.296 -2.5884  1.1056  0.3491
 1051TIP3    H227349   6.428   5.889  15.438  0.0645 -0.0557 -0.6443
 1052TIP3   OH227350   3.437   3.633  16.780  0.0692  0.1093 -0.0567
 1052TIP3    H127351   3.427   3.554  16.834 -0.0457 -0.1056 -0.3821
 1052TIP3    H227352   3.363   3.628  16.719  0.0853  0.4513 -0.1019
 1053TIP3   OH227353   2.493   6.514  17.138  0.0623  0.6473  0.2587
 1053TIP3    H127354   2.487   6.582  17.205 -0.2877  1.8871 -0.9733
 1053TIP3    H227355   2.552   6.551  17.072 -0.0698 -0.2834 -0.3955
 1054TIP3   OH227356   6.680   0.543  14.666 -0.1166  0.1552 -0.1716
 1054TIP3    H127357   6.741   0.471  14.683 -1.5466 -1.1930 -0.5216
 1054TIP3    H227358   6.655   0.532  14.575 -0.1314  1.3161 -0.3262
 1055TIP3   OH227359   3.284   1.708  16.139 -0.0703 -0.0275  0.2992
 1055TIP3    H127360   3.233   1.775  16.185 -1.6834 -1.6889  1.0259
 1055TIP3    H227361   3.351   1.681  16.202 -0.6988 -0.5221  0.7618
 1056TIP3   OH227362   0.797   3.400  15.786  0.0334 -0.4661 -0.0835
 1056TIP3    H127363   0.706   3.377  15.768 -0.1475  0.2181 -0.0881
 1056TIP3    H227364   0.795   3.443  15.871  0.3431 -0.4133 -0.0996
 1057TIP3   OH227365   3.495   3.370  15.122 -0.1404  0.3202  0.3043
 1057TIP3    H127366   3.460   3.314  15.191  1.5199  1.7715  2.4511
 1057TIP3    H227367   3.454   3.455  15.135  0.3117  0.6581 -0.3818
 1058TIP3   OH227368   2.135   2.812  15.741 -0.3418 -0.0059  0.0732
 1058TIP3    H127369   2.164   2.780  15.656 -2.2441 -0.3171 -0.4997
 1058TIP3    H227370   2.201   2.877  15.766  0.4424 -0.1688 -1.4531
 1059TIP3   OH227371   4.807   5.332  15.873 -0.0206  0.1407  0.4311
 1059TIP3    H127372   4.785   5.410  15.822 -0.2288 -0.1115  0.1288
 1059TIP3    H227373   4.793   5.358  15.964 -0.1298  0.4434  0.3305
 1060TIP3   OH227374   2.463   6.092  14.225  0.0111  0.5980 -0.3958
 1060TIP3    H127375   2.382   6.130  14.193  0.3130  0.2744 -1.5792
 1060TIP3    H227376   2.512   6.068  14.146  0.6587 -0.4790  0.3008
 1061TIP3   OH227377   0.245   3.760  13.382  0.2183  0.3691  0.3037
 1061TIP3    H127378   0.244   3.825  13.312  1.0732  1.3123  1.1291
 1061TIP3    H227379   0.202   3.803  13.456 -0.2848 -0.4535  0.5102
 1062TIP3   OH227380   3.695   3.389  17.125 -0.2949 -0.1613  0.5071
 1062TIP3    H127381   3.669   3.481  17.134  0.9258  0.2496  0.0741
 1062TIP3    H227382   3.791   3.392  17.125 -0.2378 -1.3292 -0.4913
 1063TIP3   OH227383   3.440   1.527  16.574  0.3748  0.4161 -0.2466
 1063TIP3    H127384   3.405   1.500  16.659  1.4539  1.1742  0.4668
 1063TIP3    H227385   3.401   1.466  16.511 -2.8589  1.6699  0.3384
 1064TIP3   OH227386   3.399   2.747  14.947  0.0457 -0.5407  0.1685
 1064TIP3    H127387   3.311   2.776  14.924  0.1023  0.2600  0.8830
 1064TIP3    H227388   3.418   2.675  14.887 -0.3221  0.5807 -1.3655
 1065TIP3   OH227389   5.119   4.584  14.931  0.0309 -0.0164  0.2188
 1065TIP3    H127390   5.203   4.616  14.899  0.0778 -0.0182  0.3408
 1065TIP3    H227391   5.103   4.504  14.881 -0.4976  0.6522 -0.7046
 1066TIP3   OH227392   2.853   5.032  15.612  0.4784 -0.0338  0.1046
 1066TIP3    H127393   2.821   4.978  15.539  0.2007 -0.8149  0.7931
 1066TIP3    H227394   2.790   5.104  15.619 -1.1399 -1.5029  1.3900
 1067TIP3   OH227395   2.057   0.532  16.270 -0.4218 -0.6038 -0.0135
 1067TIP3    H127396   2.147   0.504  16.283 -0.6791 -1.8625 -0.7986
 1067TIP3    H227397   2.062   0.601  16.204 -0.1121 -1.3049 -0.7368
 1068TIP3   OH227398   1.186   2.935  13.963  0.2722  0.5961  0.2770
 1068TIP3    H127399   1.118   2.868  13.965  0.8463 -0.0236 -0.4160
 1068TIP3    H227400   1.217   2.935  13.873  0.2349  1.8553  0.2530
 1069TIP3   OH227401   1.077   0.250  14.688 -0.2881  0.3345 -0.1832
 1069TIP3    H127402   0.993   0.253  14.641  0.0182 -0.8082 -0.8652
 1069TIP3    H227403   1.067   0.177  14.749  0.9798 -1.4423 -1.9483
 1070TIP3   OH227404   1.656   3.451  15.169 -0.0096 -0.0162  0.4143
 1070TIP3    H127405   1.723   3.432  15.234  0.0376 -1.7662 -0.0865
 1070TIP3    H227406   1.700   3.443  15.084 -0.7028 -0.6629  0.0950
 1071TIP3   OH227407   4.959   5.729  15.887 -0.5134  0.3014  0.0094
 1071TIP3    H127408   4.889   5.755  15.947 -0.4892  0.7365 -0.1513
 1071TIP3    H227409   4.914   5.681  15.817 -0.7658  1.3335 -0.5507
 1072TIP3   OH227410   2.881   3.178  16.202  0.1196 -0.0961 -0.0885
 1072TIP3    H127411   2.794   3.142  16.223 -0.3885  0.1215 -1.6962
 1072TIP3    H227412   2.868   3.273  16.204  0.2539 -0.0667 -0.6095
 1073TIP3   OH227413   6.431   6.044  15.742 -0.1810 -0.0238 -0.0741
 1073TIP3    H127414   6.441   5.990  15.820  1.6572 -0.2660 -0.4354
 1073TIP3    H227415   6.388   5.987  15.678 -0.0513 -0.4180  0.1874
 1074TIP3   OH227416   5.845   1.910  16.564 -0.1918  0.0575  0.1517
 1074TIP3    H127417   5.825   2.004  16.562 -1.7058 -0.2489 -0.4097
 1074TIP3    H227418   5.829   1.881  16.474  0.0682 -0.7853  0.3718
 1075TIP3   OH227419   4.948   1.332  17.157 -0.5932 -0.1265 -0.0778
 1075TIP3    H127420   5.030   1.300  17.121 -1.6319 -1.8268 -1.0291
 1075TIP3    H227421   4.950   1.427  17.140  0.4904 -0.3671 -1.4305
 1076TIP3   OH227422   3.376   1.713  17.212 -0.1519  0.0930 -0.2781
 1076TIP3    H127423   3.422   1.727  17.295  0.3815 -1.1503 -0.3363
 1076TIP3    H227424   3.395   1.791  17.160  3.1059 -0.9231 -0.8154
 1077TIP3   OH227425   6.605   6.202  15.501  0.4462  1.0079  0.4290
 1077TIP3    H127426   6.513   6.225  15.508  0.3298  1.0838 -1.0065
 1077TIP3    H227427   6.607   6.106  15.509  0.1610  0.9457 -0.2256
 1078TIP3   OH227428   5.372   4.870  13.518 -0.5348 -0.3923 -0.3076
 1078TIP3    H127429   5.334   4.952  13.485 -0.3831 -0.3368 -0.3432
 1078TIP3    H227430   5.307   4.838  13.581 -1.4782 -1.1927 -1.6233
 1079TIP3   OH227431   3.888   4.226  15.027  0.1094  0.1906 -0.1566
 1079TIP3    H127432   3.827   4.285  15.070 -1.7733 -2.1637  0.6415
 1079TIP3    H227433   3.834   4.172  14.969  1.5625 -1.2733 -0.2566
 1080TIP3   OH227434   2.209   1.707  16.224 -0.2393  0.6425  0.4252
 1080TIP3    H127435   2.210   1.618  16.261 -1.2462  0.6545  0.5035
 1080TIP3    H227436   2.236   1.695  16.132 -1.4431  0.0966  0.1276
 1081TIP3   OH227437   5.797   0.478  14.546 -0.3921  0.1122  0.5144
 1081TIP3    H127438   5.872   0.464  14.604  0.1805  3.5557  0.8415
 1081TIP3    H227439   5.816   0.561  14.503 -2.7641 -0.3019 -1.5215
 1082TIP3   OH227440   0.051   0.310  16.708 -0.0185 -0.1318 -0.4157
 1082TIP3    H127441   0.138   0.342  16.732  0.1071 -0.5950 -0.2388
 1082TIP3    H227442   0.001   0.389  16.689 -0.8013  0.4831  3.4242
 1083TIP3   OH227443   1.959   2.885  14.844  0.4309  0.0099 -0.2814
 1083TIP3    H127444   2.009   2.918  14.770 -0.3718  1.4464 -0.2214
 1083TIP3    H227445   1.959   2.790  14.833  0.3648  0.1903 -2.0793
 1084TIP3   OH227446   3.217   3.379  16.413 -0.4184  0.0834 -0.0562
 1084TIP3    H127447   3.244   3.328  16.336  0.1843 -0.5556  0.5653
 1084TIP3    H227448   3.295   3.380  16.469 -1.0743 -0.0836  0.8788
 1085TIP3   OH227449   2.228   2.125  16.076 -0.4715  0.2799 -0.0982
 1085TIP3    H127450   2.189   2.054  16.026  4.5306 -1.6185 -1.8938
 1085TIP3    H227451   2.234   2.198  16.015  0.8692 -0.2780 -0.6743
 1086TIP3   OH227452   5.231   1.031  15.721  0.3808 -0.3623 -0.0223
 1086TIP3    H127453   5.253   1.067  15.635  0.7162  0.3249  0.3390
 1086TIP3    H227454   5.136   1.035  15.725  0.3489 -0.6771 -0.4810
 1087TIP3   OH227455   4.068   2.569  15.382 -0.6930 -0.1524 -0.1192
 1087TIP3    H127456   3.985   2.603  15.416  0.3053  0.6941  1.6257
 1087TIP3    H227457   4.101   2.639  15.325 -1.1271 -0.4637 -0.7650
 1088TIP3   OH227458   5.872   5.989  14.890  0.7039  0.4626 -0.4665
 1088TIP3    H127459   5.908   6.011  14.975  0.9302  0.8479 -0.6602
 1088TIP3    H227460   5.890   5.895  14.880  1.2611  0.5563 -0.3727
 1089TIP3   OH227461   1.619   4.204  14.304  0.1799  0.4876  0.0553
 1089TIP3    H127462   1.543   4.156  14.270  0.3462  0.5501 -0.4034
 1089TIP3    H227463   1.656   4.248  14.227  0.3130  0.9612  0.3873
 1090TIP3   OH227464   3.746   4.032  16.928 -0.5541  0.0161 -0.2339
 1090TIP3    H127465   3.804   4.084  16.872  1.6923 -0.4877  1.4458
 1090TIP3    H227466   3.689   4.097  16.971  1.1490  1.0082  0.6582
 1091TIP3   OH227467   3.483   6.715  15.374 -0.4010  0.2172 -0.1451
 1091TIP3    H127468   3.484   6.633  15.326  0.2387 -0.3609  0.8312
 1091TIP3    H227469   3.569   6.721  15.415 -1.3705 -0.0232  2.0813
 1092TIP3   OH227470   3.450   6.275  14.383 -1.0924  0.4885  0.0474
 1092TIP3    H127471   3.535   6.247  14.346 -0.0799  2.2714  0.8974
 1092TIP3    H227472   3.400   6.194  14.391  1.6214 -1.1790  2.3065
 1093TIP3   OH227473   2.162   4.046  15.757  0.1653  0.4666 -0.4424
 1093TIP3    H127474   2.072   4.060  15.785  0.5673  0.3685  0.9795
 1093TIP3    H227475   2.215   4.104  15.812  0.8138  2.4256 -2.9568
 1094TIP3   OH227476   3.529   5.499  16.930  0.0495 -0.3084 -0.0732
 1094TIP3    H127477   3.624   5.503  16.927  0.0517  1.1116  1.0289
 1094TIP3    H227478   3.502   5.500  16.838  1.0713 -0.1365 -0.3761
 1095TIP3   OH227479   1.969   2.365  16.013  0.2692 -0.3435  0.3552
 1095TIP3    H127480   1.891   2.417  15.991  0.4275  0.5793  1.8113
 1095TIP3    H227481   1.938   2.275  16.014 -0.5369 -0.0813 -0.1258
 1096TIP3   OH227482   6.121   5.345  14.264 -0.8832 -0.1677 -0.5059
 1096TIP3    H127483   6.104   5.439  14.255 -0.0297 -0.0126 -0.6067
 1096TIP3    H227484   6.065   5.317  14.336  0.7628  0.9564  1.2974
 1097TIP3   OH227485   3.051   0.520  15.817 -0.5906  0.2446  0.0861
 1097TIP3    H127486   2.959   0.539  15.796 -0.4581 -0.1606 -0.9178
 1097TIP3    H227487   3.064   0.559  15.904 -1.5373  0.8422 -0.0215
 1098TIP3   OH227488   3.560   6.459  15.331  0.1089 -0.0795 -0.0433
 1098TIP3    H127489   3.606   6.375  15.335  1.8206  0.8251  0.3202
 1098TIP3    H227490   3.588   6.506  15.410  2.2429  2.2837 -2.0219
 1099TIP3   OH227491   4.983   1.468  15.209 -0.4840 -0.7056  1.3606
 1099TIP3    H127492   5.069   1.474  15.249  0.2228 -0.5803 -0.1137
 1099TIP3    H227493   4.930   1.418  15.272  0.7123 -0.9635  2.1889
 1100TIP3   OH227494   4.599   5.817  14.224 -0.2893  0.0562  0.2879
 1100TIP3    H127495   4.653   5.781  14.154  0.3184 -0.0145  0.7801
 1100TIP3    H227496   4.648   5.893  14.255 -0.1683 -0.3667  1.1535
 1101TIP3   OH227497   5.290   1.853  15.474 -0.1144  0.4408  0.0472
 1101TIP3    H127498   5.375   1.874  15.437 -0.2146  0.3263 -0.2533
 1101TIP3    H227499   5.247   1.938  15.486  0.2775  0.5366  0.7762
 1102TIP3   OH227500   3.083   4.269  16.617 -0.6612  0.2082 -0.2443
 1102TIP3    H127501   3.098   4.353  16.573  0.5066 -0.4066 -1.0830
 1102TIP3    H227502   3.062   4.292  16.707  2.5890  1.3420  0.3359
 1103TIP3   OH227503   0.369   4.205  13.923  0.5065  0.6447 -0.2119
 1103TIP3    H127504   0.430   4.147  13.876 -0.0401 -0.4740  0.4212
 1103TIP3    H227505   0.283   4.170  13.902  0.1205  1.6871 -0.3963
 1104TIP3   OH227506   2.274   2.718  15.508 -0.0578 -0.5739  0.3443
 1104TIP3    H127507   2.200   2.727  15.447  0.5936 -2.6234 -0.8433
 1104TIP3    H227508   2.352   2.724  15.453  0.5953 -0.7811  1.2243
 1105TIP3   OH227509   3.853   4.366  15.746  0.2829  0.1693 -0.2268
 1105TIP3    H127510   3.825   4.428  15.814 -0.1124 -1.8941  1.6232
 1105TIP3    H227511   3.818   4.281  15.775  1.0637 -1.0064 -2.4578
 1106TIP3   OH227512   4.092   3.438  15.065  0.1049 -0.4211 -0.2665
 1106TIP3    H127513   4.011   3.404  15.026 -0.9473 -1.2002  2.3581
 1106TIP3    H227514   4.086   3.533  15.053 -0.3420 -0.5859 -1.5780
 1107TIP3   OH227515   3.290   5.730  13.642  0.0707  0.5453 -0.1900
 1107TIP3    H127516   3.210   5.748  13.691 -0.6011  1.1320 -1.4619
 1107TIP3    H227517   3.354   5.792  13.676  0.2031 -0.3341  1.2621
 1108TIP3   OH227518   1.722   2.590  16.493 -0.1801  0.0444  0.0392
 1108TIP3    H127519   1.754   2.551  16.574  2.1919 -0.1858 -0.9377
 1108TIP3    H227520   1.745   2.527  16.425  1.8922  2.0861 -1.3231
 1109TIP3   OH227521   1.424   4.443  16.315  0.1573 -0.2034 -0.0151
 1109TIP3    H127522   1.407   4.361  16.361  0.9427  0.0962  0.8422
 1109TIP3    H227523   1.338   4.483  16.304 -0.0845 -0.4689  0.8591
 1110TIP3   OH227524   4.115   0.655  16.388 -0.0679  0.2233  0.3833
 1110TIP3    H127525   4.154   0.701  16.462  0.0108 -1.2226  1.2851
 1110TIP3    H227526   4.073   0.723  16.336  0.1215  1.3099  1.6072
 1111TIP3   OH227527   4.312   4.519  14.522 -0.4663 -0.2417 -0.8024
 1111TIP3    H127528   4.237   4.489  14.572 -1.7791  1.9316 -1.3269
 1111TIP3    H227529   4.310   4.466  14.442 -1.6434  0.0051 -0.9485
 1112TIP3   OH227530   0.549   6.529  15.925  0.0910 -0.8047 -0.0717
 1112TIP3    H127531   0.521   6.445  15.961 -0.1614 -1.6652 -2.1166
 1112TIP3    H227532   0.544   6.590  15.999  1.2004 -2.7570  1.7101
 1113TIP3   OH227533   6.449   2.357  15.980  0.1599 -0.1386 -0.5861
 1113TIP3    H127534   6.456   2.391  15.890 -0.8838 -0.1868 -0.7033
 1113TIP3    H227535   6.415   2.268  15.969 -1.4041  0.3676 -0.1034
 1114TIP3   OH227536   0.197   3.867  15.729  0.3010 -0.1847 -0.2190
 1114TIP3    H127537   0.159   3.801  15.671  0.8791 -0.7835  0.0896
 1114TIP3    H227538   0.131   3.937  15.730  0.6386  0.2176 -2.2638
 1115TIP3   OH227539   4.444   2.282  16.468 -0.2107 -0.4375  0.2485
 1115TIP3    H127540   4.425   2.341  16.541 -2.3534 -0.2394 -0.4029
 1115TIP3    H227541   4.375   2.216  16.471 -0.5234 -0.2849 -1.7116
 1116TIP3   OH227542   3.887   5.598  16.059 -0.5700 -1.1475  0.7209
 1116TIP3    H127543   3.875   5.525  15.998 -0.6633 -1.1072  0.6910
 1116TIP3    H227544   3.823   5.664  16.031  1.6474  0.3398 -1.3755
 1117TIP3   OH227545   6.001   5.365  15.636  0.7782  0.6739  0.4315
 1117TIP3    H127546   5.948   5.439  15.664 -1.0975 -0.2876 -0.3598
 1117TIP3    H227547   5.945   5.318  15.573  1.8607 -1.3966  0.9084
 1118TIP3   OH227548   6.251   4.066  14.643 -0.1106 -0.2917 -0.3737
 1118TIP3    H127549   6.263   3.995  14.581 -2.9397 -3.1244  1.9653
 1118TIP3    H227550   6.340   4.095  14.664  1.0830 -2.0703 -2.5443
 1119TIP3   OH227551   5.364   2.684  14.963 -0.5297 -0.9004  0.4111
 1119TIP3    H127552   5.271   2.684  14.938 -1.0270 -0.7596  2.1642
 1119TIP3    H227553   5.377   2.767  15.008  0.4229 -0.9848  0.3091
 1120TIP3   OH227554   0.591   6.579  17.134  0.1766  0.5393  0.4803
 1120TIP3    H127555   0.566   6.628  17.055 -3.0535  2.0705  2.2495
 1120TIP3    H227556   0.563   6.635  17.206 -1.2265 -2.7425  2.6899
 1121TIP3   OH227557   4.123   0.029  15.163 -0.2946 -0.4794 -0.2835
 1121TIP3    H127558   4.188  -0.001  15.099  1.1008  1.0748  0.3169
 1121TIP3    H227559   4.091   0.112  15.128 -0.0404  0.0335  0.6527
 1122TIP3   OH227560   4.500   0.415  15.830  0.1737  0.2569 -0.4628
 1122TIP3    H127561   4.499   0.425  15.734  1.0762 -0.6980 -0.5946
 1122TIP3    H227562   4.590   0.386  15.850 -0.1148  0.0755  0.6326
 1123TIP3   OH227563   2.718   4.145  15.701 -0.2487  0.1597  0.3194
 1123TIP3    H127564   2.670   4.184  15.627 -2.0472 -1.5071  0.5248
 1123TIP3    H227565   2.776   4.081  15.660 -1.0891 -0.6110  0.3098
 1124TIP3   OH227566   0.668   6.433  16.595 -0.6226 -0.4028  0.2076
 1124TIP3    H127567   0.626   6.347  16.591  0.0993 -0.7164 -1.4554
 1124TIP3    H227568   0.676   6.460  16.503  0.4660  0.7887  0.6238
 1125TIP3   OH227569   4.139   4.031  13.683 -0.0157 -0.2576 -0.1771
 1125TIP3    H127570   4.072   3.979  13.639 -1.1924 -0.1641  1.3927
 1125TIP3    H227571   4.100   4.119  13.689 -0.9461 -0.7531  2.9579
 1126TIP3   OH227572   4.158   6.664  16.527  0.5697  0.1317  0.6644
 1126TIP3    H127573   4.179   6.756  16.511  0.4856 -0.1194 -1.0765
 1126TIP3    H227574   4.185   6.619  16.447 -1.8680 -0.9588  0.3790
 1127TIP3   OH227575   2.736   3.664  15.991  0.5207  0.1136 -0.0593
 1127TIP3    H127576   2.716   3.573  15.967  0.2662  0.1233  0.1141
 1127TIP3    H227577   2.794   3.657  16.066 -0.2753  0.1013  0.5611
 1128TIP3   OH227578   6.740   4.224  15.011 -0.5365  0.2228  0.5040
 1128TIP3    H127579   6.694   4.285  14.954 -0.9202  0.5726  1.1718
 1128TIP3    H227580   6.797   4.280  15.065  0.5724 -0.1883 -0.2063
 1129TIP3   OH227581   4.802   5.627  14.022  0.5491 -0.0355  0.5499
 1129TIP3    H127582   4.837   5.609  13.935 -0.8180 -1.3491  0.2351
 1129TIP3    H227583   4.878   5.619  14.081  1.5221  1.0488 -0.5067
 1130TIP3   OH227584   3.068   5.565  14.504  0.2463  0.4542  0.2360
 1130TIP3    H127585   3.013   5.488  14.518 -0.1410  0.6721 -0.0598
 1130TIP3    H227586   3.122   5.542  14.428 -2.1426  1.6440 -2.0113
 1131TIP3   OH227587   1.184   2.447  16.869 -0.1158  0.5335  0.4369
 1131TIP3    H127588   1.253   2.457  16.804 -0.0521  1.9000  0.6939
 1131TIP3    H227589   1.104   2.439  16.817 -0.1209  2.0809  0.1711
 1132TIP3   OH227590   0.614   4.249  15.574 -0.0648  0.0082 -0.3925
 1132TIP3    H127591   0.609   4.175  15.635 -1.2260  0.0246 -0.4542
 1132TIP3    H227592   0.706   4.252  15.548  0.0892 -1.1290 -0.0353
 1133TIP3   OH227593   5.284   1.868  16.644 -0.5211 -0.4790 -0.3711
 1133TIP3    H127594   5.315   1.853  16.733  2.5262 -0.4840 -1.3165
 1133TIP3    H227595   5.235   1.789  16.622  1.1620 -1.8124  0.3866
 1134TIP3   OH227596   6.679   2.092  14.338 -0.0536 -0.3207  0.4740
 1134TIP3    H127597   6.676   2.055  14.250 -0.8435  0.2283  0.2644
 1134TIP3    H227598   6.620   2.037  14.390 -2.1108  1.2414 -0.0925
 1135TIP3   OH227599   0.441   1.417  15.160  0.2677 -0.3155  0.1143
 1135TIP3    H127600   0.488   1.476  15.220  0.5352 -1.6573  1.2724
 1135TIP3    H227601   0.500   1.410  15.085  1.0972 -0.5256  0.7575
 1136TIP3   OH227602   3.652   3.133  14.680  0.0540  0.3594  0.0881
 1136TIP3    H127603   3.638   3.203  14.743 -3.1232 -1.3441  1.4903
 1136TIP3    H227604   3.588   3.148  14.611 -0.4275 -0.9221  0.2247
 1137TIP3   OH227605   0.253   0.012  17.175 -0.4397  0.2422 -0.9058
 1137TIP3    H127606   0.327   0.044  17.226 -2.2371  0.0109  2.0531
 1137TIP3    H227607   0.212   0.091  17.140 -1.3798  0.8141  1.3263
 1138TIP3   OH227608   5.542   1.824  15.382 -0.2096  0.2315 -0.3500
 1138TIP3    H127609   5.592   1.745  15.399 -1.2236 -0.2314  0.6392
 1138TIP3    H227610   5.605   1.886  15.346  0.6311 -0.9631 -0.9879
 1139TIP3   OH227611   3.746   6.399  15.614  0.1520 -0.1798 -0.0126
 1139TIP3    H127612   3.793   6.406  15.697 -1.2842  1.2149  0.7349
 1139TIP3    H227613   3.798   6.451  15.553 -0.0316  0.7552  0.6135
 1140TIP3   OH227614   0.729   1.879  15.161 -0.2298 -0.1191  0.6620
 1140TIP3    H127615   0.792   1.813  15.133 -0.1815  0.7656 -1.5147
 1140TIP3    H227616   0.775   1.962  15.151 -1.2272  0.4333  0.4824
 1141TIP3   OH227617   6.669   5.696  15.588  0.2496  0.3164  0.1175
 1141TIP3    H127618   6.669   5.606  15.557  0.7018  0.7805 -1.3095
 1141TIP3    H227619   6.759   5.726  15.578 -0.0251  1.1323 -0.0602
 1142TIP3   OH227620   6.007   2.381  14.959  0.7875 -0.1669  0.2627
 1142TIP3    H127621   6.079   2.444  14.969  0.8700 -0.2877  0.4262
 1142TIP3    H227622   6.007   2.331  15.041  2.1414 -1.8634 -0.7004
 1143TIP3   OH227623   4.776   3.267  16.450 -0.4342  0.3414  0.1574
 1143TIP3    H127624   4.696   3.313  16.475  0.8510  1.9676  1.5734
 1143TIP3    H227625   4.764   3.246  16.358 -2.2114  1.1508  0.1689
 1144TIP3   OH227626   6.624   5.915  15.155 -0.5426  0.0022  0.2713
 1144TIP3    H127627   6.597   6.007  15.158 -1.1368 -0.0715 -1.5829
 1144TIP3    H227628   6.543   5.865  15.167 -0.4054 -0.2652  0.1079
 1145TIP3   OH227629   0.237   5.509  16.700  0.0724  0.3004 -0.1837
 1145TIP3    H127630   0.323   5.526  16.660  0.5756 -0.8023  0.3542
 1145TIP3    H227631   0.217   5.588  16.749  2.1731 -0.4223  2.0231
 1146TIP3   OH227632   3.402   1.017  13.707  0.2412  0.4182  0.3182
 1146TIP3    H127633   3.399   0.937  13.655  0.0513 -0.1466  1.1963
 1146TIP3    H227634   3.455   1.077  13.654  1.7283 -0.7971  0.3620
 1147TIP3   OH227635   1.331   5.325  16.728 -0.2593 -0.3158  0.0272
 1147TIP3    H127636   1.379   5.350  16.808 -1.1001  2.0691 -0.1644
 1147TIP3    H227637   1.400   5.311  16.663  0.3294  0.0486  0.5550
 1148TIP3   OH227638   6.649   4.655  16.811  0.2455  0.2938  0.2772
 1148TIP3    H127639   6.738   4.654  16.847  0.0779  1.3612  0.7516
 1148TIP3    H227640   6.614   4.740  16.837 -1.3103 -0.5455  1.0501
 1149TIP3   OH227641   2.605   3.099  16.300  0.5062 -0.0149  0.7803
 1149TIP3    H127642   2.654   3.078  16.379 -1.0372 -0.8520  1.5796
 1149TIP3    H227643   2.534   3.156  16.330 -0.1421 -0.3997  0.0220
 1150TIP3   OH227644   2.845   5.296  16.611 -0.0626  0.4742 -0.0562
 1150TIP3    H127645   2.904   5.221  16.613 -0.6578 -0.0069  1.9531
 1150TIP3    H227646   2.881   5.357  16.676 -1.5586  0.2928  1.0072
 1151TIP3   OH227647   1.369   4.056  14.655 -0.6263  0.0297  0.7108
 1151TIP3    H127648   1.285   4.025  14.620 -0.0702  0.2487 -0.8989
 1151TIP3    H227649   1.358   4.151  14.662 -0.4786  0.0750  0.3642
 1152TIP3   OH227650   0.377   5.365  13.818  0.1070  0.3353 -0.0438
 1152TIP3    H127651   0.355   5.362  13.725  1.8616  0.4480 -0.4938
 1152TIP3    H227652   0.405   5.455  13.833 -1.3515  0.6663  0.9214
 1153TIP3   OH227653   5.587   2.404  13.481 -0.2467 -0.0694  0.0024
 1153TIP3    H127654   5.612   2.492  13.455  0.4098 -0.5970 -1.2652
 1153TIP3    H227655   5.581   2.355  13.399 -2.4867 -0.7603  0.5036
 1154TIP3   OH227656   5.175   0.078  15.096  0.2192  0.0117  0.7533
 1154TIP3    H127657   5.244   0.046  15.154  0.6771  0.4330  0.4424
 1154TIP3    H227658   5.214   0.152  15.050 -0.6166  0.6109  0.9773
 1155TIP3   OH227659   0.317   0.789  15.699  0.0642  0.6015  0.3191
 1155TIP3    H127660   0.368   0.855  15.746 -0.0537  1.0934 -0.2373
 1155TIP3    H227661   0.328   0.709  15.751  0.2411  1.0451  0.9717
 1156TIP3   OH227662   3.742   2.470  16.060  0.1291  0.1544  0.3469
 1156TIP3    H127663   3.648   2.487  16.053  0.3683  1.8807  0.7443
 1156TIP3    H227664   3.766   2.429  15.977 -0.9096 -0.0153  0.1225
 1157TIP3   OH227665   0.830   4.075  14.942 -0.1362 -0.2525  0.0591
 1157TIP3    H127666   0.902   4.116  14.991 -0.0673  0.2884 -0.4805
 1157TIP3    H227667   0.834   3.983  14.966  0.0567 -0.0427  0.8733
 1158TIP3   OH227668   3.635   5.561  13.812 -0.6797 -0.0162 -0.0606
 1158TIP3    H127669   3.685   5.638  13.785  1.0816 -1.4561 -1.1109
 1158TIP3    H227670   3.572   5.546  13.741  0.0953 -0.4752 -0.6677
 1159TIP3   OH227671   1.698   3.390  13.895  0.2211  0.1729  0.4677
 1159TIP3    H127672   1.617   3.380  13.945  0.0637  0.3137  0.2440
 1159TIP3    H227673   1.729   3.477  13.917 -0.4664  0.7004 -0.5710
 1160TIP3   OH227674   6.170   4.949  15.622  0.4512  0.2780 -0.2136
 1160TIP3    H127675   6.195   4.875  15.677 -0.3814 -1.9478 -2.6323
 1160TIP3    H227676   6.104   4.996  15.674 -0.3548 -1.7467  0.6863
 1161TIP3   OH227677   4.486   4.392  16.236 -0.0967 -0.0936  0.5482
 1161TIP3    H127678   4.523   4.321  16.183  0.4293  0.1969  0.5217
 1161TIP3    H227679   4.460   4.459  16.173 -3.4234 -1.4651  0.2820
 1162TIP3   OH227680   4.740   5.463  16.159  0.2735 -0.4555  0.4456
 1162TIP3    H127681   4.707   5.535  16.213  1.2921 -0.5067  1.1732
 1162TIP3    H227682   4.771   5.398  16.222 -1.3709 -1.9212 -0.1775
 1163TIP3   OH227683   5.828   1.337  16.279 -0.2001 -0.8312 -0.1757
 1163TIP3    H127684   5.743   1.298  16.259 -1.2042  0.1731  1.8783
 1163TIP3    H227685   5.814   1.431  16.267  0.7409 -0.6888 -0.1942
 1164TIP3   OH227686   1.286   5.576  14.555  0.1810  0.2948  0.1854
 1164TIP3    H127687   1.376   5.544  14.544  0.8942  2.1920  0.1308
 1164TIP3    H227688   1.258   5.599  14.467 -0.4759 -0.4915  0.1727
 1165TIP3   OH227689   5.952   2.181  16.510  0.6259 -0.5137  0.2059
 1165TIP3    H127690   5.955   2.276  16.508 -0.8517 -0.4408  0.3338
 1165TIP3    H227691   6.020   2.155  16.573 -0.1673  0.5423  1.5303
 1166TIP3   OH227692   4.406   0.142  15.341 -0.4328  0.3636  0.2511
 1166TIP3    H127693   4.340   0.072  15.337  1.7241 -1.8851  0.8489
 1166TIP3    H227694   4.435   0.152  15.251  0.3307 -0.7083  0.3541
 1167TIP3   OH227695   4.880   1.361  16.616  0.5424  0.4606 -0.4376
 1167TIP3    H127696   4.866   1.442  16.568  0.3132 -0.9405 -2.9194
 1167TIP3    H227697   4.816   1.300  16.579  2.1488 -1.4602 -0.2287
 1168TIP3   OH227698   0.880   2.663  16.247 -0.3070 -0.3521  0.0963
 1168TIP3    H127699   0.840   2.631  16.327  1.5121  1.3855  1.8194
 1168TIP3    H227700   0.822   2.734  16.218 -1.4322 -1.5324 -0.7165
 1169TIP3   OH227701   6.467   0.821  16.596 -0.3098 -0.5267 -0.5235
 1169TIP3    H127702   6.530   0.793  16.529  0.6215  1.2355 -0.4571
 1169TIP3    H227703   6.438   0.907  16.565 -1.2618 -0.4994  0.4215
 1170TIP3   OH227704   2.271   1.348  17.037 -0.5842  0.5073  0.3835
 1170TIP3    H127705   2.233   1.350  16.949 -0.4920  1.4648  0.3622
 1170TIP3    H227706   2.264   1.437  17.069  0.7085  0.4863  0.7892
 1171TIP3   OH227707   5.144   2.100  15.508 -1.0329  0.0213 -0.6649
 1171TIP3    H127708   5.077   2.061  15.452 -2.7009  1.6894  0.0280
 1171TIP3    H227709   5.189   2.162  15.452 -0.4187 -0.7164 -0.9966
 1172TIP3   OH227710   2.627   2.075  15.859  0.4045 -0.2813  0.7127
 1172TIP3    H127711   2.583   2.159  15.858 -0.0341 -0.5073  0.5552
 1172TIP3    H227712   2.556   2.011  15.870  0.4040 -0.8061 -1.7427
 1173TIP3   OH227713   3.873   4.896  15.207  0.2035 -0.1447 -0.3767
 1173TIP3    H127714   3.794   4.926  15.253 -1.1014 -0.4055 -2.3453
 1173TIP3    H227715   3.899   4.817  15.253 -1.8388 -1.1320 -0.8140
 1174TIP3   OH227716   1.089   6.321  14.100 -0.6406  0.4715  0.2400
 1174TIP3    H127717   1.075   6.406  14.059  0.9118  0.3875 -0.5496
 1174TIP3    H227718   1.117   6.264  14.027  1.2748  0.0731  1.2261
 1175TIP3   OH227719   2.691   4.039  14.556  0.7365  0.3758 -0.1554
 1175TIP3    H127720   2.619   4.031  14.619  0.0420  1.6612 -0.7518
 1175TIP3    H227721   2.721   4.129  14.565  0.6424  0.5732 -1.6240
 1176TIP3   OH227722   2.694   3.312  15.088  0.4351  0.1283 -0.1490
 1176TIP3    H127723   2.721   3.381  15.149  0.5933 -1.2943  1.4332
 1176TIP3    H227724   2.600   3.327  15.076  0.4935  0.6908  0.0433
 1177TIP3   OH227725   4.289   2.441  15.176  0.3659 -0.1912  0.0299
 1177TIP3    H127726   4.219   2.506  15.179 -1.5383 -2.1361  0.8235
 1177TIP3    H227727   4.359   2.480  15.229 -0.5827  1.3136  0.2572
 1178TIP3   OH227728   0.568   3.524  16.564 -0.2340  0.0982  0.3952
 1178TIP3    H127729   0.581   3.501  16.472  0.9152 -1.5976  0.9347
 1178TIP3    H227730   0.654   3.557  16.592 -0.7979  1.3886  0.6708
 1179TIP3   OH227731   1.035   2.907  16.183  0.2463 -0.6728 -0.7218
 1179TIP3    H127732   1.038   2.813  16.166 -1.1318 -0.9495  0.4395
 1179TIP3    H227733   1.125   2.936  16.167  1.1550 -2.5087  0.6986
 1180TIP3   OH227734   1.218   1.583  14.070  0.4284 -0.6511 -0.2137
 1180TIP3    H127735   1.150   1.624  14.124 -0.5379 -1.9225 -0.4287
 1180TIP3    H227736   1.173   1.513  14.023  1.8482 -1.3808 -0.5398
 1181TIP3   OH227737   1.047   0.822  16.391  0.0065 -0.0950  0.0570
 1181TIP3    H127738   0.961   0.855  16.419  0.8014  1.0734  1.1894
 1181TIP3    H227739   1.049   0.732  16.423 -1.2285 -0.5290 -0.9790
 1182TIP3   OH227740   3.284   5.390  16.125  0.1709 -0.5388 -0.3157
 1182TIP3    H127741   3.313   5.385  16.216  1.1372 -0.6596 -0.6198
 1182TIP3    H227742   3.216   5.457  16.125  0.7473  0.0635  0.3523
 1183TIP3   OH227743   4.728   3.612  15.266  0.1386 -0.1177 -0.0602
 1183TIP3    H127744   4.633   3.618  15.268  0.1434 -0.0301 -0.0728
 1183TIP3    H227745   4.751   3.631  15.175  0.0213 -2.3717 -0.6143
 1184TIP3   OH227746   6.681   3.306  13.939 -0.6907  0.2203 -0.0252
 1184TIP3    H127747   6.724   3.317  13.854  1.8261 -1.6864  0.8541
 1184TIP3    H227748   6.627   3.227  13.928  0.0045 -0.3029  0.2389
 1185TIP3   OH227749   2.803   0.686  16.044  0.1805  0.0617 -0.1322
 1185TIP3    H127750   2.811   0.680  15.948  0.3955  1.4071 -0.2149
 1185TIP3    H227751   2.849   0.767  16.067 -0.4311  0.0919  1.0468
 1186TIP3   OH227752   5.955   0.143  13.658 -0.4480  0.0127 -0.0071
 1186TIP3    H127753   6.039   0.167  13.620 -0.9843 -0.6315 -1.6946
 1186TIP3    H227754   5.901   0.117  13.583 -2.5107  1.3955  0.8765
 1187TIP3   OH227755   4.671   3.295  16.820  0.1291  0.3540  0.1139
 1187TIP3    H127756   4.758   3.268  16.793  0.0828 -0.7378  0.9980
 1187TIP3    H227757   4.685   3.352  16.896  0.0380 -1.3820  1.5012
 1188TIP3   OH227758   3.764   6.072  15.073 -0.4432 -0.7669  0.0118
 1188TIP3    H127759   3.856   6.045  15.073 -0.1268  0.2388  1.1631
 1188TIP3    H227760   3.763   6.153  15.021 -0.6730 -0.7312  0.0709
 1189TIP3   OH227761   5.185   4.955  16.152  0.2591  0.0316  0.5137
 1189TIP3    H127762   5.252   4.998  16.205  0.8796  0.5914 -0.6827
 1189TIP3    H227763   5.112   5.016  16.150  1.0539  0.9766 -1.0012
 1190TIP3   OH227764   0.294   2.058  15.438 -0.5932 -0.4581  0.4266
 1190TIP3    H127765   0.259   2.099  15.359 -0.5202 -0.0078  0.6209
 1190TIP3    H227766   0.354   1.991  15.406 -1.9063 -1.5164  0.0829
 1191TIP3   OH227767   5.674   5.117  14.062  0.6898  0.3220  0.2158
 1191TIP3    H127768   5.758   5.073  14.065  0.6828  0.3222  0.4971
 1191TIP3    H227769   5.638   5.096  13.976  0.3185 -0.9027  0.6444
 1192TIP3   OH227770   6.382   5.687  16.327  0.3092 -0.4968 -0.7930
 1192TIP3    H127771   6.297   5.644  16.326 -0.5119  0.6837  3.0012
 1192TIP3    H227772   6.370   5.766  16.274 -0.3916 -1.1841 -1.6932
 1193TIP3   OH227773   1.329   1.037  16.950  0.1304 -0.1862  0.1245
 1193TIP3    H127774   1.285   0.964  16.908 -0.8077 -0.5259  1.6392
 1193TIP3    H227775   1.312   1.112  16.893  1.9218 -1.2655 -1.9712
 1194TIP3   OH227776   6.311   5.162  13.786  0.3521 -0.5026  0.0353
 1194TIP3    H127777   6.304   5.165  13.881  0.9580  1.1950  0.0615
 1194TIP3    H227778   6.223   5.139  13.756 -0.0776 -0.1046  0.9602
 1195TIP3   OH227779   6.323   5.036  15.226  0.3541 -0.0901  0.2490
 1195TIP3    H127780   6.344   5.129  15.220  2.2515 -0.5009 -0.0743
 1195TIP3    H227781   6.302   5.010  15.137  0.7100 -0.1727  0.1911
 1196TIP3   OH227782   0.204   5.676  15.526  0.5020  0.2656 -0.8700
 1196TIP3    H127783   0.245   5.751  15.569 -1.1162  0.4251  0.4650
 1196TIP3    H227784   0.201   5.700  15.433  2.4326  0.6757 -0.8641
 1197TIP3   OH227785   3.004   5.041  16.321 -0.2502 -0.2726  0.3174
 1197TIP3    H127786   2.925   5.038  16.374 -0.1666  2.1959  0.7288
 1197TIP3    H227787   2.973   5.051  16.231 -0.4027 -0.0925  0.3896
 1198TIP3   OH227788   5.831   2.141  15.920 -0.7179  0.6129 -0.2317
 1198TIP3    H127789   5.849   2.153  15.827 -1.8415 -0.0542 -0.5634
 1198TIP3    H227790   5.909   2.172  15.964  1.4959 -2.6024 -1.5278
 1199TIP3   OH227791   3.239   5.990  15.940 -0.3843 -0.3916  0.4356
 1199TIP3    H127792   3.193   5.906  15.937 -0.4788 -0.5816  3.5189
 1199TIP3    H227793   3.171   6.054  15.961 -0.2038  0.3911 -1.2265
 1200TIP3   OH227794   5.721   5.999  14.168  0.4445  0.5438 -0.3947
 1200TIP3    H127795   5.656   6.003  14.098 -0.8408  2.0739  0.7945
 1200TIP3    H227796   5.805   6.009  14.124 -0.1678 -0.6927 -1.9088
 1201TIP3   OH227797   4.812   1.620  13.384  0.0308 -0.2558  0.1216
 1201TIP3    H127798   4.839   1.613  13.292  1.2430  1.6608  0.2818
 1201TIP3    H227799   4.886   1.661  13.428 -2.1129  3.0037  1.0650
 1202TIP3   OH227800   6.210   4.874  14.986 -0.0214 -0.3449 -0.5539
 1202TIP3    H127801   6.139   4.937  14.971  1.5833  2.0949  1.3375
 1202TIP3    H227802   6.166   4.796  15.019 -2.0951 -0.3283 -2.9386
 1203TIP3   OH227803   0.705   2.587  16.762 -0.0426  1.1238  0.2677
 1203TIP3    H127804   0.699   2.644  16.839  1.6448  1.1956  0.3780
 1203TIP3    H227805   0.786   2.614  16.719  0.5328 -0.8219  0.0359
 1204TIP3   OH227806   2.789   0.675  15.284  0.4099 -0.2844  0.1232
 1204TIP3    H127807   2.765   0.671  15.192  0.7359 -0.3709  0.0407
 1204TIP3    H227808   2.705   0.687  15.330  0.1364 -1.1588 -0.1162
 1205TIP3   OH227809   6.643   1.587  14.613 -0.0428 -0.3705 -0.5514
 1205TIP3    H127810   6.566   1.565  14.561 -0.9698  1.0880  0.1393
 1205TIP3    H227811   6.703   1.513  14.600 -1.6943 -1.7135 -0.8056
 1206TIP3   OH227812   2.305   6.231  16.178  0.0038 -0.0799  0.3239
 1206TIP3    H127813   2.253   6.243  16.099  1.3212  0.4284 -0.5091
 1206TIP3    H227814   2.352   6.314  16.189  0.0873 -0.2651  1.4496
 1207TIP3   OH227815   6.468   2.260  16.439 -0.1193 -0.2202 -0.5275
 1207TIP3    H127816   6.434   2.331  16.493  0.0414 -0.6346  0.1295
 1207TIP3    H227817   6.563   2.274  16.439 -0.0623 -0.5831 -0.1718
 1208TIP3   OH227818   3.186   3.020  15.044 -0.4995 -0.3213  0.8740
 1208TIP3    H127819   3.257   3.049  14.986 -0.4287  0.8129  1.5058
 1208TIP3    H227820   3.153   2.940  15.002  0.5669 -0.3852  0.1035
 1209TIP3   OH227821   5.451   1.307  16.595  1.0354 -0.4792 -0.6386
 1209TIP3    H127822   5.408   1.386  16.627 -0.5858 -1.5352 -0.0676
 1209TIP3    H227823   5.422   1.299  16.504 -1.3436 -1.9794  0.1554
 1210TIP3   OH227824   3.267   4.523  14.466 -0.4603  0.1862 -0.2626
 1210TIP3    H127825   3.208   4.450  14.452 -2.5444  1.8053 -0.3998
 1210TIP3    H227826   3.330   4.491  14.531 -0.2864 -2.1914 -1.4781
 1211TIP3   OH227827   3.466   1.266  13.913 -0.1658 -0.1130 -0.3692
 1211TIP3    H127828   3.463   1.178  13.877 -0.5140 -1.1946  2.0835
 1211TIP3    H227829   3.375   1.291  13.925 -0.0624  0.2416 -0.2855
 1212TIP3   OH227830   2.152   2.728  16.002 -0.5582 -0.6593 -0.1828
 1212TIP3    H127831   2.187   2.799  15.948 -0.4402 -1.3880 -1.0740
 1212TIP3    H227832   2.097   2.677  15.943 -2.8150  0.1857  1.0809
 1213TIP3   OH227833   3.646   0.984  16.676  0.6255 -0.0596  0.3404
 1213TIP3    H127834   3.573   0.927  16.652  1.0453 -1.0885  1.3855
 1213TIP3    H227835   3.711   0.968  16.607  0.9966 -1.4016  0.9485
 1214TIP3   OH227836   4.006   2.243  15.165 -0.0834 -0.5710 -0.4241
 1214TIP3    H127837   4.057   2.296  15.103 -0.1343  0.5770  0.4934
 1214TIP3    H227838   4.041   2.266  15.251 -1.3767 -0.6333  0.1404
 1215TIP3   OH227839   1.776   4.767  16.805  0.4700  0.3499  0.8803
 1215TIP3    H127840   1.722   4.711  16.860  0.6647  0.1955  0.9141
 1215TIP3    H227841   1.746   4.750  16.715  0.0860  0.6753  0.9488
 1216TIP3   OH227842   5.830   5.015  16.748 -0.2683  0.2527 -0.3907
 1216TIP3    H127843   5.736   5.011  16.763 -0.5573  2.1230 -1.3828
 1216TIP3    H227844   5.869   5.016  16.835 -1.0365 -2.0420  0.0303
 1217TIP3   OH227845   6.612   0.706  14.893  0.6995 -0.0438 -0.3515
 1217TIP3    H127846   6.531   0.753  14.876  0.5545 -0.0083  0.4038
 1217TIP3    H227847   6.629   0.657  14.813  0.0551  0.1277 -0.5951
 1218TIP3   OH227848   5.615   2.467  15.754 -0.4084  0.0057  0.1667
 1218TIP3    H127849   5.585   2.390  15.803  1.6131 -2.4004 -2.0622
 1218TIP3    H227850   5.547   2.483  15.689  0.1852 -1.4868 -0.8776
 1219TIP3   OH227851   5.019   2.877  15.910  0.3759  0.6138 -0.4838
 1219TIP3    H127852   5.014   2.944  15.841 -0.1140  0.7980 -0.2760
 1219TIP3    H227853   4.945   2.897  15.967  1.2386  0.9365  0.5313
 1220TIP3   OH227854   2.064   4.571  14.218  0.1281  0.2775  0.5470
 1220TIP3    H127855   2.066   4.480  14.247 -0.3236 -1.2533 -3.5840
 1220TIP3    H227856   1.971   4.595  14.223  0.2860  0.7305  1.9453
 1221TIP3   OH227857   0.094   3.885  15.222 -0.0470  0.2359 -0.2667
 1221TIP3    H127858   0.052   3.942  15.158 -1.0840 -1.7047 -1.3912
 1221TIP3    H227859   0.133   3.815  15.170 -1.3549 -1.6731  1.1925
 1222TIP3   OH227860   1.429   0.666  15.976 -0.4639  0.2537 -0.0039
 1222TIP3    H127861   1.507   0.677  15.922  1.1955  0.9171  2.3711
 1222TIP3    H227862   1.411   0.572  15.974  1.1749 -0.0994  0.3831
 1223TIP3   OH227863   6.181   5.560  15.216 -0.1214  0.0538 -0.3136
 1223TIP3    H127864   6.132   5.641  15.208  0.9677  0.6088 -1.8521
 1223TIP3    H227865   6.223   5.549  15.131  2.6148 -0.2228  0.9563
 1224TIP3   OH227866   2.886   4.951  14.522  0.5143 -0.5434 -0.2973
 1224TIP3    H127867   2.803   4.906  14.508  0.3010 -0.7251  1.3363
 1224TIP3    H227868   2.897   4.951  14.617  1.3854  1.2891 -0.3587
 1225TIP3   OH227869   3.169   1.942  15.572  0.3903  0.0931 -0.3376
 1225TIP3    H127870   3.139   1.854  15.552 -2.5216  1.1349 -0.9382
 1225TIP3    H227871   3.090   1.995  15.574  1.5820  2.0887  3.6062
 1226TIP3   OH227872   4.783   2.081  14.890  0.0985 -0.0280 -0.4991
 1226TIP3    H127873   4.694   2.061  14.862  0.2396  0.5968 -1.4216
 1226TIP3    H227874   4.822   2.126  14.816  0.9443  0.3948  0.1857
 1227TIP3   OH227875   3.061   0.280  16.519 -0.1194 -0.1150  0.0972
 1227TIP3    H127876   2.969   0.287  16.492 -0.7905  0.1120  2.2172
 1227TIP3    H227877   3.092   0.198  16.480 -1.4530 -0.5666 -0.0586
 1228TIP3   OH227878   2.072   2.671  14.723 -0.7981  0.1132  0.6118
 1228TIP3    H127879   2.157   2.645  14.758 -1.1722 -0.8673  0.8272
 1228TIP3    H227880   2.091   2.741  14.660  0.1663 -0.1772  0.5789
 1229TIP3   OH227881   4.989   6.655  16.994  0.1319 -0.8079  0.2865
 1229TIP3    H127882   5.042   6.577  17.009  0.7798 -0.2674  0.8376
 1229TIP3    H227883   4.937   6.633  16.917  1.9856 -0.9372 -0.9987
 1230TIP3   OH227884   6.296   6.725  15.729  0.1114  0.5475  0.1838
 1230TIP3    H127885   6.338   6.650  15.771  1.0310  0.6865 -0.4369
 1230TIP3    H227886   6.207   6.696  15.710 -0.0476  0.1876  1.4052
 1231TIP3   OH227887   6.248   1.605  14.643 -0.2505 -0.8782  0.0477
 1231TIP3    H127888   6.167   1.576  14.601 -0.0515 -1.3811 -0.0027
 1231TIP3    H227889   6.317   1.570  14.586 -0.0042  1.0829 -0.9365
 1232TIP3   OH227890   2.464   5.547  15.565  0.4738  0.5767  0.2229
 1232TIP3    H127891   2.507   5.501  15.637  0.1117  0.1302  0.1508
 1232TIP3    H227892   2.437   5.631  15.603  2.9470  1.6388 -0.1602
 1233TIP3   OH227893   4.848   0.911  14.447  0.4062  0.7319  0.3580
 1233TIP3    H127894   4.934   0.953  14.449  0.3056  1.0590 -1.1264
 1233TIP3    H227895   4.842   0.874  14.359 -1.6455  2.1408 -0.1536
 1234TIP3   OH227896   3.490   4.633  15.917  0.3784 -0.5638 -0.0308
 1234TIP3    H127897   3.556   4.618  15.985  0.6103 -1.2033 -0.3865
 1234TIP3    H227898   3.480   4.548  15.874 -0.0788 -0.2697 -0.5197
 1235TIP3   OH227899   6.696   1.714  15.577  0.7076 -0.1836  0.0981
 1235TIP3    H127900   6.744   1.734  15.497 -0.6450  0.3603 -0.6165
 1235TIP3    H227901   6.724   1.780  15.640  0.8103  0.1844 -0.3361
 1236TIP3   OH227902   3.242   1.503  14.450  0.5008  0.1779 -0.6683
 1236TIP3    H127903   3.218   1.541  14.365  0.9262  2.2555  0.0880
 1236TIP3    H227904   3.194   1.554  14.514 -1.3041 -2.5630  0.3554
 1237TIP3   OH227905   2.256   6.130  17.081 -0.6666 -0.3939  0.3616
 1237TIP3    H127906   2.179   6.076  17.097 -0.4160 -0.3443  1.8593
 1237TIP3    H227907   2.241   6.210  17.131 -0.4012  0.3587 -0.7130
 1238TIP3   OH227908   3.515   5.080  14.713  0.0588  0.2308 -0.3526
 1238TIP3    H127909   3.592   5.027  14.732  0.6831  1.1509 -0.2350
 1238TIP3    H227910   3.551   5.161  14.675 -0.9510 -0.1320 -2.2299
 1239TIP3   OH227911   2.466   1.867  15.854  0.0496 -0.8630 -0.1148
 1239TIP3    H127912   2.478   1.800  15.787  1.4189 -2.9940  2.0655
 1239TIP3    H227913   2.438   1.818  15.932 -0.2891  1.2928  1.2036
 1240TIP3   OH227914   5.160   0.401  16.073  0.6107 -0.4290  0.0012
 1240TIP3    H127915   5.130   0.434  16.158  0.0875 -0.3846 -0.2003
 1240TIP3    H227916   5.214   0.472  16.038  0.8246 -0.4448  0.2917
 1241TIP3   OH227917   4.103   1.307  17.039 -0.0852  0.2454  0.0783
 1241TIP3    H127918   4.035   1.241  17.031 -1.3148  1.4641  0.1556
 1241TIP3    H227919   4.166   1.270  17.101 -1.4118 -0.3206  1.1266
 1242TIP3   OH227920   5.585   1.595  15.685 -0.4226  0.1160  0.3958
 1242TIP3    H127921   5.639   1.669  15.657  1.0164 -0.7102  0.9116
 1242TIP3    H227922   5.501   1.635  15.708 -0.2421  1.3646 -0.9342
 1243TIP3   OH227923   2.977   0.992  14.762  0.8331 -0.1757  0.1639
 1243TIP3    H127924   2.989   1.070  14.708  2.2954 -1.3803 -1.3815
 1243TIP3    H227925   3.064   0.951  14.764 -0.2464 -2.7646 -0.7200
 1244TIP3   OH227926   4.188   5.774  16.515 -0.4059  0.1458 -0.0146
 1244TIP3    H127927   4.162   5.795  16.604 -1.0339  1.0613 -0.4022
 1244TIP3    H227928   4.161   5.850  16.463 -1.9400 -1.2098 -1.3305
 1245TIP3   OH227929   1.442   4.498  13.474 -0.2176 -0.0483 -0.2808
 1245TIP3    H127930   1.435   4.531  13.384  0.8686  1.0166 -0.0005
 1245TIP3    H227931   1.359   4.520  13.515  0.1824  1.7060 -0.3293
 1246TIP3   OH227932   4.066   1.119  14.141 -0.0690 -0.3375 -0.2119
 1246TIP3    H127933   4.009   1.187  14.104  1.3460  0.7403 -0.5017
 1246TIP3    H227934   4.149   1.165  14.159  1.6685 -2.4205 -2.3678
 1247TIP3   OH227935   4.714   3.691  15.677 -0.2510 -0.6009  0.2316
 1247TIP3    H127936   4.721   3.753  15.605  0.6006  0.1633  0.9622
 1247TIP3    H227937   4.627   3.707  15.714  0.4444  1.1008  1.2381
 1248TIP3   OH227938   0.503   2.779  16.610  0.0883  0.1419 -0.3360
 1248TIP3    H127939   0.588   2.799  16.572  0.2562 -1.5695 -0.9508
 1248TIP3    H227940   0.502   2.825  16.694  0.4698  2.4438 -1.5128
 1249TIP3   OH227941   4.040   5.382  16.664 -0.0201 -0.4701 -0.8434
 1249TIP3    H127942   4.024   5.418  16.576 -1.1280 -0.7504 -0.7738
 1249TIP3    H227943   4.101   5.443  16.704 -0.9833  0.7424 -1.1395
 1250TIP3   OH227944   4.589   4.761  16.064  0.5387  0.4137  0.1144
 1250TIP3    H127945   4.518   4.758  16.128  0.3432 -0.7091 -0.1221
 1250TIP3    H227946   4.552   4.806  15.988  0.2686  0.3849  0.2272
 1251TIP3   OH227947   5.726   3.565  15.683  0.6801  0.2678 -0.4314
 1251TIP3    H127948   5.679   3.585  15.764  2.1021  2.1767 -0.0043
 1251TIP3    H227949   5.673   3.605  15.614  0.5477  0.5169 -0.1891
 1252TIP3   OH227950   2.702   6.631  16.960  0.2887 -0.4940 -0.1968
 1252TIP3    H127951   2.715   6.668  16.872 -1.5653  0.7920  0.0124
 1252TIP3    H227952   2.654   6.699  17.007 -3.2109 -3.0634  0.2929
 1253TIP3   OH227953   1.288   0.612  15.653 -0.0138 -0.4597  0.1211
 1253TIP3    H127954   1.378   0.636  15.630 -0.0445  0.0220  0.4857
 1253TIP3    H227955   1.260   0.681  15.713 -1.7819  1.2768 -2.5111
 1254TIP3   OH227956   1.550   5.155  16.620  0.1364 -0.0113  0.2963
 1254TIP3    H127957   1.642   5.134  16.636  1.3103  1.1861 -3.7258
 1254TIP3    H227958   1.528   5.109  16.539 -2.0165  1.6606 -0.1661
 1255TIP3   OH227959   6.613   6.047  16.274  0.1641 -0.2786 -0.7032
 1255TIP3    H127960   6.614   6.096  16.191 -2.0349 -0.1546 -0.7099
 1255TIP3    H227961   6.627   5.956  16.249  0.7096 -0.0949 -1.0769
 1256TIP3   OH227962   1.460   2.114  14.552  0.2176  0.0139 -0.3750
 1256TIP3    H127963   1.482   2.146  14.639  0.9490  0.9502 -0.8738
 1256TIP3    H227964   1.516   2.037  14.540 -0.1285 -0.3149  0.0990
 1257TIP3   OH227965   2.744   3.784  17.016 -0.2479  0.2746 -0.0212
 1257TIP3    H127966   2.668   3.780  16.958  1.2257 -0.1220 -2.0170
 1257TIP3    H227967   2.734   3.708  17.074 -1.2260  0.0752 -0.4307
 1258TIP3   OH227968   2.969   5.464  16.819  0.2736  0.3805  0.1968
 1258TIP3    H127969   2.996   5.541  16.769 -0.1137 -0.5676 -1.5419
 1258TIP3    H227970   3.035   5.397  16.799 -0.8746 -0.5778 -0.5595
 1259TIP3   OH227971   1.470   2.209  15.176  0.0345 -0.6398 -0.0467
 1259TIP3    H127972   1.382   2.224  15.143  0.3879 -0.9115 -1.1340
 1259TIP3    H227973   1.482   2.114  15.170  0.9433 -0.4667 -1.3536
 1260TIP3   OH227974   2.839   1.686  16.994 -0.4808 -0.1641  0.2258
 1260TIP3    H127975   2.830   1.747  17.066  0.4098 -0.2095  0.3947
 1260TIP3    H227976   2.786   1.610  17.020  0.8455 -0.7188  1.4597
 1261TIP3   OH227977   0.506   2.716  16.078  0.0488 -0.3894  0.3622
 1261TIP3    H127978   0.590   2.753  16.103 -0.3090  0.3047  0.5538
 1261TIP3    H227979   0.504   2.724  15.982  0.1998 -0.4062  0.3576
 1262TIP3   OH227980   4.096   0.520  15.302 -0.0980 -0.4658  0.3172
 1262TIP3    H127981   4.053   0.441  15.334 -0.0818 -1.1484 -1.2561
 1262TIP3    H227982   4.025   0.580  15.281 -0.4170 -1.7513 -2.6917
 1263TIP3   OH227983   6.501   5.502  17.156 -0.1791  0.1352 -0.2450
 1263TIP3    H127984   6.451   5.552  17.221 -0.8303  0.0535 -0.6808
 1263TIP3    H227985   6.435   5.455  17.106  0.3771 -0.4759 -0.4171
 1264TIP3   OH227986   4.833   2.542  13.677  0.9294  0.5089  0.2578
 1264TIP3    H127987   4.738   2.546  13.686  0.8618  1.7461 -0.7296
 1264TIP3    H227988   4.849   2.462  13.628  0.0999  1.8042 -2.3332
 1265TIP3   OH227989   5.381   2.461  14.349 -0.2983  0.1858  0.1295
 1265TIP3    H127990   5.319   2.471  14.422 -0.3060 -0.3394  0.2017
 1265TIP3    H227991   5.394   2.549  14.316  0.3209  0.5479  1.2773
 1266TIP3   OH227992   3.791   0.291  14.794  0.1674  0.1973 -0.3102
 1266TIP3    H127993   3.830   0.290  14.707  2.4769  1.0202  0.6492
 1266TIP3    H227994   3.842   0.356  14.843 -3.0949  2.2102  0.7974
 1267TIP3   OH227995   2.520   5.770  16.915  0.1723 -0.2853  0.2890
 1267TIP3    H127996   2.611   5.740  16.917  0.0881 -0.7725 -1.4881
 1267TIP3    H227997   2.469   5.690  16.903 -0.4850  0.0085  1.0550
 1268TIP3   OH227998   2.831   5.604  17.051  0.5423 -0.0455 -0.0485
 1268TIP3    H127999   2.870   5.565  16.972  1.8093 -1.7310  1.3308
 1268TIP3    H228000   2.905   5.646  17.095  0.0544  0.0074  0.7226
 1269TIP3   OH228001   1.337   3.185  16.869  0.2775 -0.2490 -0.2463
 1269TIP3    H128002   1.322   3.203  16.962 -1.5101 -1.3866 -0.2600
 1269TIP3    H228003   1.280   3.247  16.824  1.1534  0.3087 -0.5993
 1270TIP3   OH228004   5.352   3.931  15.549 -0.4207  0.0985  0.5528
 1270TIP3    H128005   5.296   4.009  15.551  1.6713  1.6806  1.3603
 1270TIP3    H228006   5.407   3.943  15.472  0.4135 -0.1939  1.0929
 1271TIP3   OH228007   0.627   6.407  16.327 -0.5542 -0.0050 -0.2575
 1271TIP3    H128008   0.594   6.349  16.259  0.6552  0.5902 -1.3958
 1271TIP3    H228009   0.722   6.391  16.329 -0.4361  0.6934  0.5934
 1272TIP3   OH228010   6.004   3.418  15.104 -0.0916  0.2371 -0.2188
 1272TIP3    H128011   6.059   3.490  15.073 -1.2858  1.3619  0.2148
 1272TIP3    H228012   6.065   3.359  15.148  0.7294  1.6499  0.5966
 1273TIP3   OH228013   4.910   3.807  15.100  0.3578  0.0462 -0.5296
 1273TIP3    H128014   4.921   3.842  15.188  1.2660  0.8711 -0.9490
 1273TIP3    H228015   4.999   3.781  15.074 -0.2035 -2.1904 -0.4161
 1274TIP3   OH228016   4.690   0.653  16.626 -0.3390 -0.5701  0.5462
 1274TIP3    H128017   4.667   0.581  16.568 -0.5140 -0.8259  0.9307
 1274TIP3    H228018   4.775   0.628  16.663 -1.2895 -1.5322  2.1899
 1275TIP3   OH228019   2.607   5.058  14.362 -0.0611  0.1757  0.3416
 1275TIP3    H128020   2.647   4.974  14.386  1.1128  0.4180 -0.6888
 1275TIP3    H228021   2.528   5.035  14.314  0.2755 -0.3358  0.0347
 1276TIP3   OH228022   1.915   0.765  16.414 -0.0895  0.3288 -0.0847
 1276TIP3    H128023   1.839   0.758  16.356 -0.2974  0.4362  0.1707
 1276TIP3    H228024   1.985   0.718  16.368 -0.0284  1.0730 -0.7806
 1277TIP3   OH228025   0.127   0.616  16.299  0.1704  0.0325 -0.4336
 1277TIP3    H128026   0.066   0.568  16.243 -1.6657  0.9964  0.6511
 1277TIP3    H228027   0.132   0.703  16.259 -2.2876  1.2074  1.5258
 1278TIP3   OH228028   3.914   5.833  14.726 -0.0490  0.9870 -0.0766
 1278TIP3    H128029   3.900   5.751  14.679  0.8965 -0.3576  1.8784
 1278TIP3    H228030   3.826   5.863  14.749 -0.3546  0.0246  0.0214
 1279TIP3   OH228031   4.387   1.755  16.188  0.4845 -0.1247  0.4191
 1279TIP3    H128032   4.469   1.716  16.159  0.6776  1.5295 -1.5385
 1279TIP3    H228033   4.333   1.758  16.108 -1.0436 -0.1159  1.4111
 1280TIP3   OH228034   3.920   3.135  16.862  0.0312 -0.1678  0.5550
 1280TIP3    H128035   3.927   3.065  16.797 -0.4413  0.6811 -0.4204
 1280TIP3    H228036   3.868   3.096  16.933  1.2447 -1.3723  0.8493
 1281TIP3   OH228037   0.513   5.636  15.699  0.2215 -0.6146  0.9787
 1281TIP3    H128038   0.515   5.631  15.603  0.3556  1.4253  0.8164
 1281TIP3    H228039   0.431   5.593  15.724  0.1357 -1.0879 -0.0497
 1282TIP3   OH228040   3.657   3.691  15.790  0.1052  0.1749 -0.1167
 1282TIP3    H128041   3.729   3.720  15.733 -1.4947  2.4090 -1.1593
 1282TIP3    H228042   3.654   3.756  15.860 -1.6513  0.8699 -0.7901
 1283TIP3   OH228043   5.277   0.271  14.070 -0.3220  0.4494 -0.4494
 1283TIP3    H128044   5.267   0.206  14.000 -0.5482 -1.9549  1.6710
 1283TIP3    H228045   5.193   0.269  14.116  0.9500 -0.7780  2.0275
 1284TIP3   OH228046   0.154   1.881  14.768 -0.1591 -0.0641  0.1362
 1284TIP3    H128047   0.100   1.960  14.772  0.0600  0.0638  0.7307
 1284TIP3    H228048   0.235   1.909  14.725 -0.3494 -0.1253 -0.2604
 1285TIP3   OH228049   6.205   4.498  14.940 -0.1160  0.1462 -0.0612
 1285TIP3    H128050   6.128   4.452  14.970 -0.4815  0.2206 -0.8594
 1285TIP3    H228051   6.272   4.480  15.006 -0.3468 -1.2365 -0.1922
 1286TIP3   OH228052   2.559   2.588  16.525  0.4348 -0.4065 -0.1823
 1286TIP3    H128053   2.627   2.541  16.477  0.9750 -0.4002  0.5408
 1286TIP3    H228054   2.479   2.571  16.477  0.7693 -1.3209 -0.4470
 1287TIP3   OH228055   3.752   4.873  14.791  0.5814 -0.1381  0.3987
 1287TIP3    H128056   3.746   4.893  14.884 -0.7395  0.7826  0.1466
 1287TIP3    H228057   3.816   4.936  14.757  0.2755  0.2320  0.5042
 1288TIP3   OH228058   3.968   6.344  16.441  0.0980 -0.3572 -0.6155
 1288TIP3    H128059   3.901   6.312  16.380 -0.0440 -0.6458 -0.3111
 1288TIP3    H228060   4.050   6.334  16.394 -0.1281  0.6014 -1.2415
 1289TIP3   OH228061   6.607   6.409  16.647  0.7730 -0.1513 -0.0919
 1289TIP3    H128062   6.543   6.347  16.681  1.0668  0.7933  2.3939
 1289TIP3    H228063   6.584   6.492  16.690  2.7721  0.5278 -0.2527
 1290TIP3   OH228064   1.167   1.491  15.581  0.0755 -0.0867 -0.0572
 1290TIP3    H128065   1.127   1.425  15.637 -0.1864 -0.5568 -0.7846
 1290TIP3    H228066   1.260   1.487  15.603 -0.0872  0.0882  0.6950
 1291TIP3   OH228067   1.767   1.960  13.987 -0.1319  0.2064 -0.2494
 1291TIP3    H128068   1.816   2.034  14.022 -0.0982  0.5668 -1.0548
 1291TIP3    H228069   1.820   1.929  13.913 -0.0966 -0.6809  0.1258
 1292TIP3   OH228070   5.623   2.950  16.505  0.2213 -0.3547 -0.5035
 1292TIP3    H128071   5.674   2.932  16.584 -0.1799  0.2733 -0.0990
 1292TIP3    H228072   5.653   2.884  16.442  1.4136 -0.0990 -0.2252
 1293TIP3   OH228073   2.830   2.498  13.652  0.0358 -0.0208  0.5632
 1293TIP3    H128074   2.813   2.411  13.616  0.6828 -0.1574  0.5657
 1293TIP3    H228075   2.888   2.539  13.588  0.0049  0.2789  0.7282
 1294TIP3   OH228076   0.154   4.987  14.881 -0.0398  0.2786 -0.3583
 1294TIP3    H128077   0.171   4.975  14.974 -1.6251  1.2500  0.1076
 1294TIP3    H228078   0.063   4.960  14.870 -0.1092  0.9120 -1.4703
 1295TIP3   OH228079   0.139   1.301  15.798 -0.1179  0.0189 -0.0998
 1295TIP3    H128080   0.202   1.261  15.858 -0.5466  0.2587  0.5292
 1295TIP3    H228081   0.105   1.229  15.746  0.7010 -0.1071 -0.4681
 1296TIP3   OH228082   2.654   0.457  17.131 -0.3689 -0.0935  0.2001
 1296TIP3    H128083   2.666   0.546  17.165 -0.7271  0.4728 -1.0879
 1296TIP3    H228084   2.741   0.428  17.107 -0.6613  2.1372 -4.6104
 1297TIP3   OH228085   1.108   6.591  16.896 -0.4690  0.0229  0.1703
 1297TIP3    H128086   1.102   6.495  16.898 -1.3088 -0.0009 -1.3606
 1297TIP3    H228087   1.025   6.621  16.933  0.1031  0.1925  1.3537
 1298TIP3   OH228088   4.555   5.685  15.400 -0.2651  0.4636 -0.3134
 1298TIP3    H128089   4.575   5.594  15.424 -1.1098  0.4414  0.3407
 1298TIP3    H228090   4.619   5.706  15.332 -0.2608 -0.7316 -0.7107
 1299TIP3   OH228091   6.331   0.598  15.903 -0.1728  0.6123 -0.3198
 1299TIP3    H128092   6.238   0.577  15.909  0.1456 -0.9293 -0.3963
 1299TIP3    H228093   6.360   0.557  15.821  0.7685  0.2305  0.1889
 1300TIP3   OH228094   3.175   0.639  16.603 -0.1352 -0.1288 -0.3862
 1300TIP3    H128095   3.167   0.560  16.656  0.8556 -0.1306 -0.2220
 1300TIP3    H228096   3.251   0.684  16.639 -1.0371  1.2158 -0.0661
 1301TIP3   OH228097   0.302   1.954  15.686  0.7071  0.0497  0.1212
 1301TIP3    H128098   0.292   1.999  15.602  1.5941 -1.0427 -0.5934
 1301TIP3    H228099   0.214   1.954  15.724  0.2889  0.5320 -0.8158
 1302TIP3   OH228100   3.541   2.914  14.305 -0.0346  0.1968 -0.1191
 1302TIP3    H128101   3.579   3.001  14.308  0.3077  0.0614 -0.4266
 1302TIP3    H228102   3.614   2.857  14.279 -0.0148 -0.3204  1.0069
 1303TIP3   OH228103   2.395   2.480  14.280  0.0161 -0.6953 -0.2054
 1303TIP3    H128104   2.442   2.522  14.208  2.2760 -0.0240  1.5442
 1303TIP3    H228105   2.456   2.415  14.314 -1.1124 -1.2017  0.9153
 1304TIP3   OH228106   1.647   3.247  13.298  0.1813  0.0177  0.0642
 1304TIP3    H128107   1.576   3.309  13.281 -0.5228  0.1894  3.1700
 1304TIP3    H228108   1.717   3.301  13.336  1.3453 -0.4452 -1.3138
 1305TIP3   OH228109   0.036   0.194  17.101  0.1351  0.4064  0.2028
 1305TIP3    H128110   0.001   0.180  17.013 -0.2380  0.0401  0.4072
 1305TIP3    H228111   0.047   0.289  17.108 -1.2994  0.5877  0.3178
 1306TIP3   OH228112   2.840   1.152  13.339 -0.3548  0.1418  0.3538
 1306TIP3    H128113   2.831   1.220  13.272  0.2070 -0.3736 -0.2593
 1306TIP3    H228114   2.929   1.119  13.328 -1.1899 -1.9750 -0.6197
 1307TIP3   OH228115   6.384   0.398  16.100 -0.0244  0.9905  0.3163
 1307TIP3    H128116   6.360   0.321  16.048  1.8539  0.4693  0.1332
 1307TIP3    H228117   6.384   0.470  16.037  1.8902  0.4254 -0.3839
 1308TIP3   OH228118   4.468   2.403  14.799 -0.3446  0.0917 -0.0291
 1308TIP3    H128119   4.418   2.480  14.828 -3.4057 -2.1987  1.3592
 1308TIP3    H228120   4.504   2.366  14.880  0.6087 -0.2554 -0.6016
 1309TIP3   OH228121   0.518   4.312  14.181 -0.4002  0.1507 -0.3075
 1309TIP3    H128122   0.499   4.245  14.247 -0.0189  0.4029  0.0599
 1309TIP3    H228123   0.446   4.304  14.118 -1.4554  0.7366  0.7841
 1310TIP3   OH228124   2.626   4.858  16.088 -0.4574  0.3510  0.4188
 1310TIP3    H128125   2.686   4.926  16.057  0.7761 -1.3298 -1.0807
 1310TIP3    H228126   2.669   4.776  16.065 -1.7199 -0.9765  2.5092
 1311TIP3   OH228127   0.899   2.399  14.246 -0.2114  0.3894  0.2270
 1311TIP3    H128128   0.926   2.490  14.251 -1.7647  0.9061 -0.0614
 1311TIP3    H228129   0.888   2.381  14.153 -0.1147 -0.0258  0.2914
 1312TIP3   OH228130   5.964   6.442  14.443 -0.3317 -0.3284  0.2761
 1312TIP3    H128131   5.964   6.534  14.418 -0.6703 -0.1319  0.9840
 1312TIP3    H228132   5.883   6.406  14.405 -2.3225  0.6062  3.2747
 1313TIP3   OH228133   1.615   3.582  16.347  0.3630 -0.8574 -0.1611
 1313TIP3    H128134   1.583   3.607  16.260  1.5556 -1.5270 -0.8209
 1313TIP3    H228135   1.677   3.651  16.371  2.0917 -2.0040 -1.0785
 1314TIP3   OH228136   0.705   3.176  16.049  0.8064  0.3668 -0.6427
 1314TIP3    H128137   0.784   3.230  16.053 -0.7759  2.9953 -2.4234
 1314TIP3    H228138   0.634   3.236  16.070 -0.9347 -1.4030 -1.2249
 1315TIP3   OH228139   0.995   4.983  14.136  0.3482 -0.1973  0.6199
 1315TIP3    H128140   0.903   5.001  14.119  0.1747  1.3338  2.7746
 1315TIP3    H228141   1.024   4.932  14.061 -1.8937  0.4609 -0.7782
 1316TIP3   OH228142   6.234   2.718  15.487 -0.4587 -0.5997 -0.1620
 1316TIP3    H128143   6.175   2.644  15.500  0.5594 -1.3292  0.4446
 1316TIP3    H228144   6.246   2.755  15.574 -0.2040 -0.3219 -0.3136
 1317TIP3   OH228145   0.148   3.665  15.927  0.4752  0.2981 -0.4082
 1317TIP3    H128146   0.121   3.723  15.856  2.2188  0.3251 -1.1087
 1317TIP3    H228147   0.194   3.722  15.989 -2.7001  0.6521  1.8400
 1318TIP3   OH228148   4.998   5.128  14.554 -0.5646 -0.0606  0.3286
 1318TIP3    H128149   5.061   5.063  14.585 -0.4848 -0.3281 -0.3774
 1318TIP3    H228150   4.956   5.087  14.478 -0.4274  0.7468 -0.1984
 1319TIP3   OH228151   4.668   1.293  17.162  0.1541 -0.7165  0.0124
 1319TIP3    H128152   4.762   1.312  17.168 -0.0076  0.1242  0.0571
 1319TIP3    H228153   4.656   1.216  17.217  0.5345  0.2376  1.4931
 1320TIP3   OH228154   2.401   1.026  15.514 -0.1541 -0.0616 -0.2214
 1320TIP3    H128155   2.322   1.048  15.466 -2.0039 -0.9177  2.2147
 1320TIP3    H228156   2.425   0.939  15.483 -1.0003 -0.3741 -0.0256
 1321TIP3   OH228157   5.197   4.823  13.712  0.5921 -0.2732 -0.3126
 1321TIP3    H128158   5.102   4.833  13.703  0.8107  0.7015 -2.0034
 1321TIP3    H228159   5.208   4.736  13.750 -0.9644 -0.6457 -0.6224
 1322TIP3   OH228160   2.689   0.976  14.597  0.6050 -0.4544 -0.6039
 1322TIP3    H128161   2.705   1.070  14.600  0.7808 -0.5081  0.2203
 1322TIP3    H228162   2.752   0.939  14.658  1.9633 -1.3210 -2.4441
 1323TIP3   OH228163   5.792   1.688  17.094 -0.4218  0.1416 -0.4636
 1323TIP3    H128164   5.879   1.725  17.076 -0.3717  0.5565  0.5782
 1323TIP3    H228165   5.761   1.659  17.008  0.3400  0.8666 -1.0079
 1324TIP3   OH228166   6.299   3.536  13.962 -0.1683  0.2547 -0.1540
 1324TIP3    H128167   6.366   3.568  14.022  1.5303 -2.3317 -0.5110
 1324TIP3    H228168   6.341   3.537  13.876 -1.5664  1.1710 -0.8548
 1325TIP3   OH228169   4.965   4.340  16.777  1.0922  0.5920  0.1460
 1325TIP3    H128170   4.936   4.307  16.863 -0.3994 -1.3971 -1.0234
 1325TIP3    H228171   4.988   4.261  16.728  3.6859  1.7995 -0.7519
 1326TIP3   OH228172   2.004   5.785  15.310  0.6027 -0.1719 -0.1921
 1326TIP3    H128173   2.069   5.719  15.285  1.2205  0.1249  0.5845
 1326TIP3    H228174   1.921   5.748  15.283  0.8616 -1.5895  0.8401
 1327TIP3   OH228175   1.177   4.321  14.866 -0.8554  0.3773  0.2746
 1327TIP3    H128176   1.118   4.289  14.798 -1.5525 -0.3762  1.2056
 1327TIP3    H228177   1.264   4.298  14.834 -1.2504 -1.3231  0.2869
 1328TIP3   OH228178   3.104   5.418  17.104 -0.0209 -0.0854 -0.2124
 1328TIP3    H128179   3.037   5.360  17.142  0.1145 -0.2811 -0.2709
 1328TIP3    H228180   3.092   5.408  17.010  0.5256 -0.6272 -0.2264
 1329TIP3   OH228181   1.665   5.459  14.276  0.2973 -0.3685  0.1807
 1329TIP3    H128182   1.595   5.522  14.290  0.6116 -0.3599  1.9992
 1329TIP3    H228183   1.745   5.508  14.298  0.8922 -0.4374 -1.6513
 1330TIP3   OH228184   5.054   5.091  15.764  0.1898 -0.5249 -0.2175
 1330TIP3    H128185   4.965   5.103  15.798  0.0224 -0.0467 -0.8102
 1330TIP3    H228186   5.049   5.118  15.673  0.8147 -1.0642 -0.4200
 1331TIP3   OH228187   3.568   2.446  16.555 -0.8272  0.0879 -0.0241
 1331TIP3    H128188   3.495   2.429  16.495 -0.8987 -1.9317  0.5667
 1331TIP3    H228189   3.641   2.467  16.498 -1.0744 -1.1040 -0.8149
 1332TIP3   OH228190   4.510   1.311  14.433  0.1620 -0.0649 -0.0948
 1332TIP3    H128191   4.471   1.227  14.457 -1.0629  0.1108 -1.3852
 1332TIP3    H228192   4.445   1.376  14.458  1.9753  0.8077  2.9831
 1333TIP3   OH228193   2.721   4.159  13.232 -0.3176 -0.1761  0.0179
 1333TIP3    H128194   2.792   4.204  13.185 -0.0202 -1.9202 -1.3433
 1333TIP3    H228195   2.651   4.153  13.167 -1.4377  0.7758  1.0900
 1334TIP3   OH228196   0.633   4.335  13.635  0.5821 -0.2175 -0.1005
 1334TIP3    H128197   0.576   4.262  13.612  0.5466 -0.5644  1.0064
 1334TIP3    H228198   0.581   4.413  13.617  0.3281 -0.4905 -0.5516
 1335TIP3   OH228199   2.750   6.183  15.256 -0.0874 -0.1660  0.5986
 1335TIP3    H128200   2.843   6.194  15.234  0.0918 -0.6131  1.0955
 1335TIP3    H228201   2.703   6.234  15.190  0.4610 -0.7212 -0.2421
 1336TIP3   OH228202   3.684   4.103  14.243 -0.1126  0.1216  0.2284
 1336TIP3    H128203   3.717   4.043  14.310  0.5302  0.6622  0.4088
 1336TIP3    H228204   3.622   4.051  14.193 -0.6009 -0.2981  1.2374
 1337TIP3   OH228205   5.805   4.481  14.722  0.3670 -0.0323  0.0734
 1337TIP3    H128206   5.869   4.409  14.726  0.2583 -0.2229 -1.3374
 1337TIP3    H228207   5.784   4.489  14.629  0.0291  1.5372  0.2710
 1338TIP3   OH228208   3.970   6.217  14.742  0.3996  0.3864 -0.3008
 1338TIP3    H128209   4.037   6.181  14.799  0.1145  0.9078  0.3750
 1338TIP3    H228210   3.898   6.241  14.801 -0.3827 -0.1613 -1.0075
 1339TIP3   OH228211   4.227   6.445  14.350 -0.2671 -0.2073  0.0742
 1339TIP3    H128212   4.168   6.437  14.274 -0.9711 -0.3688  0.6253
 1339TIP3    H228213   4.198   6.377  14.411 -0.0369  0.2463  0.7016
 1340TIP3   OH228214   0.329   1.432  16.184 -0.2655  0.1600  0.3850
 1340TIP3    H128215   0.394   1.496  16.213  0.2342 -0.4340  0.5794
 1340TIP3    H228216   0.299   1.466  16.099 -0.7355  1.1722  0.9369
 1341TIP3   OH228217   2.516   1.119  15.724 -0.0929  0.1810  0.2038
 1341TIP3    H128218   2.590   1.064  15.750 -0.0165  0.8748  1.5467
 1341TIP3    H228219   2.484   1.080  15.642 -0.9505 -2.7058  1.7969
 1342TIP3   OH228220   2.341   0.829  14.221  0.0887 -0.0252  0.3957
 1342TIP3    H128221   2.400   0.900  14.247  0.4110 -0.3097  0.4475
 1342TIP3    H228222   2.321   0.784  14.302  2.5583 -2.0492  0.0017
 1343TIP3   OH228223   1.332   6.677  16.752  0.0752 -0.0895  0.1045
 1343TIP3    H128224   1.279   6.681  16.831  0.4203  2.7925  0.2940
 1343TIP3    H228225   1.276   6.713  16.683  0.3543 -0.9925 -0.6042
 1344TIP3   OH228226   5.070   4.937  13.443  0.3349 -0.3993 -0.3003
 1344TIP3    H128227   5.020   4.899  13.516 -0.0987  0.8308  0.0564
 1344TIP3    H228228   5.073   4.867  13.378  0.3735 -1.3836  0.7260
 1345TIP3   OH228229   0.462   2.959  16.820 -0.0182 -0.7551  0.2689
 1345TIP3    H128230   0.369   2.980  16.823 -0.2059 -1.6043  0.8671
 1345TIP3    H228231   0.506   3.043  16.811 -0.8964 -0.4489 -1.5180
 1346TIP3   OH228232   0.284   1.675  16.537 -0.2457 -0.2035 -0.1747
 1346TIP3    H128233   0.251   1.727  16.610  1.4342  0.3260  0.2365
 1346TIP3    H228234   0.316   1.741  16.474 -0.1143 -0.6961 -0.6283
 1347TIP3   OH228235   5.163   6.331  16.842 -0.1733 -0.3841 -0.5803
 1347TIP3    H128236   5.200   6.260  16.790 -0.9078  0.8041 -2.8644
 1347TIP3    H228237   5.212   6.409  16.814 -1.5758  0.5373 -0.5653
 1348TIP3   OH228238   5.807   4.103  15.603  0.3825 -0.0939  0.2493
 1348TIP3    H128239   5.759   4.158  15.665  2.4595  1.2421  0.7484
 1348TIP3    H228240   5.756   4.022  15.599 -1.4334  0.9178  1.3738
 1349TIP3   OH228241   1.492   0.630  13.802  0.3219  0.5752 -0.1080
 1349TIP3    H128242   1.430   0.562  13.775 -1.1334  1.2342  1.3862
 1349TIP3    H228243   1.481   0.700  13.737  0.9564 -0.1112 -0.9697
 1350TIP3   OH228244   0.805   2.517  16.001  0.3604  0.5577 -0.3092
 1350TIP3    H128245   0.837   2.564  15.924 -0.4224  1.4148 -0.1352
 1350TIP3    H228246   0.818   2.579  16.074 -0.7074  0.5256 -0.0793
 1351TIP3   OH228247   6.631   5.383  14.416  0.5440  0.1445  0.8641
 1351TIP3    H128248   6.573   5.398  14.341  2.1077 -1.4200 -0.7667
 1351TIP3    H228249   6.593   5.435  14.486 -0.5532  2.3876 -1.2223
 1352TIP3   OH228250   2.772   3.926  16.677 -0.3765  0.1239  0.0043
 1352TIP3    H128251   2.690   3.921  16.627 -0.5805  0.8641  0.2518
 1352TIP3    H228252   2.819   3.999  16.638  0.8567 -1.2067 -1.1297
 1353TIP3   OH228253   0.076   0.869  14.538 -0.0226 -0.3072 -0.1627
 1353TIP3    H128254   0.142   0.812  14.499 -0.5740 -1.1899  0.1883
 1353TIP3    H228255  -0.005   0.818  14.537 -1.4662  1.7106 -3.2324
 1354TIP3   OH228256   6.187   5.929  16.862  0.5656 -0.0988 -0.2499
 1354TIP3    H128257   6.172   5.839  16.891  2.5858 -0.3788  0.0417
 1354TIP3    H228258   6.269   5.925  16.813  0.6686  1.5830 -0.2534
 1355TIP3   OH228259   3.108   6.314  17.316 -0.3476  0.5405 -0.3776
 1355TIP3    H128260   3.131   6.281  17.228 -0.3747  1.3068 -0.6797
 1355TIP3    H228261   3.016   6.339  17.309 -1.1120 -1.7144  0.5904
 1356TIP3   OH228262   3.656   4.760  14.399  0.2573 -0.1342  0.1932
 1356TIP3    H128263   3.615   4.683  14.359 -1.7619  1.1466 -0.3448
 1356TIP3    H228264   3.620   4.764  14.487  0.5613  0.0510  0.3118
 1357TIP3   OH228265   5.673   4.744  16.765 -0.2346 -0.1573  0.0160
 1357TIP3    H128266   5.634   4.828  16.787 -0.4631 -0.2234 -0.1379
 1357TIP3    H228267   5.616   4.679  16.807 -0.6932 -0.2878 -0.7904
 1358TIP3   OH228268   5.198   0.499  14.647 -0.2540  0.0711 -0.0388
 1358TIP3    H128269   5.155   0.416  14.668  0.3484  0.1366  1.5916
 1358TIP3    H228270   5.184   0.554  14.724  1.0106  0.8029 -0.2965
 1359TIP3   OH228271   2.193   0.540  16.596 -0.0912 -0.7151  0.4136
 1359TIP3    H128272   2.187   0.493  16.679  0.4857 -2.3511 -0.4419
 1359TIP3    H228273   2.170   0.475  16.530 -2.1885  0.9696 -0.6356
 1360TIP3   OH228274   0.456   4.690  14.763  0.3897 -0.0684  0.3806
 1360TIP3    H128275   0.422   4.669  14.850 -0.0058  1.4967  0.6347
 1360TIP3    H228276   0.513   4.766  14.777  2.3920 -1.3765 -0.3569
 1361TIP3   OH228277   2.762   2.531  15.182 -0.1153 -0.5439  0.4253
 1361TIP3    H128278   2.713   2.561  15.106 -0.4112 -0.8832  0.4858
 1361TIP3    H228279   2.845   2.578  15.176 -0.3943 -0.0644  0.2565
 1362TIP3   OH228280   1.788   4.410  13.858  0.1905 -0.4099 -0.1807
 1362TIP3    H128281   1.742   4.464  13.794 -0.3482 -1.2029 -0.4872
 1362TIP3    H228282   1.877   4.402  13.824  0.6380  1.3041  0.5163
 1363TIP3   OH228283   0.947   0.505  15.077  0.1265 -0.3948  0.4038
 1363TIP3    H128284   1.035   0.469  15.062  0.3491  0.7947 -1.5634
 1363TIP3    H228285   0.949   0.538  15.167  1.0249 -2.1188  1.0578
 1364TIP3   OH228286   5.357   4.062  16.674  0.2613  0.5322 -0.4689
 1364TIP3    H128287   5.349   4.069  16.579 -0.4549  1.6478 -0.3482
 1364TIP3    H228288   5.278   4.103  16.708  0.6334  0.3875  0.6190
 1365TIP3   OH228289   1.186   1.258  16.508 -0.2901 -0.8623 -0.0761
 1365TIP3    H128290   1.099   1.257  16.468  0.7353 -0.4854 -2.4216
 1365TIP3    H228291   1.246   1.238  16.437  1.8971  2.5801  0.5858
 1366TIP3   OH228292   4.540   3.382  16.585 -0.1495  0.2250 -0.2186
 1366TIP3    H128293   4.545   3.334  16.668 -2.2488  1.1263  0.5115
 1366TIP3    H228294   4.599   3.457  16.596 -0.3540  0.2964  0.4438
 1367TIP3   OH228295   0.652   0.392  14.255  0.1586 -0.0264  0.3429
 1367TIP3    H128296   0.726   0.437  14.214  1.1766  0.9935  3.0735
 1367TIP3    H228297   0.691   0.315  14.297  0.0451  1.2096  2.9271
 1368TIP3   OH228298   2.593   5.979  14.019 -0.3389  0.4073  0.0896
 1368TIP3    H128299   2.584   6.024  13.935  2.2342  1.6453  0.3690
 1368TIP3    H228300   2.628   5.892  13.995  0.8924  0.9439 -0.1314
 1369TIP3   OH228301   1.601   3.537  13.669  0.4047 -0.9576 -0.2882
 1369TIP3    H128302   1.637   3.449  13.678  2.1008 -0.1230  2.1786
 1369TIP3    H228303   1.658   3.579  13.605  0.3122 -1.2995 -0.5995
 1370TIP3   OH228304   6.462   2.904  14.187 -0.1583 -0.3214 -0.6046
 1370TIP3    H128305   6.474   2.864  14.101 -3.5445 -1.9547 -0.4999
 1370TIP3    H228306   6.411   2.839  14.236  0.5534  1.1115  2.2166
 1371TIP3   OH228307   0.604   2.550  15.119 -0.1101 -0.1054  0.4878
 1371TIP3    H128308   0.590   2.498  15.198 -1.0804  0.6643  0.8470
 1371TIP3    H228309   0.614   2.486  15.049  1.5126 -0.8318  1.3113
 1372TIP3   OH228310   4.812   2.317  15.016 -0.4492 -0.2213 -0.3905
 1372TIP3    H128311   4.834   2.229  14.987  0.0778  0.0269 -0.7486
 1372TIP3    H228312   4.716   2.316  15.025 -0.6109 -0.3589 -1.9173
 1373TIP3   OH228313   2.747   6.218  15.973  0.3762 -0.3473  0.2279
 1373TIP3    H128314   2.675   6.169  16.013 -0.4844  0.8181  0.1584
 1373TIP3    H228315   2.749   6.300  16.021  0.2507  0.5017 -1.1821
 1374TIP3   OH228316   3.227   3.157  14.150  0.2230  0.5409 -0.0380
 1374TIP3    H128317   3.263   3.170  14.063 -0.0974 -2.8940 -0.8310
 1374TIP3    H228318   3.132   3.152  14.137  0.1324  0.5397  0.5847
 1375TIP3   OH228319   2.419   5.034  15.009  0.9239 -0.4174 -0.6197
 1375TIP3    H128320   2.433   5.050  15.102  0.2846  1.7334 -0.8415
 1375TIP3    H228321   2.465   5.105  14.965  0.0206 -0.5693 -1.8764
 1376TIP3   OH228322   2.546   6.704  15.653  0.4962  0.0753 -0.2024
 1376TIP3    H128323   2.601   6.625  15.654  0.4870  0.0745  0.1714
 1376TIP3    H228324   2.607   6.774  15.628  0.8405  0.1997  0.9558
 1377TIP3   OH228325   4.000   1.084  14.986 -0.1682  0.7872  0.1780
 1377TIP3    H128326   3.923   1.041  14.948 -0.3018  0.0410  1.2408
 1377TIP3    H228327   3.964   1.138  15.056  0.1428  1.5808 -0.2678
 1378TIP3   OH228328   2.725   1.271  16.151 -0.2175  0.4242 -0.9950
 1378TIP3    H128329   2.637   1.286  16.118 -0.7201  1.6086  0.7681
 1378TIP3    H228330   2.781   1.326  16.096 -0.8161  1.1025 -0.9283
 1379TIP3   OH228331   6.436   4.509  13.246 -0.0231 -0.7266 -0.1006
 1379TIP3    H128332   6.440   4.585  13.303 -0.2441 -0.3682 -0.5536
 1379TIP3    H228333   6.373   4.450  13.288  0.5012 -0.8672  0.4906
 1380TIP3   OH228334   1.049   0.632  15.323  0.0722  0.0573  0.0456
 1380TIP3    H128335   1.067   0.606  15.413 -1.4871  0.0719  0.3894
 1380TIP3    H228336   1.134   0.630  15.280  0.7984 -0.2335  1.4406
 1381TIP3   OH228337   0.562   4.046  16.466  0.3421 -0.3561  0.0512
 1381TIP3    H128338   0.622   4.120  16.453  0.1971 -0.1275  0.6263
 1381TIP3    H228339   0.514   4.038  16.384 -0.6619  1.1264  0.4570
 1382TIP3   OH228340   1.768   4.622  13.680  0.3195  0.0171  0.0872
 1382TIP3    H128341   1.812   4.665  13.607  0.0929  0.6267  0.3008
 1382TIP3    H228342   1.681   4.663  13.683 -0.9237 -2.2930 -1.3709
 1383TIP3   OH228343   1.877   0.460  16.548 -0.4590 -0.4267  0.4106
 1383TIP3    H128344   1.911   0.544  16.576  0.8793 -0.4412 -1.0368
 1383TIP3    H228345   1.787   0.478  16.522 -0.0858  0.6568 -0.2114
 1384TIP3   OH228346   2.893   4.571  14.427  0.1429  0.6832 -0.6106
 1384TIP3    H128347   2.891   4.620  14.345 -1.2803 -1.1192 -1.7473
 1384TIP3    H228348   2.955   4.500  14.410  2.5978  2.2433  1.1876
 1385TIP3   OH228349   3.407   4.881  15.456 -0.8760 -0.0316  0.1460
 1385TIP3    H128350   3.376   4.941  15.524 -0.0698 -0.8314  1.2485
 1385TIP3    H228351   3.397   4.794  15.495 -0.0122 -0.4759 -0.6095
 1386TIP3   OH228352   3.767   1.306  16.740 -0.0009 -0.0334  0.2955
 1386TIP3    H128353   3.790   1.287  16.649 -2.9779  0.6357 -0.7327
 1386TIP3    H228354   3.798   1.231  16.789  0.0454 -1.3229 -1.5914
 1387TIP3   OH228355   2.552   6.322  15.111 -0.4480  0.3741 -0.2082
 1387TIP3    H128356   2.526   6.323  15.019 -1.0301 -2.1598 -0.1560
 1387TIP3    H228357   2.471   6.338  15.159 -0.4553  0.1484 -0.1417
 1388TIP3   OH228358   2.775   3.573  15.239 -0.0729  0.5993  0.2141
 1388TIP3    H128359   2.763   3.614  15.153  1.0292 -0.2660 -0.3727
 1388TIP3    H228360   2.732   3.634  15.300  0.9285  2.2916 -0.6831
 1389TIP3   OH228361   0.972   4.674  14.559 -0.5168 -0.1775 -0.0473
 1389TIP3    H128362   0.898   4.613  14.564 -0.0905 -0.7460 -0.6062
 1389TIP3    H228363   0.983   4.705  14.649 -0.1172 -1.6756  0.4428
 1390TIP3   OH228364   4.660   1.941  16.854  0.3824  0.1049 -0.2976
 1390TIP3    H128365   4.587   1.974  16.906  0.5356 -0.9761  0.6603
 1390TIP3    H228366   4.722   2.013  16.851 -0.3660  0.7507 -0.4133
 1391TIP3   OH228367   1.722   5.008  14.582  0.1479  0.2950 -0.3152
 1391TIP3    H128368   1.641   5.046  14.616  0.6943  1.0647  0.1537
 1391TIP3    H228369   1.791   5.066  14.614  0.8257  0.0926 -1.3560
 1392TIP3   OH228370   3.842   3.100  13.934 -0.2068  0.0646 -0.2712
 1392TIP3    H128371   3.884   3.169  13.986 -1.1125  0.4288  0.0118
 1392TIP3    H228372   3.848   3.131  13.844 -1.3444  0.9390 -0.0638
 1393TIP3   OH228373   3.375   0.603  14.983 -0.1457  0.2890  0.2103
 1393TIP3    H128374   3.451   0.660  14.968 -0.6118  1.2055  1.1671
 1393TIP3    H228375   3.402   0.517  14.952  0.6722  0.9786 -1.0712
 1394TIP3   OH228376   1.938   5.646  15.624 -0.0751 -0.0642 -0.2079
 1394TIP3    H128377   1.966   5.557  15.603  0.8446  0.3244 -0.6923
 1394TIP3    H228378   1.870   5.635  15.690 -1.1985 -1.2009 -1.4936
 1395TIP3   OH228379   1.666   3.610  14.075 -0.2246 -0.8786  0.6356
 1395TIP3    H128380   1.587   3.568  14.110 -0.9247 -0.1107 -0.0017
 1395TIP3    H228381   1.677   3.689  14.127 -0.2409 -0.6504  0.2912
 1396TIP3   OH228382   2.679   0.994  14.158  0.1423  0.0299 -0.2834
 1396TIP3    H128383   2.641   1.080  14.143 -1.3157 -0.2658  1.3754
 1396TIP3    H228384   2.768   1.012  14.190 -0.5937  1.0209  1.3554
 1397TIP3   OH228385   3.831   6.212  14.503  0.3856 -0.2529  0.7924
 1397TIP3    H128386   3.887   6.245  14.432 -0.9012 -0.3685 -0.3295
 1397TIP3    H228387   3.888   6.210  14.580  1.6029  0.6935 -0.0396
 1398TIP3   OH228388   3.934   2.851  14.035  0.0626 -0.2174 -0.4814
 1398TIP3    H128389   3.908   2.784  13.972 -1.4690  0.0480 -0.1872
 1398TIP3    H228390   3.904   2.933  13.997  0.4120  0.1095 -0.0698
 1399TIP3   OH228391   4.279   1.115  17.150  0.5827 -0.1469 -0.0389
 1399TIP3    H128392   4.263   1.021  17.165 -1.7855 -0.0447 -1.3471
 1399TIP3    H228393   4.343   1.139  17.216 -0.3792 -2.2173  1.8138
 1400TIP3   OH228394   6.528   4.458  16.687 -0.5432  0.3268  0.3314
 1400TIP3    H128395   6.514   4.393  16.755 -0.3983 -0.2971 -0.2122
 1400TIP3    H228396   6.572   4.530  16.731 -1.6476  0.5086  1.1600
 1401TIP3   OH228397   3.377   4.152  16.092  0.0111 -0.2927  0.0993
 1401TIP3    H128398   3.321   4.226  16.115 -0.6581 -0.6269 -0.4263
 1401TIP3    H228399   3.403   4.115  16.177  1.6227  1.4458  0.4228
 1402TIP3   OH228400   4.897   2.432  15.583 -0.3658  0.5277 -0.2062
 1402TIP3    H128401   4.816   2.482  15.587 -0.7337 -0.0792  0.0560
 1402TIP3    H228402   4.889   2.380  15.503 -0.2254  0.4766 -0.1868
 1403TIP3   OH228403   0.642   0.114  14.308  0.0959 -0.1176  0.8267
 1403TIP3    H128404   0.554   0.129  14.273  0.5527 -0.9215 -0.7325
 1403TIP3    H228405   0.628   0.057  14.384 -0.9605  2.1034  2.3844
 1404TIP3   OH228406   4.321   1.884  13.915  0.2813  0.4384  0.5583
 1404TIP3    H128407   4.401   1.881  13.967  1.4108 -0.0523 -1.1214
 1404TIP3    H228408   4.339   1.828  13.840 -0.6917  2.2925 -1.1604
 1405TIP3   OH228409   6.269   2.987  15.351 -0.8367 -0.0367  0.0130
 1405TIP3    H128410   6.247   2.912  15.405 -1.3031  0.4695  0.5378
 1405TIP3    H228411   6.203   2.987  15.281 -1.8918  0.8422  0.9652
 1406TIP3   OH228412   3.834   6.263  15.914  0.3411 -0.6613  0.2992
 1406TIP3    H128413   3.863   6.215  15.837 -0.2724  3.1089 -2.6165
 1406TIP3    H228414   3.906   6.323  15.933 -0.1628 -0.4641  1.6860
 1407TIP3   OH228415   3.459   1.562  14.071  0.2196 -0.1951  0.1016
 1407TIP3    H128416   3.471   1.479  14.118  1.1652 -0.9923 -1.4966
 1407TIP3    H228417   3.537   1.613  14.092 -0.2246  0.2205  0.8409
 1408TIP3   OH228418   2.018   2.117  16.661  0.1475 -0.4134 -0.3361
 1408TIP3    H128419   2.064   2.118  16.745  1.3309  1.0237 -0.9615
 1408TIP3    H228420   2.007   2.024  16.641 -0.0750 -0.7787  1.3481
 1409TIP3   OH228421   1.524   2.639  13.539 -0.2221 -0.3423 -0.0723
 1409TIP3    H128422   1.534   2.733  13.555  0.9716 -0.5023  0.1808
 1409TIP3    H228423   1.459   2.634  13.468  0.6812  0.7414 -1.0137
 1410TIP3   OH228424   5.232   3.854  16.541  0.0675  0.2200 -0.2805
 1410TIP3    H128425   5.294   3.879  16.609  0.3767 -0.9772 -0.1017
 1410TIP3    H228426   5.270   3.888  16.460  0.2034  0.7752  0.0111
 1411TIP3   OH228427   2.058   0.058  14.138 -0.3887 -0.5017  0.7231
 1411TIP3    H128428   2.151   0.082  14.141  0.1453 -2.1438 -0.6918
 1411TIP3    H228429   2.047  -0.000  14.214 -0.3652 -0.0281  1.0962
 1412TIP3   OH228430   1.370   5.885  16.344  0.1801 -0.2058 -0.2472
 1412TIP3    H128431   1.374   5.805  16.292 -0.2579 -0.9780  0.8559
 1412TIP3    H228432   1.405   5.860  16.429 -0.5146  0.6133  0.2981
 1413TIP3   OH228433   3.495   6.130  15.102 -0.0691 -0.3812 -0.2053
 1413TIP3    H128434   3.579   6.084  15.103 -0.6829 -1.5461  0.7224
 1413TIP3    H228435   3.485   6.159  15.011  0.0486 -2.6905 -1.0116
 1414TIP3   OH228436   3.082   1.439  16.560  0.4048 -0.3397  0.1814
 1414TIP3    H128437   3.167   1.396  16.556  0.7000  0.3000 -0.6177
 1414TIP3    H228438   3.028   1.392  16.496 -0.0701 -1.1829  1.1612
 1415TIP3   OH228439   0.398   3.079  14.871  0.0425  0.2146 -0.2817
 1415TIP3    H128440   0.308   3.055  14.851 -0.0643  1.1594 -1.0031
 1415TIP3    H228441   0.412   3.160  14.823  1.2913  0.0637 -0.1933
 1416TIP3   OH228442   5.190   1.570  15.449  0.6851  0.7193  0.6551
 1416TIP3    H128443   5.247   1.503  15.414 -0.5760 -1.2026  2.0823
 1416TIP3    H228444   5.235   1.653  15.430  2.4974 -0.5199 -0.7595
 1417TIP3   OH228445   3.872   6.722  16.871  0.4578 -0.4056 -0.2330
 1417TIP3    H128446   3.930   6.673  16.814  0.3256 -2.0018  0.9480
 1417TIP3    H228447   3.787   6.717  16.829 -0.2012 -3.7093  1.1960
 1418TIP3   OH228448   0.318   1.466  16.978 -0.1975  0.5464 -0.1113
 1418TIP3    H128449   0.329   1.551  16.935  1.4550  0.8813  0.8741
 1418TIP3    H228450   0.401   1.422  16.965 -1.5015 -1.5683 -1.8386
 1419TIP3   OH228451   5.657   2.156  16.610 -0.1957  0.1125 -0.0061
 1419TIP3    H128452   5.601   2.227  16.643 -0.1243  0.3670 -0.4252
 1419TIP3    H228453   5.717   2.199  16.549 -0.3100 -0.3535 -0.4520
 1420TIP3   OH228454   6.311   4.718  14.410  1.0504  0.0508  0.2512
 1420TIP3    H128455   6.288   4.807  14.382  1.6041  0.6235  1.5712
 1420TIP3    H228456   6.236   4.689  14.462 -0.2279 -1.2272 -2.1172
 1421TIP3   OH228457   4.455   4.667  13.801  0.1343 -0.1247  0.1678
 1421TIP3    H128458   4.393   4.711  13.744  0.1238  1.1429  1.1172
 1421TIP3    H228459   4.441   4.706  13.887  1.4615 -0.6247  0.6445
 1422TIP3   OH228460   3.356   2.764  16.670 -0.7194  0.6828  0.2552
 1422TIP3    H128461   3.298   2.719  16.610  0.6310  1.3304 -1.6143
 1422TIP3    H228462   3.362   2.706  16.746 -2.6366 -0.0542 -0.0994
 1423TIP3   OH228463   6.186   0.588  15.310 -0.0953 -0.2863 -0.2299
 1423TIP3    H128464   6.222   0.671  15.341 -0.1871 -0.9722  1.7922
 1423TIP3    H228465   6.262   0.531  15.301 -0.2112 -0.4740 -0.0229
 1424TIP3   OH228466   1.219   1.909  15.744  0.1379 -0.6755 -0.1012
 1424TIP3    H128467   1.218   1.830  15.798 -0.7489  0.2590  1.3011
 1424TIP3    H228468   1.231   1.981  15.806 -1.2445  0.4636 -1.0810
 1425TIP3   OH228469   0.793   4.940  14.835 -0.2680 -0.0011 -0.7540
 1425TIP3    H128470   0.704   4.963  14.810  0.0036 -2.0558 -4.4008
 1425TIP3    H228471   0.848   5.000  14.784  0.4451  0.0594  0.0667
 1426TIP3   OH228472   2.842   1.032  17.190  0.4656 -0.5512 -0.3574
 1426TIP3    H128473   2.889   1.114  17.175 -0.9092  0.5423  1.0327
 1426TIP3    H228474   2.756   1.045  17.149  0.6032 -1.7409 -1.0803
 1427TIP3   OH228475   3.197   1.960  16.882 -0.3697 -0.4415  0.3872
 1427TIP3    H128476   3.110   1.976  16.845 -0.1087 -0.5064 -0.2503
 1427TIP3    H228477   3.217   1.870  16.857  0.5606  0.0823 -0.8455
 1428TIP3   OH228478   5.619   6.167  13.618  0.6719  0.2411  0.0818
 1428TIP3    H128479   5.694   6.216  13.653  0.4615  0.3761  0.3493
 1428TIP3    H228480   5.556   6.235  13.593  0.5271  0.1194  0.1156
 1429TIP3   OH228481   6.003   4.054  15.142  0.1784  0.1113 -0.1075
 1429TIP3    H128482   6.033   3.963  15.130  2.3373  0.5029  1.5899
 1429TIP3    H228483   6.022   4.097  15.059 -0.7126 -0.9493 -0.8774
 1430TIP3   OH228484   4.307   0.441  16.213 -0.0889 -0.0997  0.3661
 1430TIP3    H128485   4.283   0.462  16.123  1.8632 -0.9536 -0.4231
 1430TIP3    H228486   4.287   0.520  16.263 -2.3906 -0.0540 -0.5340
 1431TIP3   OH228487   3.594   2.458  15.074  0.3220 -0.4274 -0.0321
 1431TIP3    H128488   3.660   2.404  15.031  0.3413  0.5640 -1.2859
 1431TIP3    H228489   3.518   2.400  15.083  0.2666 -0.6209 -1.5375
 1432TIP3   OH228490   1.300   2.219  14.938 -0.2669 -0.1306 -0.3965
 1432TIP3    H128491   1.210   2.211  14.906 -1.0586 -1.2931  1.8683
 1432TIP3    H228492   1.342   2.137  14.912 -0.0740  0.1259 -0.8839
 1433TIP3   OH228493   3.444   4.691  15.060  0.0527 -0.0223 -0.0983
 1433TIP3    H128494   3.359   4.646  15.067  0.0991 -0.3303 -1.2761
 1433TIP3    H228495   3.508   4.627  15.093 -0.3340  1.0317  3.0556
 1434TIP3   OH228496   4.446   1.174  15.623 -0.1019 -0.3556 -0.1013
 1434TIP3    H128497   4.399   1.162  15.540  0.8008  0.0965 -0.7037
 1434TIP3    H228498   4.531   1.209  15.597  0.1271 -0.0179  1.0410
 1435TIP3   OH228499   2.549   5.497  16.093 -0.4485  0.1140  0.1519
 1435TIP3    H128500   2.489   5.571  16.082 -1.5464 -0.5786  1.1686
 1435TIP3    H228501   2.506   5.442  16.159  0.7396 -1.0174  0.0086
 1436TIP3   OH228502   3.628   1.885  16.316 -0.3691 -0.3336 -0.1619
 1436TIP3    H128503   3.667   1.912  16.233 -0.0414  0.7651  0.3251
 1436TIP3    H228504   3.676   1.806  16.341  0.0894 -0.2049 -0.6193
 1437TIP3   OH228505   4.812   2.830  13.710  0.0194 -0.3113 -0.0465
 1437TIP3    H128506   4.734   2.877  13.681  0.3303  0.1168 -0.2037
 1437TIP3    H228507   4.791   2.737  13.698  0.1676 -0.1498 -1.7500
 1438TIP3   OH228508   3.064   2.150  17.090 -0.2075  0.0276  0.1729
 1438TIP3    H128509   3.087   2.238  17.119  2.6175 -0.8907  1.0473
 1438TIP3    H228510   3.112   2.138  17.009 -1.1214 -0.5047 -0.3121
 1439TIP3   OH228511   3.167   3.676  16.723  0.2325 -0.3557  0.0327
 1439TIP3    H128512   3.154   3.755  16.774  0.4468 -0.7133  0.6455
 1439TIP3    H228513   3.094   3.675  16.661 -1.1446 -0.8984  1.5869
 1440TIP3   OH228514   4.141   5.466  15.899 -0.2471 -0.1432  0.1908
 1440TIP3    H128515   4.210   5.500  15.955 -2.4531  0.6917  2.6356
 1440TIP3    H228516   4.123   5.379  15.933 -0.5915 -0.2427 -0.2315
 1441TIP3   OH228517   4.903   2.700  14.196 -0.5369 -0.3981 -0.0496
 1441TIP3    H128518   4.915   2.786  14.156 -1.5818  0.9784  2.3863
 1441TIP3    H228519   4.810   2.696  14.216 -0.2491 -1.4929  1.1850
 1442TIP3   OH228520   2.372   1.323  17.495  0.2628  0.4156  0.3635
 1442TIP3    H128521   2.334   1.374  17.566  3.0691  1.1240  1.4958
 1442TIP3    H228522   2.418   1.252  17.538  0.0948 -0.5163 -0.9364
 1443TIP3   OH228523   5.242   6.336  16.158 -0.7293 -0.6878  0.0102
 1443TIP3    H128524   5.283   6.250  16.164 -1.4878 -1.0388  0.3239
 1443TIP3    H228525   5.151   6.318  16.134 -0.7392  0.0661 -0.5696
 1444TIP3   OH228526   0.169   5.970  16.224 -0.4266 -0.2059 -0.1661
 1444TIP3    H128527   0.088   5.969  16.173 -0.7189 -0.3444  0.3019
 1444TIP3    H228528   0.237   5.944  16.161 -0.3420  2.2782 -1.2343
 1445TIP3   OH228529   2.931   1.740  15.904  0.1159  0.6934 -0.3612
 1445TIP3    H128530   2.917   1.834  15.895 -0.4558  0.5307 -1.3583
 1445TIP3    H228531   2.855   1.709  15.953 -0.2509  0.6132 -0.9612
 1446TIP3   OH228532   0.238   1.893  16.695  0.0886 -0.2073  0.2148
 1446TIP3    H128533   0.239   1.980  16.655 -0.3548  0.0339  0.7148
 1446TIP3    H228534   0.174   1.900  16.765  0.0069 -0.9604  0.2196
 1447TIP3   OH228535   0.929   5.396  14.423 -0.1524  0.1282 -0.7313
 1447TIP3    H128536   0.988   5.341  14.372  0.5392  1.0391 -0.9446
 1447TIP3    H228537   0.859   5.420  14.362  1.5053  2.5336 -1.8038
 1448TIP3   OH228538   3.016   1.069  15.486 -0.4844 -0.0116  0.1721
 1448TIP3    H128539   2.937   1.017  15.469 -1.2977  1.4698 -0.7869
 1448TIP3    H228540   3.043   1.100  15.400 -1.8268  3.6480  0.8662
 1449TIP3   OH228541   2.540   1.368  14.371 -0.0424 -0.3494 -0.2052
 1449TIP3    H128542   2.585   1.358  14.454 -0.3570 -0.9482 -0.1022
 1449TIP3    H228543   2.522   1.462  14.364  0.3491 -0.2432  0.2055
 1450TIP3   OH228544   3.933   0.291  14.565 -0.2452  0.2845  0.3646
 1450TIP3    H128545   3.976   0.376  14.569  1.3723 -0.5468  2.2833
 1450TIP3    H228546   3.960   0.254  14.481 -0.1477  1.2426 -0.0361
 1451TIP3   OH228547   3.501   1.503  14.373 -0.1537  0.1484  0.0604
 1451TIP3    H128548   3.518   1.591  14.406  0.7088  0.1229 -0.3001
 1451TIP3    H228549   3.410   1.486  14.396 -1.1469  2.1107 -2.0028
 1452TIP3   OH228550   4.410   3.828  16.817 -0.1861 -0.0186  0.2482
 1452TIP3    H128551   4.356   3.838  16.738 -0.0503  0.7841  0.2455
 1452TIP3    H228552   4.359   3.872  16.885  0.2944  0.4406  0.3179
 1453TIP3   OH228553   2.528   3.537  16.136 -0.1702 -0.1857 -0.3025
 1453TIP3    H128554   2.461   3.472  16.159 -0.7253  0.2600 -0.6345
 1453TIP3    H228555   2.567   3.504  16.054  1.1278 -1.2630  0.7061
 1454TIP3   OH228556   5.550   4.234  16.053 -0.4497 -0.4385 -0.0706
 1454TIP3    H128557   5.498   4.269  16.125  0.1440  0.7783 -0.1951
 1454TIP3    H228558   5.549   4.304  15.987 -1.0902 -1.5718 -1.3118
 1455TIP3   OH228559   3.071   4.051  16.183  0.4095  0.4156  0.3836
 1455TIP3    H128560   2.991   3.999  16.173  0.0075  1.0634  0.1596
 1455TIP3    H228561   3.131   4.016  16.118 -0.0985  0.6729 -0.2324
 1456TIP3   OH228562   6.272   4.804  15.821 -0.3116  0.0499  0.3823
 1456TIP3    H128563   6.351   4.812  15.875 -0.4552 -0.2941  0.6482
 1456TIP3    H228564   6.207   4.765  15.880 -0.3665 -0.6616 -0.1421
 1457TIP3   OH228565   6.431   3.614  15.469 -0.0385  0.4837 -0.4055
 1457TIP3    H128566   6.527   3.608  15.461  0.1238  2.9918 -1.1693
 1457TIP3    H228567   6.399   3.591  15.382 -0.0630  0.7405 -0.4637
 1458TIP3   OH228568   3.959   0.799  16.846 -0.3262 -0.3108  0.5616
 1458TIP3    H128569   3.942   0.754  16.762  0.4198  0.8358 -0.2301
 1458TIP3    H228570   4.053   0.812  16.847 -0.3773  0.0330  1.4178
 1459TIP3   OH228571   3.998   5.745  15.833  0.0747 -0.3075 -0.8269
 1459TIP3    H128572   3.903   5.754  15.834  0.0678 -0.3768 -0.8202
 1459TIP3    H228573   4.018   5.687  15.907 -0.0253 -1.6464 -1.8044
 1460TIP3   OH228574   6.513   6.114  14.359 -0.4508 -0.1540 -0.1388
 1460TIP3    H128575   6.567   6.093  14.435 -1.1097  1.2354  0.7584
 1460TIP3    H228576   6.554   6.066  14.287 -0.1753 -2.0395  1.1738
 1461TIP3   OH228577   1.029   6.621  16.322 -0.2864 -0.4922  0.1122
 1461TIP3    H128578   1.054   6.646  16.233  0.7817 -0.8257  0.2985
 1461TIP3    H228579   1.051   6.528  16.328 -2.4243 -1.0538  0.0373
 1462TIP3   OH228580   3.168   5.655  13.951  0.3673 -0.2727 -0.0632
 1462TIP3    H128581   3.111   5.579  13.964  1.6271 -1.4793 -1.2493
 1462TIP3    H228582   3.115   5.716  13.900 -0.9166 -0.0011  1.5315
 1463TIP3   OH228583   2.935   3.189  14.918 -0.2763 -0.3928  0.2632
 1463TIP3    H128584   3.014   3.243  14.919  0.6366 -1.6792  0.3021
 1463TIP3    H228585   2.883   3.222  14.991 -0.4507  1.4013 -0.6162
 1464TIP3   OH228586   3.702   1.408  13.896  0.2787  0.2171 -0.2843
 1464TIP3    H128587   3.612   1.375  13.904  0.4086  0.0646  0.7154
 1464TIP3    H228588   3.733   1.373  13.813 -1.0707  1.5030 -1.3824
 1465TIP3   OH228589   5.759   2.652  15.137 -0.2865 -0.0712 -0.2258
 1465TIP3    H128590   5.688   2.707  15.106 -0.9118 -0.3821  0.6155
 1465TIP3    H228591   5.758   2.663  15.232  2.9614  2.5798 -0.3046
 1466TIP3   OH228592   6.603   2.112  16.764  0.0496  0.2062 -0.6791
 1466TIP3    H128593   6.568   2.073  16.684 -2.0475  0.3209  0.1292
 1466TIP3    H228594   6.574   2.204  16.760 -0.8875 -0.0167  0.6298
 1467TIP3   OH228595   5.499   5.905  14.983 -0.0977  0.0420 -0.0522
 1467TIP3    H128596   5.509   5.870  14.895 -1.3533  0.8139 -0.5276
 1467TIP3    H228597   5.419   5.865  15.016 -1.1579  1.8268 -0.3284
 1468TIP3   OH228598   1.095   1.232  15.440  0.3690 -0.1132 -0.5249
 1468TIP3    H128599   1.115   1.270  15.354 -1.5917 -1.6612 -1.7376
 1468TIP3    H228600   1.073   1.141  15.422  2.9791 -1.4133  2.0541
 1469TIP3   OH228601   2.392   3.588  15.507 -0.4511 -0.4128 -0.2440
 1469TIP3    H128602   2.483   3.618  15.516 -0.6814 -0.1502  1.8132
 1469TIP3    H228603   2.384   3.518  15.572 -1.5870 -0.8132 -0.7881
 1470TIP3   OH228604   6.535   3.165  16.793  0.4975  0.7048 -0.1737
 1470TIP3    H128605   6.581   3.182  16.875  1.8893  0.7352 -0.9243
 1470TIP3    H228606   6.476   3.239  16.782 -0.2802  0.3237  1.1619
 1471TIP3   OH228607   3.577   5.347  13.983  0.1106  0.0501  0.2153
 1471TIP3    H128608   3.486   5.340  13.956 -0.2889  1.5430  1.1000
 1471TIP3    H228609   3.618   5.402  13.917  0.0892  0.3318  0.4328
 1472TIP3   OH228610   3.184   6.028  17.333  0.1279  0.2040  0.0350
 1472TIP3    H128611   3.131   6.105  17.354 -0.8253 -0.3921 -0.1233
 1472TIP3    H228612   3.244   6.057  17.264  0.6767  1.1451  0.8777
 1473TIP3   OH228613   1.728   0.574  13.934  0.1978  0.0961 -0.4854
 1473TIP3    H128614   1.735   0.581  14.029  0.4118  0.6614 -0.5391
 1473TIP3    H228615   1.639   0.606  13.915 -0.7906 -2.3363 -0.2635
 1474TIP3   OH228616   3.927   5.081  14.687 -0.0135  0.1989 -0.0610
 1474TIP3    H128617   3.919   5.121  14.601 -0.3280  0.5376  0.1236
 1474TIP3    H228618   4.006   5.121  14.724  0.1641 -0.0030 -0.2211
 1475TIP3   OH228619   1.570   3.141  15.960 -0.1183  0.2093 -0.1968
 1475TIP3    H128620   1.562   3.229  15.996  0.6235 -0.3721  1.4725
 1475TIP3    H228621   1.481   3.106  15.962 -0.3285  0.7246 -0.3848
 1476TIP3   OH228622   1.988   1.157  16.590  0.1655 -0.1304 -0.8584
 1476TIP3    H128623   2.006   1.106  16.511 -0.0650 -1.4311 -0.0981
 1476TIP3    H228624   2.067   1.209  16.604  1.0423 -1.4543 -0.7754
 1477TIP3   OH228625   5.867   5.360  16.400  0.1253  0.3569  0.1261
 1477TIP3    H128626   5.938   5.347  16.337 -1.5151 -1.1911 -1.4923
 1477TIP3    H228627   5.859   5.277  16.446  0.0860  0.8849  1.1029
 1478TIP3   OH228628   4.292   3.554  15.285  0.3851  0.2879  0.3052
 1478TIP3    H128629   4.349   3.626  15.314 -0.2374  1.2032 -0.6372
 1478TIP3    H228630   4.333   3.522  15.205  0.0217  0.4147  0.0623
 1479TIP3   OH228631   3.360   6.068  14.260  0.2944  0.1078 -0.7729
 1479TIP3    H128632   3.345   6.108  14.174  0.9804  0.0081 -0.9496
 1479TIP3    H228633   3.427   6.002  14.244 -0.4853 -0.8009 -0.3962
 1480TIP3   OH228634   4.803   1.396  16.240  0.0070  0.4155  0.2241
 1480TIP3    H128635   4.849   1.401  16.156  0.3724 -2.4885  0.1515
 1480TIP3    H228636   4.827   1.311  16.275 -4.0494 -0.6579  0.9184
 1481TIP3   OH228637   0.668   6.050  16.255 -0.3095 -0.2914  0.0768
 1481TIP3    H128638   0.663   5.964  16.295  0.8347 -0.5087 -0.2093
 1481TIP3    H228639   0.654   6.111  16.327 -2.2340 -0.6996  0.0984
 1482TIP3   OH228640   1.435   0.921  16.061 -0.7104  0.6522  0.3255
 1482TIP3    H128641   1.418   0.827  16.049  1.1908 -0.0092  2.1375
 1482TIP3    H228642   1.387   0.943  16.141  0.7232  0.6026  1.2280
 1483TIP3   OH228643   0.359   4.588  14.412 -0.1785  0.4171  0.1725
 1483TIP3    H128644   0.427   4.579  14.478 -2.3404  0.8933  2.6176
 1483TIP3    H228645   0.376   4.674  14.372  2.4895 -0.8187 -1.6791
 1484TIP3   OH228646   6.030   3.945  13.283 -0.4404  0.4893 -0.1059
 1484TIP3    H128647   6.023   3.960  13.377 -1.2168  1.7925 -0.3374
 1484TIP3    H228648   5.959   3.884  13.264  2.9447 -4.2665  0.8967
 1485TIP3   OH228649   2.601   5.778  15.921 -0.1040 -0.8118 -0.8247
 1485TIP3    H128650   2.584   5.869  15.946  1.8231 -0.9705  1.3536
 1485TIP3    H228651   2.529   5.729  15.960 -0.1941 -0.4276 -0.4993
 1486TIP3   OH228652   5.391   2.904  15.141 -0.5719  0.1621  0.3543
 1486TIP3    H128653   5.330   2.899  15.215 -1.7195 -0.5875 -0.6112
 1486TIP3    H228654   5.470   2.861  15.173 -1.0729 -0.2052  1.1472
 1487TIP3   OH228655   5.445   4.478  16.433  0.0606 -0.5434  0.1025
 1487TIP3    H128656   5.513   4.540  16.409  0.8061 -1.1434  0.5860
 1487TIP3    H228657   5.493   4.405  16.473 -0.9914 -0.0799  2.3823
 1488TIP3   OH228658   0.560   0.628  14.610  0.4970 -0.2420  0.2519
 1488TIP3    H128659   0.557   0.619  14.515  0.1126 -0.5387  0.2895
 1488TIP3    H228660   0.641   0.584  14.636  0.2616 -0.7579  0.1246
 1489TIP3   OH228661   0.980   2.294  16.381 -0.1427 -0.3793 -0.4108
 1489TIP3    H128662   1.004   2.330  16.296  1.0529  3.3763  1.2753
 1489TIP3    H228663   1.022   2.208  16.384  0.5152 -0.2589 -3.2363
 1490TIP3   OH228664   5.007   3.650  16.568 -0.0057  0.2344  0.4414
 1490TIP3    H128665   4.978   3.586  16.503  0.5345 -0.5322  0.9408
 1490TIP3    H228666   5.089   3.614  16.602 -0.0866  0.8161  1.2730
 1491TIP3   OH228667   1.540   3.590  15.366 -0.6580 -0.2651 -0.3093
 1491TIP3    H128668   1.558   3.547  15.282  0.0864  1.5134 -1.1238
 1491TIP3    H228669   1.554   3.683  15.348  1.0451  0.0571  2.1676
 1492TIP3   OH228670   2.952   3.326  14.163  0.2423  0.1251  0.2851
 1492TIP3    H128671   2.905   3.285  14.091  0.2066  0.1326  0.3040
 1492TIP3    H228672   2.953   3.260  14.232 -1.6735  0.8805  1.1060
 1493TIP3   OH228673   5.489   1.456  14.336  0.0863 -0.0385  0.2061
 1493TIP3    H128674   5.494   1.551  14.343 -1.2111 -0.0073  1.1717
 1493TIP3    H228675   5.472   1.439  14.243 -0.0365  0.6894  0.0959
 1494TIP3   OH228676   6.129   5.985  15.769  0.4107  0.2685 -0.0456
 1494TIP3    H128677   6.110   5.912  15.829 -0.8570 -0.0570 -0.8033
 1494TIP3    H228678   6.150   6.059  15.826 -1.7654  0.2422  0.8563
 1495TIP3   OH228679   2.284   5.786  16.716 -0.2910 -0.3476 -0.2577
 1495TIP3    H128680   2.371   5.824  16.704 -0.6089  0.7877  0.8623
 1495TIP3    H228681   2.300   5.707  16.768  0.1189 -0.3874 -0.4392
 1496TIP3   OH228682   5.513   1.840  15.986  0.2629 -0.6349  1.0877
 1496TIP3    H128683   5.476   1.812  16.070 -1.7242 -1.7051 -0.0826
 1496TIP3    H228684   5.561   1.763  15.955  0.3028 -0.5232  0.8756
 1497TIP3   OH228685   0.223   5.922  16.981 -0.3893 -0.0515 -0.3779
 1497TIP3    H128686   0.176   5.939  17.063 -0.0370 -0.5497 -0.0634
 1497TIP3    H228687   0.161   5.872  16.928 -0.6214  0.2783 -0.4184
 1498TIP3   OH228688   0.190   5.058  16.410 -0.0716  0.0518  0.4905
 1498TIP3    H128689   0.281   5.084  16.422  0.1425 -0.5395  0.1949
 1498TIP3    H228690   0.155   5.048  16.499  0.0587  0.5799  0.6053
 1499TIP3   OH228691   6.296   5.544  14.973  0.0872  0.9420 -0.5159
 1499TIP3    H128692   6.258   5.581  14.893  0.8374 -0.4689 -1.5586
 1499TIP3    H228693   6.389   5.532  14.952 -0.0604 -1.2347 -0.1461
 1500TIP3   OH228694   1.083   4.475  15.401 -0.1441  0.0488  0.4323
 1500TIP3    H128695   1.171   4.503  15.376 -0.3631  1.3341  1.0203
 1500TIP3    H228696   1.049   4.431  15.323 -0.2474  2.6139 -1.0950
 1501TIP3   OH228697   4.035   0.029  14.662 -0.0355  0.4490 -0.0051
 1501TIP3    H128698   4.008  -0.061  14.644 -2.7223  0.9045  1.1395
 1501TIP3    H228699   4.101   0.049  14.596 -1.5172 -1.3963 -2.1762
 1502TIP3   OH228700   4.602   4.052  14.720 -0.2531 -0.1650  0.0759
 1502TIP3    H128701   4.667   3.994  14.682 -0.4923 -0.2568 -0.2015
 1502TIP3    H228702   4.520   4.028  14.677 -0.4572  0.0001  0.3629
 1503TIP3   OH228703   6.297   2.829  16.600 -0.2909 -0.1900  0.1956
 1503TIP3    H128704   6.205   2.817  16.621 -0.5742  0.3188 -0.7219
 1503TIP3    H228705   6.299   2.905  16.542  0.7637  0.1361  0.6361
 1504TIP3   OH228706   3.691   2.044  15.018  0.2376  0.4381  0.1195
 1504TIP3    H128707   3.610   2.060  14.970 -0.4896 -0.3799  1.0504
 1504TIP3    H228708   3.715   1.954  14.995 -1.3080 -0.8166  2.8852
 1505TIP3   OH228709   3.548   4.130  13.459  0.4762 -0.8759 -0.4591
 1505TIP3    H128710   3.587   4.079  13.530 -0.2650 -0.0027  0.6166
 1505TIP3    H228711   3.623   4.172  13.416  0.7805  1.0671  1.7936
 1506TIP3   OH228712   6.228   1.315  16.821 -0.1841  0.0769 -0.0062
 1506TIP3    H128713   6.163   1.277  16.881 -1.1887  1.6951 -0.0056
 1506TIP3    H228714   6.211   1.272  16.737 -1.9065  1.1013 -0.2295
 1507TIP3   OH228715   5.988   0.109  15.122 -0.2981  0.0504 -0.2896
 1507TIP3    H128716   5.955   0.195  15.150 -1.8067 -0.5108 -0.2525
 1507TIP3    H228717   5.925   0.047  15.158  1.8559 -1.2818  1.4682
 1508TIP3   OH228718   3.784   3.159  16.559 -0.1832  0.5457 -0.0902
 1508TIP3    H128719   3.744   3.157  16.473  0.6408  1.6891 -0.5334
 1508TIP3    H228720   3.873   3.191  16.544 -0.3376  1.7525  1.2754
 1509TIP3   OH228721   2.387   5.593  14.990 -0.2710 -0.4176  0.0015
 1509TIP3    H128722   2.469   5.586  14.941 -0.2516 -0.2964  0.0167
 1509TIP3    H228723   2.362   5.502  15.008 -1.3331 -0.5877 -2.0032
 1510TIP3   OH228724   0.542   1.041  15.540 -0.0331 -0.1200 -0.0679
 1510TIP3    H128725   0.514   1.063  15.452  0.7508 -0.2734 -0.3601
 1510TIP3    H228726   0.498   1.105  15.596  1.8401  1.9256 -0.8328
 1511TIP3   OH228727   1.630   1.656  14.692 -0.6355 -0.0934  0.0846
 1511TIP3    H128728   1.710   1.603  14.685  0.3079  0.9574  1.9700
 1511TIP3    H228729   1.564   1.595  14.724 -0.2683 -0.6925 -0.2579
 1512TIP3   OH228730   2.838   2.968  15.773  0.2289  0.1792  0.2529
 1512TIP3    H128731   2.853   2.882  15.812  1.2885  0.6132  0.8274
 1512TIP3    H228732   2.748   2.963  15.739  0.1742 -1.0515  0.5177
 1513TIP3   OH228733   5.351   4.342  16.209 -0.5325 -0.4016  0.6260
 1513TIP3    H128734   5.394   4.386  16.282  0.7619  0.4364 -0.5814
 1513TIP3    H228735   5.258   4.341  16.233 -0.2153  0.3790  1.9987
 1514TIP3   OH228736   4.123   1.530  16.872 -0.1426  0.3404  0.3987
 1514TIP3    H128737   4.098   1.475  16.947  1.1062 -0.1024  0.5174
 1514TIP3    H228738   4.104   1.476  16.795 -0.2368  0.2960  0.4524
 1515TIP3   OH228739   5.741   5.324  16.681  0.5437 -0.1993 -0.5892
 1515TIP3    H128740   5.806   5.274  16.730  0.1093  0.3891  0.6039
 1515TIP3    H228741   5.775   5.413  16.678  0.4099 -0.1591 -1.0925
 1516TIP3   OH228742   5.140   2.594  15.664  0.1533 -0.3213 -0.3049
 1516TIP3    H128743   5.133   2.583  15.759  1.7154 -0.6250 -0.2005
 1516TIP3    H228744   5.068   2.541  15.629 -1.4680  1.0848  0.7301
 1517TIP3   OH228745   3.982   0.251  16.367 -0.1562  0.2766  0.2071
 1517TIP3    H128746   3.956   0.186  16.302 -0.4623  2.0493 -1.5130
 1517TIP3    H228747   4.062   0.216  16.405  0.7504 -0.2207 -2.0467
 1518TIP3   OH228748   1.777   5.573  15.831  0.2718  0.3110 -0.1529
 1518TIP3    H128749   1.768   5.478  15.839 -1.1527  0.3139 -1.3451
 1518TIP3    H228750   1.704   5.608  15.883  0.6889  0.7525  0.1380
 1519TIP3   OH228751   5.342   2.031  15.871  0.1188  0.8036 -0.0602
 1519TIP3    H128752   5.337   2.004  15.779 -0.0538  0.0884  0.1519
 1519TIP3    H228753   5.402   1.969  15.912  0.7341  1.5410  0.1681
 1520TIP3   OH228754   5.487   3.612  15.262 -0.3136 -0.4950 -0.1854
 1520TIP3    H128755   5.467   3.665  15.184  0.5878 -0.4829 -0.4149
 1520TIP3    H228756   5.403   3.602  15.306 -0.4033  1.6798  0.2143
 1521TIP3   OH228757   4.931   1.782  16.560  0.2091  0.6022 -0.2422
 1521TIP3    H128758   5.015   1.736  16.566 -1.3137 -2.5858 -1.3192
 1521TIP3    H228759   4.938   1.833  16.480  0.5210 -1.1090 -1.3573
 1522TIP3   OH228760   0.182   4.267  16.593 -0.1432  0.5559  0.1760
 1522TIP3    H128761   0.103   4.226  16.558  1.3315 -1.7064 -0.7372
 1522TIP3    H228762   0.218   4.318  16.520  0.3524 -0.1779 -0.1029
 1523TIP3   OH228763   4.343   2.392  14.558  0.7460  0.7736 -0.0483
 1523TIP3    H128764   4.384   2.406  14.644  2.1967  2.4767 -0.9627
 1523TIP3    H228765   4.265   2.447  14.559 -0.4130 -0.7959  0.8855
 1524TIP3   OH228766   2.550   2.959  15.690 -0.1148 -0.0799 -0.1125
 1524TIP3    H128767   2.473   3.009  15.717 -0.2254  0.5463 -1.5170
 1524TIP3    H228768   2.531   2.870  15.719 -1.4347  0.0390 -0.5342
 1525TIP3   OH228769   5.395   2.748  14.674 -0.6998  0.8694 -0.1593
 1525TIP3    H128770   5.382   2.727  14.766  2.2921 -0.3168  0.1100
 1525TIP3    H228771   5.341   2.685  14.627 -0.8099  0.2399  0.7863
 1526TIP3   OH228772   3.626   5.301  14.594 -0.2929  0.3850 -0.0057
 1526TIP3    H128773   3.691   5.334  14.655 -3.1946  5.2769  0.9966
 1526TIP3    H228774   3.662   5.319  14.507  0.6494  0.7482  0.4519
 1527TIP3   OH228775   4.824   6.629  16.460  0.5997 -0.0154  0.4255
 1527TIP3    H128776   4.749   6.584  16.497  0.9187 -0.8895  0.0320
 1527TIP3    H228777   4.896   6.566  16.463  1.3309  0.8016  0.7974
 1528TIP3   OH228778   0.541   1.299  15.973  0.9231 -0.4097 -0.6488
 1528TIP3    H128779   0.605   1.367  15.949 -0.8402  0.1190 -4.6863
 1528TIP3    H228780   0.595   1.223  15.997  2.9650  1.3350  0.6038
 1529TIP3   OH228781   5.811   3.845  14.866  0.4946  0.5501  0.0168
 1529TIP3    H128782   5.757   3.818  14.791  0.0521  0.7062  0.2754
 1529TIP3    H228783   5.891   3.879  14.827  1.6187 -2.1986 -0.3296
 1530TIP3   OH228784   3.763   1.262  14.823  0.8253  0.3595 -0.2645
 1530TIP3    H128785   3.683   1.272  14.771  0.0898  0.3922  0.8315
 1530TIP3    H228786   3.738   1.200  14.892  2.2640 -0.9869 -0.9108
 1531TIP3   OH228787   4.916   2.522  14.841 -0.3968  0.0107 -0.7612
 1531TIP3    H128788   4.836   2.495  14.796 -2.3065  2.3844  0.9516
 1531TIP3    H228789   4.929   2.457  14.910 -0.5878 -0.6045 -1.2962
 1532TIP3   OH228790   0.427   4.675  16.199 -0.0749 -0.2081 -0.2619
 1532TIP3    H128791   0.382   4.608  16.251 -0.3265  0.6325  0.6437
 1532TIP3    H228792   0.473   4.626  16.131  1.4140 -1.4948  1.5684
 1533TIP3   OH228793   5.472   1.289  15.745  0.0392  0.1036 -0.5469
 1533TIP3    H128794   5.525   1.363  15.716  1.2498  0.1517  1.6193
 1533TIP3    H228795   5.492   1.220  15.682  2.7565  0.1063  0.2018
 1534TIP3   OH228796   5.323   6.187  13.795  0.3526 -0.1840  0.0647
 1534TIP3    H128797   5.331   6.281  13.811  1.3589 -0.5335  1.9191
 1534TIP3    H228798   5.234   6.176  13.762  0.9022  1.6421 -2.4034
 1535TIP3   OH228799   3.774   6.428  16.840 -0.3127 -0.3599  0.8940
 1535TIP3    H128800   3.859   6.472  16.838 -1.4467  1.9900 -0.3620
 1535TIP3    H228801   3.769   6.390  16.927  1.0214  1.5865  1.9131
 1536TIP3   OH228802   1.964   3.768  16.847 -0.2897 -0.0693  0.4756
 1536TIP3    H128803   1.986   3.679  16.821 -0.9157  0.2239 -1.1967
 1536TIP3    H228804   1.878   3.760  16.888 -0.9521 -0.1010 -0.8566
 1537TIP3   OH228805   4.022   4.694  17.004  0.0663  0.5299 -0.3008
 1537TIP3    H128806   3.996   4.733  16.921  0.1792  0.5331 -0.3350
 1537TIP3    H228807   4.082   4.623  16.980 -0.2531  0.2401 -0.2470
 1538TIP3   OH228808   2.600   1.962  15.307  0.0483  0.0007  0.2691
 1538TIP3    H128809   2.651   1.881  15.318  0.7193  0.4243  0.3089
 1538TIP3    H228810   2.517   1.944  15.351  0.5032 -0.3826  0.9820
 1539TIP3   OH228811   0.799   2.264  16.098 -0.1723 -0.1028 -0.4586
 1539TIP3    H128812   0.707   2.263  16.124  0.0965  1.5101  0.7655
 1539TIP3    H228813   0.812   2.351  16.059  1.0276  0.1000  0.3274
 1540TIP3   OH228814   4.531   0.604  14.775  0.5843 -0.0845 -0.1717
 1540TIP3    H128815   4.553   0.666  14.706  1.4820  0.7139  0.7898
 1540TIP3    H228816   4.521   0.520  14.730 -2.2366  0.9569 -1.7485
 1541TIP3   OH228817   5.878   2.012  16.853  0.2283 -0.0891  0.0321
 1541TIP3    H128818   5.935   2.023  16.776 -0.5490 -0.6248 -0.6434
 1541TIP3    H228819   5.790   2.032  16.821 -0.1396 -0.5632  0.7178
 1542TIP3   OH228820   3.678   6.638  15.938 -0.1253  0.2661 -0.0836
 1542TIP3    H128821   3.734   6.568  15.906 -1.1873 -0.1000 -1.2198
 1542TIP3    H228822   3.624   6.596  16.005  0.0224  0.2772  0.0417
 1543TIP3   OH228823   2.806   2.409  16.671 -0.1108 -0.2410  0.6479
 1543TIP3    H128824   2.852   2.401  16.755 -0.2939 -2.3596  0.5868
 1543TIP3    H228825   2.725   2.361  16.683 -1.2848  1.4622 -0.0264
 1544TIP3   OH228826   3.812   1.263  15.780 -0.2449 -0.4435 -0.0639
 1544TIP3    H128827   3.780   1.174  15.789  1.3817 -0.9379  1.1826
 1544TIP3    H228828   3.905   1.254  15.756 -0.0608  0.9066  0.0192
 1545TIP3   OH228829   4.923   4.877  16.006  0.4339  0.5658  0.0933
 1545TIP3    H128830   4.882   4.795  16.034  2.3436 -1.1872 -1.8546
 1545TIP3    H228831   4.889   4.892  15.918  1.2419  1.0459 -0.1490
 1546TIP3   OH228832   2.362   1.915  15.405 -0.5088  0.3844 -0.2282
 1546TIP3    H128833   2.324   1.916  15.493  1.3868 -0.9337  0.6726
 1546TIP3    H228834   2.287   1.905  15.347 -1.7700  0.7395  1.2693
 1547TIP3   OH228835   1.973   5.334  15.607 -0.6431 -0.8214 -0.2197
 1547TIP3    H128836   1.963   5.249  15.650  0.6630 -1.9440 -2.0431
 1547TIP3    H228837   2.063   5.359  15.625 -1.5361  1.2586  2.0303
 1548TIP3   OH228838   6.008   2.656  16.023  0.3538 -0.0170  0.5863
 1548TIP3    H128839   6.049   2.742  16.015  0.2729 -0.1253 -1.3484
 1548TIP3    H228840   6.069   2.596  15.979 -0.1272 -0.7699  0.9178
 1549TIP3   OH228841   1.705   3.094  15.084 -1.1066  0.2149 -0.1245
 1549TIP3    H128842   1.750   3.112  15.002  1.1356  2.1088  1.4107
 1549TIP3    H228843   1.622   3.054  15.057  0.6299 -1.7227 -3.1621
 1550TIP3   OH228844   6.070   2.802  14.382  0.2668  0.5578 -0.1560
 1550TIP3    H128845   5.998   2.860  14.356 -0.4908  0.0580  0.7694
 1550TIP3    H228846   6.047   2.717  14.345  1.3968  0.8149 -1.5437
 1551TIP3   OH228847   4.300   1.872  14.494 -0.0406 -0.6959 -0.1372
 1551TIP3    H128848   4.351   1.850  14.572  0.2353 -0.3523 -0.2141
 1551TIP3    H228849   4.361   1.856  14.421  0.2794  0.5846 -0.1775
 1552TIP3   OH228850   1.136   1.824  15.026 -0.0186 -0.1922  0.0010
 1552TIP3    H128851   1.168   1.891  15.086  0.9234 -0.0137 -0.6782
 1552TIP3    H228852   1.059   1.787  15.070 -0.6798  1.4516  0.3136
 1553TIP3   OH228853   2.084   5.896  15.624  0.5120  0.1227 -0.1110
 1553TIP3    H128854   2.145   5.897  15.550  0.4242  0.6647 -0.1776
 1553TIP3    H228855   2.039   5.812  15.616 -0.3218  0.6623 -1.3694
 1554TIP3   OH228856   1.811   1.304  16.048  0.5584  0.6318 -0.1899
 1554TIP3    H128857   1.771   1.220  16.025  1.7734  0.2076 -0.8384
 1554TIP3    H228858   1.739   1.357  16.081 -0.7455  0.2524 -2.2538
 1555TIP3   OH228859   1.415   1.941  15.468 -0.3756  0.0965  0.1755
 1555TIP3    H128860   1.434   1.895  15.550  2.4933  1.0394  0.1529
 1555TIP3    H228861   1.475   1.902  15.405  0.1244  1.9129 -0.5253
 1556TIP3   OH228862   0.746   2.870  13.149 -0.0342 -0.1860 -0.4700
 1556TIP3    H128863   0.828   2.919  13.160 -0.6650  1.1630 -1.5395
 1556TIP3    H228864   0.774   2.785  13.116  0.9184  0.4565 -1.3860
 1557TIP3   OH228865   1.448   1.983  14.851  0.2084  0.1640  0.8711
 1557TIP3    H128866   1.421   1.929  14.925 -3.1976  0.5808  0.1142
 1557TIP3    H228867   1.421   1.933  14.774  0.2446  1.3697  0.0439
 1558TIP3   OH228868   1.535   3.706  14.906  0.3780  0.0336  0.3432
 1558TIP3    H128869   1.547   3.790  14.863 -3.0905  1.0530  1.0212
 1558TIP3    H228870   1.620   3.664  14.902  2.2867  3.5846  0.0275
 1559TIP3   OH228871   2.108   5.515  16.678 -0.2823 -0.2044 -0.3616
 1559TIP3    H128872   2.050   5.577  16.722 -0.0330  0.8987 -1.5377
 1559TIP3    H228873   2.057   5.435  16.672 -0.4812 -0.2711  1.5139
 1560TIP3   OH228874   6.666   0.561  16.130  0.0973  0.4681 -0.1943
 1560TIP3    H128875   6.651   0.563  16.036  2.3315  0.7808 -0.5963
 1560TIP3    H228876   6.585   0.526  16.167  0.0145 -1.8951 -2.4117
 1561TIP3   OH228877   2.722   5.270  15.557 -0.4641 -0.1548 -0.0786
 1561TIP3    H128878   2.660   5.260  15.485  0.4334 -2.6272 -0.6149
 1561TIP3    H228879   2.757   5.358  15.546 -2.6169  0.6946 -0.7468
 1562TIP3   OH228880   0.165   4.932  15.314 -0.0771 -0.0919 -0.3203
 1562TIP3    H128881   0.084   4.959  15.269  0.5276  2.0890 -0.2451
 1562TIP3    H228882   0.140   4.921  15.405 -0.2913  0.6383 -0.2868
 1563TIP3   OH228883   1.838   0.368  15.025  0.0747  0.6804 -0.1254
 1563TIP3    H128884   1.807   0.285  14.990  0.2363  0.1163  1.0471
 1563TIP3    H228885   1.762   0.425  15.024 -0.7003 -0.2638  1.4233
 1564TIP3   OH228886   4.638   6.008  15.739  0.5540 -0.3030  0.2474
 1564TIP3    H128887   4.691   5.947  15.687 -0.1322 -1.1836  0.5529
 1564TIP3    H228888   4.673   5.999  15.828 -1.2955 -2.3492  0.8516
 1565TIP3   OH228889   2.312   4.506  14.015 -0.1351 -0.3285  0.0227
 1565TIP3    H128890   2.324   4.477  13.925  1.7991 -0.7668  0.3875
 1565TIP3    H228891   2.368   4.584  14.023 -1.1346  0.3602  0.5580
 1566TIP3   OH228892   3.979   4.466  14.473  0.5365  0.3169 -0.0328
 1566TIP3    H128893   3.969   4.539  14.533 -2.5037  0.3663 -0.4503
 1566TIP3    H228894   4.047   4.411  14.513  2.2941  2.8651  0.7124
 1567TIP3   OH228895   4.036   0.237  16.771 -0.0585  0.3083  0.7448
 1567TIP3    H128896   3.952   0.275  16.747 -0.2607 -0.1041  0.7886
 1567TIP3    H228897   4.014   0.165  16.830  0.4122  1.1100  1.9237
 1568TIP3   OH228898   2.317   6.738  16.521  0.3170 -0.4723  0.8641
 1568TIP3    H128899   2.225   6.717  16.535 -0.1051 -0.4779 -1.5676
 1568TIP3    H228900   2.320   6.834  16.521 -0.0546 -0.4349 -0.8988
 1569TIP3   OH228901   4.346   2.626  14.939  0.5953 -0.0526  0.6357
 1569TIP3    H128902   4.372   2.613  15.030  0.5039  0.5961  0.7619
 1569TIP3    H228903   4.285   2.700  14.942 -0.3353 -0.7927  0.1928
 1570TIP3   OH228904   1.911   5.010  16.881 -0.1199 -0.1195  0.0528
 1570TIP3    H128905   1.991   5.008  16.933  0.0796 -0.3635 -0.2577
 1570TIP3    H228906   1.875   4.922  16.888  0.0971 -0.2613 -0.5013
 1571TIP3   OH228907   1.424   1.445  15.938  0.1090 -1.1080 -0.4184
 1571TIP3    H128908   1.488   1.492  15.991  0.8188 -2.3553 -0.1332
 1571TIP3    H228909   1.452   1.353  15.942 -0.9136 -1.4859 -1.4079
 1572TIP3   OH228910   1.163   5.616  16.469  0.1054 -0.2773 -0.0658
 1572TIP3    H128911   1.175   5.539  16.413  1.8207  1.9241 -3.0335
 1572TIP3    H228912   1.250   5.657  16.471 -1.0382  2.2971  0.2036
 1573TIP3   OH228913   1.229   6.269  14.328  0.4527  0.2076  0.1760
 1573TIP3    H128914   1.174   6.290  14.253 -0.9952 -0.9930  0.8419
 1573TIP3    H228915   1.234   6.174  14.329  2.7935  0.2820  0.0126
 1574TIP3   OH228916   5.112   3.244  15.399 -0.2859 -0.0805 -0.0849
 1574TIP3    H128917   5.159   3.327  15.408  0.1531 -0.4959  2.0294
 1574TIP3    H228918   5.168   3.179  15.441 -2.3499 -0.7121  1.9165
 1575TIP3   OH228919   4.147   3.568  16.851 -0.2139  0.8897 -0.1201
 1575TIP3    H128920   4.116   3.617  16.775 -3.1588 -1.5612 -0.6895
 1575TIP3    H228921   4.137   3.629  16.924 -0.3231  2.2814 -1.2515
 1576TIP3   OH228922   6.473   5.767  14.314  0.5055 -0.2885 -0.5380
 1576TIP3    H128923   6.426   5.795  14.235 -0.5925  2.4273  0.9227
 1576TIP3    H228924   6.542   5.833  14.325 -0.0229  0.0117  1.2974
 1577TIP3   OH228925   6.603   5.601  15.208 -0.8671 -0.3699  0.0066
 1577TIP3    H128926   6.676   5.596  15.271 -0.4572 -1.2211 -0.5254
 1577TIP3    H228927   6.525   5.607  15.263 -0.4404  0.0821  0.5902
 1578TIP3   OH228928   4.910   2.082  15.387  0.4548  0.4101  0.0707
 1578TIP3    H128929   4.929   2.044  15.302  0.7685  2.3964 -0.8150
 1578TIP3    H228930   4.833   2.138  15.371 -1.9804 -2.1122  2.0001
 1579TIP3   OH228931   4.218   4.074  13.245  0.2446 -0.0327 -0.1737
 1579TIP3    H128932   4.249   4.143  13.186  0.6715 -0.4172 -0.4030
 1579TIP3    H228933   4.123   4.085  13.246 -0.2005 -1.9718 -3.4884
 1580TIP3   OH228934   2.264   0.717  15.490  0.2040 -0.0358 -0.1566
 1580TIP3    H128935   2.182   0.719  15.539  0.5009  2.6480  0.3642
 1580TIP3    H228936   2.237   0.732  15.399  0.1014  0.7267 -0.0041
 1581TIP3   OH228937   5.789   6.258  14.821  0.0446  0.2555  0.0562
 1581TIP3    H128938   5.812   6.173  14.858 -0.1032  0.4418  0.5823
 1581TIP3    H228939   5.871   6.291  14.785 -0.0090 -0.3447 -0.6420
 1582TIP3   OH228940   3.536   0.563  14.187  0.3448 -0.4348  0.2080
 1582TIP3    H128941   3.490   0.532  14.110 -0.0367 -1.2054  0.7363
 1582TIP3    H228942   3.538   0.658  14.177 -1.8864 -0.3063  0.4353
 1583TIP3   OH228943   2.953   2.183  16.272 -0.0513  0.1117 -0.1259
 1583TIP3    H128944   3.002   2.117  16.223  0.9293  0.4336  0.3936
 1583TIP3    H228945   2.885   2.211  16.212 -0.2825 -1.1270 -0.4807
 1584TIP3   OH228946   0.416   3.193  13.977  0.0407 -0.3525  0.4266
 1584TIP3    H128947   0.506   3.172  13.950  0.5092  0.2313  1.4553
 1584TIP3    H228948   0.386   3.257  13.913  0.0136 -1.2291 -0.4562
 1585TIP3   OH228949   6.719   6.135  16.027  0.3424  0.9626  0.8770
 1585TIP3    H128950   6.759   6.106  15.946 -1.1776 -0.2985  0.5417
 1585TIP3    H228951   6.793   6.162  16.082  1.4467  1.0165 -0.5844
 1586TIP3   OH228952   4.454   5.535  15.138 -0.0086 -0.0799  0.7101
 1586TIP3    H128953   4.501   5.525  15.221 -0.2455  1.0216  0.9943
 1586TIP3    H228954   4.386   5.467  15.140 -0.0202 -0.0542  1.4314
 1587TIP3   OH228955   2.781   2.325  14.386 -1.4524  0.2336  0.5746
 1587TIP3    H128956   2.840   2.315  14.461  1.2626 -0.7636 -1.4876
 1587TIP3    H228957   2.814   2.262  14.322 -3.5811  1.0817 -1.5109
 1588TIP3   OH228958   5.105   5.180  16.617  0.9854 -0.1262 -0.6669
 1588TIP3    H128959   5.126   5.266  16.654 -0.3726 -0.3025  0.6274
 1588TIP3    H228960   5.010   5.172  16.628  0.7061 -0.7872 -3.0483
 1589TIP3   OH228961   0.883   6.165  14.243 -1.3562  0.3329 -0.1883
 1589TIP3    H128962   0.933   6.214  14.177  0.7373  0.0973  1.1447
 1589TIP3    H228963   0.862   6.082  14.200 -1.5349  0.8444 -1.1219
 1590TIP3   OH228964   0.060   0.797  15.550 -0.4758  0.0397 -0.1017
 1590TIP3    H128965   0.130   0.761  15.605 -1.4452 -0.6395  0.7444
 1590TIP3    H228966   0.049   0.734  15.479 -1.3394 -0.7475  0.6990
 1591TIP3   OH228967   1.821   0.806  15.394 -0.4618 -0.2507  0.1354
 1591TIP3    H128968   1.736   0.804  15.438  0.3383 -0.7137  1.7340
 1591TIP3    H228969   1.812   0.745  15.321 -1.5992 -0.0179  0.0602
 1592TIP3   OH228970   6.217   4.704  16.986  0.2833 -0.2571  0.5251
 1592TIP3    H128971   6.130   4.664  16.996  0.6170 -1.4045 -0.7977
 1592TIP3    H228972   6.248   4.671  16.902  0.5243  2.9769 -0.7960
 1593TIP3   OH228973   5.061   4.724  15.372  0.3372  0.2213  0.0105
 1593TIP3    H128974   5.021   4.694  15.291 -0.9370  1.2736  0.2205
 1593TIP3    H228975   5.006   4.687  15.441  0.5832  0.4933  0.3585
 1594TIP3   OH228976   3.902   3.224  14.954  0.0050  0.0937  0.1390
 1594TIP3    H128977   3.874   3.133  14.966 -0.1243  0.1722  0.4241
 1594TIP3    H228978   3.851   3.273  15.018 -1.2529  0.6115 -1.1808
 1595TIP3   OH228979   6.318   1.448  13.936  0.0501 -0.1718 -0.4768
 1595TIP3    H128980   6.320   1.402  13.852  0.4651 -0.1762 -0.4632
 1595TIP3    H228981   6.325   1.379  14.002  1.3415 -0.0517 -0.4660
 1596TIP3   OH228982   4.551   1.873  14.062 -0.0499  0.3253  0.2655
 1596TIP3    H128983   4.645   1.872  14.044  0.2781 -0.4569  1.8151
 1596TIP3    H228984   4.545   1.857  14.156 -1.6927  1.7859  0.4502
 1597TIP3   OH228985   3.030   2.358  16.482 -0.4203 -0.0242  0.1152
 1597TIP3    H128986   2.958   2.407  16.522  0.4452  1.6540 -0.2661
 1597TIP3    H228987   2.987   2.287  16.434 -1.8252  0.8926 -0.0465
 1598TIP3   OH228988   1.939   3.951  16.120  0.0363 -0.3414 -0.4750
 1598TIP3    H128989   2.027   3.946  16.156 -0.0236 -2.2675 -0.4929
 1598TIP3    H228990   1.938   3.887  16.049 -1.4618 -0.6189 -0.2455
 1599TIP3   OH228991   6.736   2.287  16.415 -0.3598  0.1780 -0.3247
 1599TIP3    H128992   6.803   2.351  16.392  0.2076  0.0546  0.9119
 1599TIP3    H228993   6.736   2.225  16.342 -1.1596  1.7368 -1.6976
 1600TIP3   OH228994   3.277   4.977  16.737 -0.0471 -0.4925 -0.0865
 1600TIP3    H128995   3.320   4.899  16.771 -1.3464 -1.4587 -0.5947
 1600TIP3    H228996   3.305   4.983  16.645 -0.3658 -0.6592 -0.1950
 1601TIP3   OH228997   2.734   1.586  16.081  0.5350 -0.1428 -0.1364
 1601TIP3    H128998   2.652   1.548  16.112 -0.2123  1.3045 -0.2492
 1601TIP3    H228999   2.777   1.618  16.160  0.2051  0.5467 -0.2228
 1602TIP3   OH229000   1.467   1.370  14.394  0.6509  0.6977  0.2149
 1602TIP3    H129001   1.384   1.412  14.416  0.0583 -0.5336  0.3512
 1602TIP3    H229002   1.483   1.308  14.465 -0.6662 -2.4350 -1.9877
 1603TIP3   OH229003   5.064   2.051  16.673 -0.9210  0.1972 -0.0117
 1603TIP3    H129004   5.159   2.039  16.679 -0.8819  1.1575  1.7306
 1603TIP3    H229005   5.046   2.050  16.579  0.7811 -0.1927 -0.3606
 1604TIP3   OH229006   4.389   6.514  15.825 -0.2673 -0.5305 -0.5973
 1604TIP3    H129007   4.380   6.465  15.907 -0.7743 -0.7762 -0.7966
 1604TIP3    H229008   4.309   6.566  15.819  0.4337  0.6557 -0.1837
 1605TIP3   OH229009   5.072   1.826  13.836  0.0472  0.2153  0.4485
 1605TIP3    H129010   5.136   1.756  13.824 -2.0111 -1.4619 -1.9514
 1605TIP3    H229011   5.109   1.901  13.789  0.5906 -0.5266 -0.3452
 1606TIP3   OH229012   6.571   5.427  15.507  0.3068 -0.1299  0.0444
 1606TIP3    H129013   6.617   5.347  15.479 -0.6071 -0.9760  0.8576
 1606TIP3    H229014   6.496   5.432  15.448 -0.5528 -0.8353  1.0260
 1607TIP3   OH229015   4.936   4.580  14.128  0.1876 -0.0207 -0.0887
 1607TIP3    H129016   4.848   4.594  14.093 -0.5727 -1.8290  1.0023
 1607TIP3    H229017   4.923   4.561  14.221  1.7415 -0.2069  0.1240
 1608TIP3   OH229018   5.926   5.027  13.996  0.2738 -0.0177  0.0600
 1608TIP3    H129019   5.940   4.933  13.981 -0.8965 -0.1037 -0.5449
 1608TIP3    H229020   6.015   5.064  13.998  1.0454 -1.5753  3.5159
 1609TIP3   OH229021   1.551   0.491  14.725  0.1633 -0.1506  0.2704
 1609TIP3    H129022   1.613   0.522  14.791 -0.2549 -0.1389  0.6596
 1609TIP3    H229023   1.553   0.558  14.657 -1.5671  1.3350  1.6094
 1610TIP3   OH229024   4.706   0.916  16.592  0.0509  0.5051  0.0120
 1610TIP3    H129025   4.692   0.828  16.625 -0.1102  0.5666  0.1107
 1610TIP3    H229026   4.644   0.924  16.519  0.3732  0.3849 -0.2768
 1611TIP3   OH229027   5.111   2.052  14.775  0.0106  0.3968  0.1540
 1611TIP3    H129028   5.125   2.030  14.683 -0.4807  2.4821 -0.4568
 1611TIP3    H229029   5.068   1.974  14.812  2.5372 -1.5516 -0.6795
 1612TIP3   OH229030   0.082   6.319  14.245 -1.3168  0.1826 -0.0323
 1612TIP3    H129031   0.146   6.362  14.188  0.1499  0.8560  2.0330
 1612TIP3    H229032   0.066   6.382  14.315 -1.5671 -1.3756  1.3780
 1613TIP3   OH229033   6.276   6.551  16.493 -0.0098 -0.1833  0.2802
 1613TIP3    H129034   6.320   6.468  16.511  0.8923  0.1832 -0.1708
 1613TIP3    H229035   6.214   6.530  16.423  1.1133 -0.2351 -0.7362
 1614TIP3   OH229036   0.894   5.344  16.145 -0.4727  0.4572  0.1256
 1614TIP3    H129037   0.853   5.319  16.228 -0.9590  3.3442  0.8877
 1614TIP3    H229038   0.984   5.368  16.170  0.5817 -2.1536 -0.8844
 1615TIP3   OH229039   5.955   3.440  16.404  0.5553 -0.3524  0.2779
 1615TIP3    H129040   5.937   3.494  16.481 -0.4827  1.2659 -1.0236
 1615TIP3    H229041   6.043   3.465  16.377  0.6654 -0.4321  0.5606
 1616TIP3   OH229042   1.526   6.036  16.024 -0.5353 -0.1533  0.2741
 1616TIP3    H129043   1.571   6.096  16.084 -0.0918  0.0263 -0.2326
 1616TIP3    H229044   1.437   6.071  16.018  0.5682  2.5554 -2.6913
 1617TIP3   OH229045   5.355   1.447  15.253 -0.5684  0.2432 -0.2697
 1617TIP3    H129046   5.416   1.378  15.278  0.0538  0.0580 -2.1937
 1617TIP3    H229047   5.347   1.440  15.158  1.0377  4.0419 -0.8466
 1618TIP3   OH229048   5.559   0.588  15.942  0.1790 -0.6855 -0.3390
 1618TIP3    H129049   5.511   0.505  15.937 -0.3935 -0.3349 -0.7608
 1618TIP3    H229050   5.560   0.620  15.852  0.9043 -0.5103 -0.2739
 1619TIP3   OH229051   3.668   3.377  14.794 -0.0279  0.0972 -0.1948
 1619TIP3    H129052   3.679   3.467  14.765  2.7285 -0.4523 -1.1278
 1619TIP3    H229053   3.722   3.370  14.873  0.1656 -0.8346 -0.3937
 1620TIP3   OH229054   6.223   0.399  16.332 -0.2230 -0.1808 -0.1552
 1620TIP3    H129055   6.286   0.399  16.260  1.0858 -0.5614  0.9229
 1620TIP3    H229056   6.166   0.474  16.314 -1.0633 -1.2929 -2.4702
 1621TIP3   OH229057   6.333   1.952  16.804  0.4020 -0.3851 -0.4226
 1621TIP3    H129058   6.359   1.972  16.714  0.9353  0.9507 -0.0028
 1621TIP3    H229059   6.405   1.984  16.858 -0.3855 -0.1660  0.5401
 1622TIP3   OH229060   6.374   6.733  13.781 -0.7555  0.3698  0.0726
 1622TIP3    H129061   6.365   6.827  13.791  0.0642  0.2675  2.3312
 1622TIP3    H229062   6.428   6.705  13.855 -2.4310 -2.1007  0.5015
 1623TIP3   OH229063   3.312   0.366  15.958 -0.3452  0.1442 -0.3424
 1623TIP3    H129064   3.239   0.426  15.969 -3.6060 -3.5513  0.6973
 1623TIP3    H229065   3.299   0.327  15.871 -0.4494 -1.4157  0.3249
 1624TIP3   OH229066   0.915   5.633  14.843  0.6061 -0.2940  0.3825
 1624TIP3    H129067   0.883   5.563  14.787 -0.5535  1.0907 -0.7590
 1624TIP3    H229068   0.980   5.591  14.900  0.8868 -2.0056 -1.1283
 1625TIP3   OH229069   0.562   0.796  13.729  0.0346  0.3004 -0.0452
 1625TIP3    H129070   0.642   0.807  13.679 -0.4792  0.6583 -0.8098
 1625TIP3    H229071   0.591   0.777  13.818  0.9604  0.2617 -0.3497
 1626TIP3   OH229072   6.465   5.242  16.778  0.2595 -0.3617 -0.2442
 1626TIP3    H129073   6.413   5.322  16.786 -2.2977 -1.9972  0.5526
 1626TIP3    H229074   6.523   5.244  16.855 -0.5538  0.2283  0.3767
 1627TIP3   OH229075   2.608   4.645  15.537 -0.3579  0.5664 -0.1136
 1627TIP3    H129076   2.533   4.701  15.561 -0.1323  0.8690 -0.1084
 1627TIP3    H229077   2.656   4.633  15.619  0.8780  2.2905 -0.5213
 1628TIP3   OH229078   6.139   4.082  13.846 -0.3276  0.5408  0.4491
 1628TIP3    H129079   6.076   4.019  13.813 -0.6965  0.4061  1.3829
 1628TIP3    H229080   6.130   4.158  13.788  1.1511 -0.7455 -1.6154
 1629TIP3   OH229081   1.844   5.269  13.775  0.4627 -0.1934 -0.1803
 1629TIP3    H129082   1.911   5.305  13.718 -0.6207  0.5208 -1.0337
 1629TIP3    H229083   1.865   5.302  13.862  2.2456 -1.4518 -0.0943
 1630TIP3   OH229084   1.225   5.065  16.607  0.1815 -0.4889 -0.3013
 1630TIP3    H129085   1.249   5.085  16.516 -1.5234 -1.5554 -1.0488
 1630TIP3    H229086   1.268   5.133  16.658 -0.4204  1.4110 -2.1188
 1631TIP3   OH229087   1.684   6.174  14.297  0.2330 -0.0277 -0.1636
 1631TIP3    H129088   1.655   6.143  14.383  0.6839 -0.2538 -0.0905
 1631TIP3    H229089   1.779   6.160  14.297  0.2459  0.0453 -0.6684
 1632TIP3   OH229090   5.396   3.492  14.725  0.0630  0.6880  0.7924
 1632TIP3    H129091   5.377   3.406  14.761  0.6583  0.1014 -0.2597
 1632TIP3    H229092   5.489   3.506  14.744  0.6388 -0.0367 -1.2672
 1633TIP3   OH229093   5.735   6.393  14.301  0.0900 -0.1862  0.0811
 1633TIP3    H129094   5.668   6.340  14.260  0.0630 -0.2205  0.1702
 1633TIP3    H229095   5.725   6.480  14.261  0.0396 -0.2094  0.0435
 1634TIP3   OH229096   1.860   1.097  13.823  0.5003  0.0038  0.6960
 1634TIP3    H129097   1.841   1.178  13.871  0.0624 -0.7981  1.9267
 1634TIP3    H229098   1.852   1.121  13.731  0.6140  1.4118  1.0326
 1635TIP3   OH229099   1.919   4.363  16.368  0.0609 -0.0968 -0.3961
 1635TIP3    H129100   1.951   4.277  16.396  1.3208  0.1769 -0.9474
 1635TIP3    H229101   1.981   4.425  16.404 -1.8876  0.7961  1.6373
 1636TIP3   OH229102   0.774   0.911  13.615 -0.1165  0.2150 -0.0103
 1636TIP3    H129103   0.737   0.987  13.571 -0.0979  0.5994  0.6354
 1636TIP3    H229104   0.869   0.923  13.610 -0.1167  0.8190  1.0749
 1637TIP3   OH229105   3.632   2.437  14.212  0.4861 -1.0191 -0.0339
 1637TIP3    H129106   3.658   2.474  14.127  0.4152 -0.9157 -0.0106
 1637TIP3    H229107   3.595   2.511  14.260 -0.0341 -1.2060 -0.1424
 1638TIP3   OH229108   0.022   0.034  14.292  0.5321  0.0238 -0.1671
 1638TIP3    H129109   0.064  -0.005  14.215 -0.2689 -0.1852 -0.5037
 1638TIP3    H229110  -0.049   0.087  14.256  1.2244  1.3368  0.3196
 1639TIP3   OH229111   2.959   1.856  16.209 -0.7254 -0.1305  0.2511
 1639TIP3    H129112   2.878   1.892  16.173 -1.2583 -0.8940  0.6490
 1639TIP3    H229113   2.938   1.765  16.228  0.3392 -0.4297  0.0482
 1640TIP3   OH229114   1.996   6.734  15.785  0.8179 -0.0865  0.0318
 1640TIP3    H129115   1.946   6.743  15.704 -0.0000  1.2889  0.6453
 1640TIP3    H229116   2.078   6.693  15.758  0.9228  1.1098 -1.6556
 1641TIP3   OH229117   0.708   4.112  16.117  0.1143 -0.7665 -0.5903
 1641TIP3    H129118   0.707   4.179  16.049 -1.2685  0.7790  0.8354
 1641TIP3    H229119   0.638   4.052  16.092  0.0457 -0.5731 -0.8709
 1642TIP3   OH229120   2.049   3.868  16.595  0.1270  0.2850 -0.4246
 1642TIP3    H129121   2.066   3.790  16.542 -0.8635  0.6584 -1.3196
 1642TIP3    H229122   2.020   3.833  16.680 -2.8161 -0.4301 -1.5934
 1643TIP3   OH229123   3.607   2.662  15.264 -0.4274 -0.3675  1.1032
 1643TIP3    H129124   3.673   2.649  15.332  0.2552 -1.3217  0.2793
 1643TIP3    H229125   3.600   2.576  15.221 -1.2268  0.0809  0.3082
 1644TIP3   OH229126   6.185   4.374  15.646  0.3019 -0.3881  0.9175
 1644TIP3    H129127   6.262   4.320  15.662  0.7479  0.3352  1.2598
 1644TIP3    H229128   6.114   4.328  15.692  0.7077 -0.5997  1.3475
 1645TIP3   OH229129   2.192   5.071  16.210 -0.4414  0.2595 -0.4366
 1645TIP3    H129130   2.121   5.034  16.157  0.4525 -1.0274 -0.7836
 1645TIP3    H229131   2.272   5.048  16.162  0.5049 -1.9089  1.9352
 1646TIP3   OH229132   2.577   1.566  14.034  0.5270  0.6066 -0.2556
 1646TIP3    H129133   2.603   1.542  13.945 -0.6765  3.1977 -1.4235
 1646TIP3    H229134   2.532   1.650  14.023 -0.0351  0.7884  2.7737
 1647TIP3   OH229135   1.484   2.440  15.773 -0.0608 -0.2394 -0.4679
 1647TIP3    H129136   1.533   2.522  15.779 -0.7344  0.2396 -1.3656
 1647TIP3    H229137   1.525   2.393  15.701  0.6510 -0.9447  0.3623
 1648TIP3   OH229138   2.918   1.306  16.353  0.1298  0.0252  0.0853
 1648TIP3    H129139   2.901   1.236  16.416 -0.9861 -0.5462 -0.8186
 1648TIP3    H229140   2.853   1.293  16.284  0.9926  0.9444 -0.9402
 1649TIP3   OH229141   5.550   4.895  14.278 -0.2727  0.5263  0.6038
 1649TIP3    H129142   5.571   4.895  14.185  1.8953  0.4681  1.0334
 1649TIP3    H229143   5.463   4.935  14.283 -1.0636 -0.7531 -1.5339
 1650TIP3   OH229144   5.244   2.368  15.017 -0.0537 -0.1864  0.5229
 1650TIP3    H129145   5.201   2.436  15.069 -2.0139  0.1446 -1.4036
 1650TIP3    H229146   5.334   2.400  15.006 -1.0272  2.3606 -0.7028
 1651TIP3   OH229147   6.749   1.540  16.086  0.0950  0.2888 -0.4715
 1651TIP3    H129148   6.780   1.574  16.002  5.2244 -1.1873  0.4942
 1651TIP3    H229149   6.748   1.616  16.144  2.0728  0.4835 -0.6168
 1652TIP3   OH229150   4.198   6.270  15.561 -0.1754  0.3558 -0.2206
 1652TIP3    H129151   4.132   6.205  15.583 -0.5548  1.0380  0.6842
 1652TIP3    H229152   4.277   6.219  15.545 -0.8038 -0.4332 -0.9126
 1653TIP3   OH229153   1.619   6.712  15.981 -0.3986  0.0878  0.0954
 1653TIP3    H129154   1.543   6.662  15.952 -0.0372 -0.3958 -0.0177
 1653TIP3    H229155   1.645   6.671  16.063  1.7290 -1.8827 -1.4464
 1654TIP3   OH229156   5.391   5.868  15.334  0.4643 -0.0605  0.5292
 1654TIP3    H129157   5.375   5.871  15.428 -1.4358 -1.8870  0.3512
 1654TIP3    H229158   5.324   5.925  15.296 -1.3017 -2.2258  0.1599
 1655TIP3   OH229159   0.598   4.930  15.889  0.0435  0.2097  0.5651
 1655TIP3    H129160   0.625   4.928  15.798  0.6486 -0.1008  0.7500
 1655TIP3    H229161   0.503   4.921  15.886 -0.0561  1.2762 -0.0831
 1656TIP3   OH229162   3.241   3.035  16.659  0.0142  0.3705 -0.0735
 1656TIP3    H129163   3.272   2.945  16.667 -1.1855 -0.0403  0.2491
 1656TIP3    H229164   3.299   3.086  16.716  1.0638 -0.0934 -0.7072
 1657TIP3   OH229165   1.412   0.589  16.923  0.2265  0.5725  0.2528
 1657TIP3    H129166   1.484   0.632  16.875  0.0455 -0.1355 -0.6901
 1657TIP3    H229167   1.429   0.608  17.015  2.5610 -0.9502  0.2096
 1658TIP3   OH229168   3.734   4.482  16.498 -0.2486 -0.2473 -0.2371
 1658TIP3    H129169   3.821   4.515  16.520  0.3227 -0.0150 -2.5580
 1658TIP3    H229170   3.675   4.557  16.513  0.2037  0.1177 -0.2733
 1659TIP3   OH229171   0.788   3.033  15.598  0.2253 -0.1057 -0.2766
 1659TIP3    H129172   0.731   3.098  15.556 -1.1576 -0.5745  0.8115
 1659TIP3    H229173   0.808   2.970  15.529  0.2473  0.5857 -0.9189
 1660TIP3   OH229174   5.379   0.920  16.011 -0.4113  0.0058 -0.4314
 1660TIP3    H129175   5.294   0.946  16.046 -0.4795  0.4683 -0.9368
 1660TIP3    H229176   5.403   0.843  16.062 -0.9662  0.0867 -0.0421
 1661TIP3   OH229177   3.758   1.349  16.372 -0.3440 -0.0966  0.6055
 1661TIP3    H129178   3.839   1.320  16.415  1.0255 -1.1811 -2.4004
 1661TIP3    H229179   3.689   1.297  16.414  1.0004 -1.7049  0.9279
 1662TIP3   OH229180   4.141   1.346  15.965  0.3744  0.1353 -0.2195
 1662TIP3    H129181   4.107   1.303  15.886  1.2187 -3.0836  1.0518
 1662TIP3    H229182   4.229   1.375  15.941  0.0174  0.6746 -0.9195
 1663TIP3   OH229183   5.059   2.794  15.339  0.0354 -0.2021  0.7028
 1663TIP3    H129184   5.057   2.889  15.323 -1.4896 -0.0757  1.4634
 1663TIP3    H229185   5.081   2.787  15.432  2.1249 -0.6980  0.2274
 1664TIP3   OH229186   1.050   3.846  16.053 -0.1298  0.1428  0.0143
 1664TIP3    H129187   1.025   3.829  16.143 -1.4462  0.2043 -0.3176
 1664TIP3    H229188   1.047   3.942  16.045 -1.8108  0.0705 -0.5530
 1665TIP3   OH229189   2.656   3.423  15.921  0.0730  0.4821 -0.1328
 1665TIP3    H129190   2.601   3.400  15.846 -0.7693 -0.8516  0.8541
 1665TIP3    H229191   2.728   3.360  15.919  0.3898  0.8413 -0.1671
 1666TIP3   OH229192   3.170   1.604  13.538 -0.4678 -0.0979  0.5777
 1666TIP3    H129193   3.128   1.519  13.525  0.9297 -0.4378 -2.8584
 1666TIP3    H229194   3.109   1.653  13.593 -2.8583 -2.2420  0.0368
 1667TIP3   OH229195   4.648   6.282  15.560  0.3189  0.8534 -0.3657
 1667TIP3    H129196   4.699   6.316  15.634 -0.0648  1.9609 -0.5888
 1667TIP3    H229197   4.605   6.359  15.523  1.1553  0.4628 -2.2609
 1668TIP3   OH229198   4.639   5.004  15.256  0.1861 -0.3632  0.2587
 1668TIP3    H129199   4.567   5.060  15.286  0.6570  0.5978 -0.3414
 1668TIP3    H229200   4.598   4.944  15.194 -0.0534  0.4188 -0.3607
 1669TIP3   OH229201   3.773   5.194  15.436 -0.3988  0.6278  0.2364
 1669TIP3    H129202   3.752   5.101  15.431 -1.0099  0.8193 -1.0527
 1669TIP3    H229203   3.752   5.229  15.350 -4.3040  2.7855  1.7973
 1670TIP3   OH229204   4.343   1.998  16.491  0.1713 -0.1240  0.0069
 1670TIP3    H129205   4.419   1.958  16.534  0.6141  0.4643 -0.2188
 1670TIP3    H229206   4.270   1.979  16.550  0.8193  0.8995  1.1665
 1671TIP3   OH229207   2.559   6.047  15.776  0.0706 -0.2614  0.4286
 1671TIP3    H129208   2.647   6.060  15.740 -0.1598 -0.8227 -0.3613
 1671TIP3    H229209   2.564   6.084  15.864  1.2747 -0.8472  0.6307
 1672TIP3   OH229210   2.625   2.064  16.443  0.5019  0.2959 -0.0698
 1672TIP3    H129211   2.600   2.128  16.376  0.0498  0.4700  0.2632
 1672TIP3    H229212   2.573   1.987  16.423  0.3705  0.3461  0.0749
 1673TIP3   OH229213   2.695   4.921  15.219  0.9537 -0.1129  0.3204
 1673TIP3    H129214   2.725   4.914  15.310 -1.6777 -0.2933  1.2645
 1673TIP3    H229215   2.711   5.012  15.195 -1.8550  1.0849  2.4366
 1674TIP3   OH229216   3.604   3.822  16.492 -0.2180 -0.2151  0.5833
 1674TIP3    H129217   3.516   3.839  16.457  0.6164  1.3942 -0.8633
 1674TIP3    H229218   3.602   3.857  16.581 -0.6442  1.1371  0.0640
 1675TIP3   OH229219   6.112   5.007  13.684  0.4177  0.1836  0.2926
 1675TIP3    H129220   6.133   4.951  13.610  2.6863  0.9939  0.2617
 1675TIP3    H229221   6.017   5.018  13.679  0.1401 -2.0877 -0.7746
 1676TIP3   OH229222   0.133   6.594  15.395  1.0970 -0.0544  0.4216
 1676TIP3    H129223   0.089   6.671  15.358  1.4286 -0.2772 -0.4640
 1676TIP3    H229224   0.110   6.595  15.488 -0.3817  0.1052  0.0780
 1677TIP3   OH229225   1.049   6.382  16.593 -0.2156 -0.0522  0.2167
 1677TIP3    H129226   1.006   6.301  16.619  1.2288 -0.4422  1.5193
 1677TIP3    H229227   0.977   6.446  16.586 -0.9088 -0.0471  4.6527
 1678TIP3   OH229228   1.632   1.742  16.796  0.3012  0.1632 -0.2123
 1678TIP3    H129229   1.536   1.753  16.796  0.4322  1.5033 -0.8775
 1678TIP3    H229230   1.647   1.665  16.742 -0.4084 -0.1611  0.0339
 1679TIP3   OH229231   0.201   3.801  16.492 -0.1323 -0.1254  0.1234
 1679TIP3    H129232   0.253   3.789  16.572 -0.4498  0.6129  0.4495
 1679TIP3    H229233   0.241   3.875  16.447  0.9390 -1.4305 -1.1560
 1680TIP3   OH229234   6.301   3.493  15.674 -0.3295  0.2264  0.1837
 1680TIP3    H129235   6.313   3.405  15.638 -0.7856  0.4365 -0.5051
 1680TIP3    H229236   6.332   3.552  15.605  0.2232  0.6076  0.7452
 1681TIP3   OH229237   3.586   2.862  16.530 -0.1348  1.1233  0.0349
 1681TIP3    H129238   3.617   2.936  16.584  1.0048  0.1646  0.7491
 1681TIP3    H229239   3.514   2.825  16.581  0.8323  0.3209  0.8734
 1682TIP3   OH229240   5.323   3.136  16.034  0.2857 -0.0765  0.2099
 1682TIP3    H129241   5.317   3.041  16.048  0.6056  0.0021  0.9089
 1682TIP3    H229242   5.245   3.171  16.076 -1.8743 -0.3112 -3.2060
 1683TIP3   OH229243   0.640   5.076  15.447  0.1094 -0.4339 -0.5472
 1683TIP3    H129244   0.653   5.105  15.357  0.6366 -0.5425 -0.5115
 1683TIP3    H229245   0.622   5.156  15.496  0.4554 -0.2946 -0.6419
 1684TIP3   OH229246   1.466   3.449  16.528  0.4857  0.0700  0.3369
 1684TIP3    H129247   1.493   3.485  16.443  2.8971  0.4577  1.1978
 1684TIP3    H229248   1.537   3.471  16.588  0.0869 -2.4390  1.8998
 1685TIP3   OH229249   3.996   5.606  15.465 -0.4003 -0.4860  0.4804
 1685TIP3    H129250   3.906   5.605  15.498 -0.7197 -0.0362 -0.3527
 1685TIP3    H229251   4.038   5.533  15.510 -0.8778 -0.0393  1.6980
 1686TIP3   OH229252   3.896   3.533  15.420 -0.2778  0.7326  0.6249
 1686TIP3    H129253   3.915   3.441  15.397 -0.5613  0.6206  0.8447
 1686TIP3    H229254   3.835   3.562  15.352  1.1993  1.3209 -0.5307
 1687TIP3   OH229255   3.333   4.365  15.616  0.0470  0.3060  0.7058
 1687TIP3    H129256   3.290   4.302  15.558 -0.0154  0.2939  0.7651
 1687TIP3    H229257   3.364   4.313  15.690  2.6799 -0.1917 -0.6306
 1688TIP3   OH229258   2.780   0.088  14.989 -0.2002 -0.3332  0.5064
 1688TIP3    H129259   2.815   0.139  14.915 -0.3248 -1.0834 -0.0755
 1688TIP3    H229260   2.693   0.060  14.959 -0.7624  0.3842  1.4185
 1689TIP3   OH229261   5.995   3.996  13.539 -0.1680 -0.3366  0.1145
 1689TIP3    H129262   6.016   4.079  13.581 -1.8431  0.0198  0.3460
 1689TIP3    H229263   5.971   3.938  13.612 -2.6945  0.1618 -0.2203
 1690TIP3   OH229264   5.273   1.586  14.871  0.1188 -0.2290  0.1714
 1690TIP3    H129265   5.261   1.637  14.952 -0.7409  0.4628 -0.3675
 1690TIP3    H229266   5.356   1.618  14.835  0.1431 -0.0176  0.4103
 1691TIP3   OH229267   4.747   1.283  15.679  0.6619 -0.4748  0.0249
 1691TIP3    H129268   4.800   1.336  15.620 -3.1167  0.6999 -2.7354
 1691TIP3    H229269   4.681   1.343  15.712 -1.3772 -2.5285 -0.0130
 1692TIP3   OH229270   0.903   0.493  16.695  0.0023  0.0956 -0.0700
 1692TIP3    H129271   0.960   0.521  16.767  0.5010 -1.9399  0.4145
 1692TIP3    H229272   0.954   0.425  16.650 -1.4642 -0.7739 -0.4849
 1693TIP3   OH229273   2.901   2.524  16.190  0.1313 -0.1773 -0.3550
 1693TIP3    H129274   2.909   2.567  16.275  0.3473 -0.6982 -0.1094
 1693TIP3    H229275   2.816   2.481  16.193 -0.9678  1.7846 -1.3287
 1694TIP3   OH229276   2.469   3.766  14.938 -0.0022  0.2375 -0.0445
 1694TIP3    H129277   2.443   3.831  15.003 -0.9832  1.5474 -1.6472
 1694TIP3    H229278   2.394   3.706  14.933 -1.1881  1.7176 -1.8104
 1695TIP3   OH229279   5.904   0.492  16.685 -0.1672 -0.2463 -0.3009
 1695TIP3    H129280   5.926   0.499  16.592  0.2416  0.9758 -0.1356
 1695TIP3    H229281   5.851   0.413  16.692 -0.9303  0.1164 -1.7240
 1696TIP3   OH229282   4.432   1.282  14.989  0.6326  0.4669 -0.4592
 1696TIP3    H129283   4.525   1.279  15.013  0.6225  0.7678 -0.3761
 1696TIP3    H229284   4.432   1.296  14.894  0.6735  0.3963 -0.4692
 1697TIP3   OH229285   5.125   6.065  14.844 -0.2658  0.2047 -0.4275
 1697TIP3    H129286   5.040   6.099  14.814 -0.6852 -0.5744 -0.1485
 1697TIP3    H229287   5.154   6.129  14.910 -1.1822 -0.0902  0.2942
 1698TIP3   OH229288   5.562   0.721  15.725  0.8915 -0.1802 -0.3019
 1698TIP3    H129289   5.592   0.799  15.773  0.2364 -0.5185  0.6650
 1698TIP3    H229290   5.493   0.754  15.668  1.6234  0.2084 -0.9979
 1699TIP3   OH229291   2.155   5.484  16.049 -0.4402 -0.0101  0.6107
 1699TIP3    H129292   2.214   5.431  16.103  1.2072  0.8016 -0.3116
 1699TIP3    H229293   2.075   5.431  16.042  0.7896 -1.9752  0.5011
 1700TIP3   OH229294   3.913   0.035  15.681  0.2541 -0.3652  0.0994
 1700TIP3    H129295   3.945   0.038  15.590  0.8219 -1.3799  0.2460
 1700TIP3    H229296   3.893   0.126  15.702 -0.2156 -0.1509 -1.1559
 1701TIP3   OH229297   2.540   5.365  15.346  0.1515  0.2238  0.6508
 1701TIP3    H129298   2.505   5.422  15.414 -0.2225  2.3559 -1.2111
 1701TIP3    H229299   2.613   5.414  15.309  1.9568 -1.9805  1.1149
 1702TIP3   OH229300   5.932   5.957  15.523 -0.2203  0.1982  1.0306
 1702TIP3    H129301   5.925   6.052  15.536 -0.7685  0.1655  1.0234
 1702TIP3    H229302   5.923   5.921  15.611 -1.7058  0.0846  0.8692
 1703TIP3   OH229303   5.260   4.990  14.272  0.5459 -0.1377  0.1375
 1703TIP3    H129304   5.236   5.065  14.327  0.8584 -0.9853  1.4897
 1703TIP3    H229305   5.196   4.922  14.295  0.4371 -0.3947 -0.8652
 1704TIP3   OH229306   5.523   1.733  14.317 -0.1905 -0.8628 -0.4039
 1704TIP3    H129307   5.601   1.725  14.371  0.7402  0.1015 -1.5329
 1704TIP3    H229308   5.491   1.822  14.335 -1.1833 -1.3308  0.2236
 1705TIP3   OH229309   6.224   1.452  13.694 -0.0115 -0.5286  0.5111
 1705TIP3    H129310   6.130   1.439  13.678 -0.0627  0.1836  0.2113
 1705TIP3    H229311   6.234   1.546  13.708  1.0467 -0.1128 -2.2876
 1706TIP3   OH229312   5.788   1.042  16.999  0.4604  0.4382  0.0691
 1706TIP3    H129313   5.802   1.135  16.985 -0.0408  1.0149  2.8291
 1706TIP3    H229314   5.703   1.024  16.958  1.2606  0.7792 -1.8327
 1707TIP3   OH229315   5.229   2.528  14.581 -0.0869  0.4266 -0.0472
 1707TIP3    H129316   5.151   2.518  14.526  0.4608  0.5022 -0.8509
 1707TIP3    H229317   5.235   2.445  14.629  0.0683 -0.0993 -0.9583
 1708TIP3   OH229318   6.008   5.753  15.179 -0.3892 -0.6126  0.0880
 1708TIP3    H129319   6.021   5.826  15.118 -0.1352  0.0813  0.9479
 1708TIP3    H229320   5.917   5.727  15.165 -0.7819  0.5126  0.4418
 1709TIP3   OH229321   0.984   5.881  16.073 -0.3013 -0.5157  0.0458
 1709TIP3    H129322   0.964   5.937  16.149 -3.0530 -0.4742 -0.6278
 1709TIP3    H229323   1.010   5.797  16.112  0.0766  0.0263  1.0140
 1710TIP3   OH229324   5.247   0.604  14.940  0.2141  0.1999 -0.5224
 1710TIP3    H129325   5.336   0.599  14.975 -0.1344 -1.0397  0.2778
 1710TIP3    H229326   5.228   0.697  14.934  1.4266  0.4734 -0.3579
 1711TIP3   OH229327   5.158   6.350  14.639  0.1743 -0.0709 -0.0790
 1711TIP3    H129328   5.235   6.388  14.598 -0.1327  0.7663  0.1051
 1711TIP3    H229329   5.185   6.328  14.728 -0.0462  1.0978  0.2934
 1712TIP3   OH229330   3.288   1.837  13.944 -0.0158  0.4038 -0.8519
 1712TIP3    H129331   3.292   1.812  14.037  0.2620  1.3082 -0.6044
 1712TIP3    H229332   3.205   1.883  13.935  0.4494  1.2872 -0.7790
 1713TIP3   OH229333   1.956   1.589  16.460 -0.4366 -0.0275  0.2567
 1713TIP3    H129334   1.900   1.512  16.476 -0.7355  0.1575  0.1125
 1713TIP3    H229335   2.045   1.554  16.461 -0.6403 -0.7725 -2.0145
 1714TIP3   OH229336   4.904   4.122  16.391 -0.1100 -0.1602  0.2280
 1714TIP3    H129337   4.892   4.028  16.382  0.1398 -1.0861  5.8260
 1714TIP3    H229338   4.816   4.157  16.397 -0.2867  0.4936 -3.6845
 1715TIP3   OH229339   5.485   3.344  15.171 -0.0027 -0.4515 -0.4293
 1715TIP3    H129340   5.523   3.426  15.200 -2.2329  0.9028 -1.0782
 1715TIP3    H229341   5.393   3.349  15.198  0.0442 -3.3282  0.6908
 1716TIP3   OH229342   0.253   5.257  14.942  0.0461  0.1807  0.0443
 1716TIP3    H129343   0.265   5.168  14.907  2.3532 -0.0542  1.2124
 1716TIP3    H229344   0.258   5.246  15.037  0.5363  1.5830  0.2024
 1717TIP3   OH229345   2.624   2.943  14.621  0.4065 -0.1040 -0.2787
 1717TIP3    H129346   2.701   2.925  14.675 -0.3595 -1.6423  0.3937
 1717TIP3    H229347   2.619   2.869  14.561 -0.2966  0.1879 -0.5933
 1718TIP3   OH229348   4.409   1.187  16.875  0.1002  0.4830  0.2929
 1718TIP3    H129349   4.487   1.133  16.860  0.3997  1.4057 -1.8242
 1718TIP3    H229350   4.387   1.172  16.967  1.5800 -1.3537  0.4103
 1719TIP3   OH229351   0.350   0.409  14.781  0.1700  0.2517  0.1071
 1719TIP3    H129352   0.299   0.352  14.724  0.0680  0.0726  0.3754
 1719TIP3    H229353   0.359   0.359  14.862  0.4178  0.4546  0.2032
 1720TIP3   OH229354   3.552   4.041  15.719 -0.6597  0.3540  0.0982
 1720TIP3    H129355   3.560   3.987  15.640 -0.3416 -0.2122  0.5166
 1720TIP3    H229356   3.465   4.081  15.711 -0.6730  0.2227 -0.4865
 1721TIP3   OH229357   2.877   0.800  17.323  0.2391  0.2055  0.2146
 1721TIP3    H129358   2.972   0.797  17.337  0.0682  1.9891  2.1381
 1721TIP3    H229359   2.858   0.891  17.300 -1.2831  0.6318  2.7348
 1722TIP3   OH229360   2.625   3.512  16.510  0.0819 -0.3232  0.6403
 1722TIP3    H129361   2.530   3.511  16.496 -0.0084  0.3471  1.1514
 1722TIP3    H229362   2.636   3.525  16.605  0.6761  0.5504  0.4677
 1723TIP3   OH229363   5.686   6.658  16.412 -0.3873  0.7574 -0.4527
 1723TIP3    H129364   5.621   6.698  16.470  0.2466  2.0747 -0.6146
 1723TIP3    H229365   5.691   6.716  16.337  2.8696  2.2867  0.7199
 1724TIP3   OH229366   5.086   6.373  14.198 -0.2204 -0.3595 -0.5630
 1724TIP3    H129367   5.125   6.404  14.117  0.1285  0.2380 -0.1702
 1724TIP3    H229368   4.999   6.342  14.172 -1.1582  2.1936 -0.7788
 1725TIP3   OH229369   4.912   4.066  15.957 -0.4883  0.0174 -0.1914
 1725TIP3    H129370   4.996   4.046  15.998 -1.6701 -3.0181  1.1317
 1725TIP3    H229371   4.918   4.028  15.870  0.0644  1.3417 -0.7452
 1726TIP3   OH229372   4.819   0.602  14.643  0.3983 -0.2507  0.5692
 1726TIP3    H129373   4.780   0.689  14.655 -1.2977 -0.9900  0.7087
 1726TIP3    H229374   4.745   0.546  14.622  1.5690 -1.5409 -0.2482
 1727TIP3   OH229375   4.227   6.280  14.568  0.3771 -0.3103 -0.1988
 1727TIP3    H129376   4.264   6.360  14.605 -2.6485  1.7702 -1.2802
 1727TIP3    H229377   4.219   6.220  14.643  0.2418  1.4052  1.2270
 1728TIP3   OH229378   1.563   1.764  15.993  0.3075 -0.2288  0.9522
 1728TIP3    H129379   1.563   1.797  16.083 -1.2560 -0.4350  1.0477
 1728TIP3    H229380   1.602   1.677  15.999  1.0279  0.1001  1.2703
 1729TIP3   OH229381   4.859   1.582  13.763  0.0080  0.3424 -0.0653
 1729TIP3    H129382   4.804   1.570  13.840  0.3392 -0.8064  0.0124
 1729TIP3    H229383   4.824   1.519  13.699  1.5592 -0.8384  0.1878
 1730TIP3   OH229384   5.057   2.795  13.834  0.3249 -0.2685 -0.3690
 1730TIP3    H129385   4.968   2.801  13.798  0.7821 -0.3343 -1.5655
 1730TIP3    H229386   5.108   2.753  13.765  1.6369  1.2466 -0.3760
 1731TIP3   OH229387   4.053   2.153  16.645  0.4679  0.1678  0.3019
 1731TIP3    H129388   4.086   2.066  16.668  0.7466  0.2354  0.1617
 1731TIP3    H229389   4.039   2.149  16.551 -0.7641 -0.1398  0.4824
 1732TIP3   OH229390   5.548   3.309  16.075  0.3964 -0.3452 -0.3854
 1732TIP3    H129391   5.553   3.313  16.171 -0.3205  2.8536 -0.3733
 1732TIP3    H229392   5.473   3.252  16.058 -0.0094 -0.2649  0.9868
 1733TIP3   OH229393   2.265   1.137  15.315  0.4938 -0.4233  1.2076
 1733TIP3    H129394   2.269   1.222  15.359  0.8768 -0.1631  0.6771
 1733TIP3    H229395   2.176   1.107  15.330  0.3432  0.0917  1.3750
 1734TIP3   OH229396   3.306   2.798  14.200  0.1694 -0.3179 -0.2324
 1734TIP3    H129397   3.312   2.720  14.256 -0.2282 -0.4168 -0.3257
 1734TIP3    H229398   3.368   2.859  14.239  0.2095 -0.5431  0.0673
 1735TIP3   OH229399   2.752   4.306  14.573 -0.5964 -0.4352 -0.3195
 1735TIP3    H129400   2.783   4.375  14.514 -1.1948 -0.4594 -0.6738
 1735TIP3    H229401   2.823   4.295  14.637  0.7057 -1.4035 -1.8554
 1736TIP3   OH229402   0.104   3.269  13.713  0.0409  0.9517  0.3521
 1736TIP3    H129403   0.192   3.303  13.725 -0.1948  2.0138 -0.7427
 1736TIP3    H229404   0.054   3.343  13.677 -1.3628  0.4561  1.1812
 1737TIP3   OH229405   3.077   4.941  14.331 -0.2474  0.4180 -0.1633
 1737TIP3    H129406   3.006   4.969  14.389  0.8039  2.1396  0.3408
 1737TIP3    H229407   3.143   4.904  14.390 -0.7704 -1.4106 -0.6509
 1738TIP3   OH229408   1.150   1.495  16.200  0.6156 -0.4849  0.9232
 1738TIP3    H129409   1.171   1.449  16.119  0.3665  2.0052 -0.6671
 1738TIP3    H229410   1.230   1.544  16.221  0.3764 -0.4057  1.6657
 1739TIP3   OH229411   0.902   4.369  13.543 -0.1305  0.2108  0.0992
 1739TIP3    H129412   0.826   4.343  13.595  0.7478 -2.5423  0.1333
 1739TIP3    H229413   0.864   4.413  13.466 -1.6663  0.1240  0.7631
 1740TIP3   OH229414   1.437   2.274  15.543  0.4485  0.2293  0.7010
 1740TIP3    H129415   1.395   2.188  15.539  0.8740  0.0481  0.0502
 1740TIP3    H229416   1.364   2.334  15.559 -0.3164  0.0698 -1.7757
 1741TIP3   OH229417   2.930   0.585  17.147 -0.4460 -0.2689  0.1919
 1741TIP3    H129418   2.977   0.522  17.200 -1.5826  0.8388  2.6798
 1741TIP3    H229419   2.930   0.666  17.199 -1.9615  0.7908 -1.3094
 1742TIP3   OH229420   1.804   0.831  15.089  0.0777  0.0652  0.3817
 1742TIP3    H129421   1.866   0.790  15.029 -1.8303 -1.5965 -0.5882
 1742TIP3    H229422   1.821   0.925  15.081  2.3773 -0.3049  0.1354
 1743TIP3   OH229423   3.907   1.588  14.260 -0.5778 -0.0989 -0.0483
 1743TIP3    H129424   3.916   1.527  14.333 -2.3551  2.4858  2.5869
 1743TIP3    H229425   3.972   1.656  14.278 -2.4148  1.6380  0.4536
 1744TIP3   OH229426   1.290   0.396  14.579 -0.4135  0.1135 -0.1427
 1744TIP3    H129427   1.209   0.378  14.627 -1.0182  0.4879 -0.9815
 1744TIP3    H229428   1.337   0.459  14.634 -1.8932  1.8850 -0.7857
 1745TIP3   OH229429   4.231   5.167  15.737 -0.2605  0.2802  0.0989
 1745TIP3    H129430   4.179   5.152  15.816 -0.7119 -0.2263 -0.2874
 1745TIP3    H229431   4.168   5.166  15.666  0.3726 -1.3429 -0.4884
 1746TIP3   OH229432   6.030   0.289  16.050 -0.6842 -0.3231  0.3277
 1746TIP3    H129433   6.033   0.370  16.000 -2.3631  1.0432  2.3283
 1746TIP3    H229434   6.121   0.257  16.049 -0.1905  1.0124 -1.3257
 1747TIP3   OH229435   3.536   1.408  15.722 -0.0137  0.2807 -0.1965
 1747TIP3    H129436   3.630   1.406  15.739  0.2143 -0.9854 -1.4104
 1747TIP3    H229437   3.501   1.465  15.790  1.3740 -0.8110  1.5317
 1748TIP3   OH229438   3.941   4.681  14.648 -0.3416 -0.1823 -0.0085
 1748TIP3    H129439   3.899   4.624  14.713 -1.0797  0.3765  0.0210
 1748TIP3    H229440   3.912   4.769  14.671 -0.9939 -0.0164 -1.3655
 1749TIP3   OH229441   6.099   0.742  14.607 -0.0109  0.7168  0.6166
 1749TIP3    H129442   6.077   0.834  14.619  1.0587  1.1544 -0.5654
 1749TIP3    H229443   6.024   0.706  14.559 -0.0460  1.1949  0.3040
 1750TIP3   OH229444   5.345   1.888  14.780  0.1464  0.5645 -0.7121
 1750TIP3    H129445   5.257   1.926  14.784  0.0068  0.2499 -0.7981
 1750TIP3    H229446   5.345   1.834  14.702 -0.0996 -0.7183  0.1437
 1751TIP3   OH229447   4.516   2.158  14.233  0.0409  0.0490  0.1729
 1751TIP3    H129448   4.596   2.165  14.180  0.0363  0.3701  0.2008
 1751TIP3    H229449   4.521   2.234  14.292  0.3852 -0.6834  1.1038
 1752TIP3   OH229450   4.077   2.951  13.741 -0.6236 -0.1143 -0.3488
 1752TIP3    H129451   4.131   2.892  13.689 -0.5412 -0.8437  0.5316
 1752TIP3    H229452   3.988   2.936  13.709 -0.5097 -0.1800 -0.6350
 1753TIP3   OH229453   5.006   4.519  16.096  0.1493  0.1904  0.3306
 1753TIP3    H129454   4.969   4.588  16.040  0.1756 -0.0650 -0.0041
 1753TIP3    H229455   5.040   4.566  16.172  0.8304  0.6308 -0.2348
 1754TIP3   OH229456   1.446   4.084  15.046  0.1764  0.4532 -0.6673
 1754TIP3    H129457   1.398   4.154  15.089 -1.8130 -1.1749 -0.1169
 1754TIP3    H229458   1.526   4.074  15.098 -0.5553  0.8436  0.5587
 1755TIP3   OH229459   0.448   2.246  14.699  0.6277  0.2543  0.9109
 1755TIP3    H129460   0.476   2.169  14.651 -0.1849 -0.0096  0.8473
 1755TIP3    H229461   0.417   2.307  14.632 -1.6556 -0.5803  1.1173
 1756TIP3   OH229462   3.387   6.586  14.671 -0.4057  0.0820  0.4054
 1756TIP3    H129463   3.478   6.576  14.641 -0.3804 -1.7491  0.9596
 1756TIP3    H229464   3.334   6.562  14.595 -0.3488 -3.1107  1.2527
 1757TIP3   OH229465   3.345   3.843  16.417  0.0465 -0.0414 -0.0615
 1757TIP3    H129466   3.309   3.755  16.426  1.6632 -0.7383 -0.0594
 1757TIP3    H229467   3.276   3.901  16.450 -1.6721 -1.1582 -1.5123
 1758TIP3   OH229468   1.527   6.138  15.752 -0.1515  0.4229 -0.1032
 1758TIP3    H129469   1.493   6.132  15.842  1.9845  0.9361  0.8100
 1758TIP3    H229470   1.597   6.073  15.749  0.1855  0.8240 -1.2400
 1759TIP3   OH229471   5.051   0.543  16.275  0.0201  0.1364 -0.3164
 1759TIP3    H129472   5.104   0.510  16.348  1.1028  2.5165  0.0688
 1759TIP3    H229473   4.981   0.593  16.317  0.2175  0.8966 -0.8558
 1760TIP3   OH229474   4.812   6.266  16.470 -0.6135  0.6388 -0.0915
 1760TIP3    H129475   4.882   6.327  16.446 -0.7312  0.7921 -0.0506
 1760TIP3    H229476   4.833   6.185  16.423 -1.3738  1.2313 -1.5327
 1761TIP3   OH229477   0.007   5.680  16.376  0.4733  0.3453  0.0076
 1761TIP3    H129478  -0.039   5.662  16.293 -1.3634  0.3509  0.9557
 1761TIP3    H229479   0.083   5.622  16.374 -0.1542 -0.4959 -1.2021
 1762TIP3   OH229480   2.962   2.430  16.950 -0.1764  0.1738  0.0950
 1762TIP3    H129481   3.043   2.395  16.914 -0.5547  0.0039 -0.6066
 1762TIP3    H229482   2.990   2.505  17.003  0.5891 -0.8532  1.2045
 1763TIP3   OH229483   1.434   2.368  16.700 -0.8655 -0.4959  0.4061
 1763TIP3    H129484   1.433   2.423  16.621 -2.6029  0.3189  0.9430
 1763TIP3    H229485   1.387   2.289  16.675 -0.8002 -0.5404  0.4234
 1764TIP3   OH229486   3.882   2.936  16.249 -0.3479 -0.2046 -0.1574
 1764TIP3    H129487   3.842   2.944  16.336 -1.9879 -1.0422 -0.8032
 1764TIP3    H229488   3.925   2.851  16.249 -1.6797 -0.9018 -0.6599
 1765TIP3   OH229489   6.685   4.802  14.457 -0.2031 -0.2497 -0.0894
 1765TIP3    H129490   6.766   4.766  14.492 -0.0214  1.2177  1.1264
 1765TIP3    H229491   6.694   4.897  14.469 -0.9373  0.1867 -2.4778
 1766TIP3   OH229492   0.761   2.598  15.679 -0.6778 -0.6317  0.2916
 1766TIP3    H129493   0.681   2.562  15.717 -0.6252 -2.5401 -1.2745
 1766TIP3    H229494   0.738   2.616  15.588 -0.4837  2.7749  0.7950
 1767TIP3   OH229495   4.753   5.846  16.982 -0.0933 -0.1091  0.1821
 1767TIP3    H129496   4.753   5.752  16.968  0.2476 -0.0113 -0.5100
 1767TIP3    H229497   4.826   5.863  17.040  0.0623 -0.2355  0.0239
 1768TIP3   OH229498   4.949   2.837  14.639  0.0407 -0.4930 -0.1551
 1768TIP3    H129499   4.997   2.784  14.576 -0.2082 -0.9563  0.0376
 1768TIP3    H229500   4.950   2.925  14.603 -1.3041 -0.9899 -1.5181
 1769TIP3   OH229501   3.733   6.320  14.863  0.2651  1.1154  0.7286
 1769TIP3    H129502   3.681   6.380  14.916 -1.5359 -0.7502  1.2204
 1769TIP3    H229503   3.681   6.308  14.784 -0.4918 -1.2711  1.5004
 1770TIP3   OH229504   4.016   0.775  15.849 -0.5533  0.7397 -0.5467
 1770TIP3    H129505   4.029   0.700  15.908 -1.5548  0.2986 -0.8660
 1770TIP3    H229506   3.925   0.767  15.821 -0.4029  1.5797 -1.2903
 1771TIP3   OH229507   4.406   1.345  15.870  0.0568 -0.0325  0.1917
 1771TIP3    H129508   4.480   1.402  15.850  1.3594 -1.8025 -0.3610
 1771TIP3    H229509   4.371   1.319  15.785 -0.8252  0.2872  0.4403
 1772TIP3   OH229510   5.898   5.037  14.870 -0.5349  0.1517 -0.4597
 1772TIP3    H129511   5.930   5.119  14.834 -0.0618  0.0628 -0.2435
 1772TIP3    H229512   5.929   5.037  14.961  0.0886 -0.5944 -0.6624
 1773TIP3   OH229513   3.787   1.020  14.254  0.1004  0.1879 -0.2824
 1773TIP3    H129514   3.833   0.937  14.241  0.3125  0.2883 -0.1753
 1773TIP3    H229515   3.772   1.054  14.166  2.3884  1.3459 -0.2999
 1774TIP3   OH229516   3.155   5.263  16.839 -0.2375 -0.3590 -0.3237
 1774TIP3    H129517   3.242   5.240  16.873 -1.0782  0.4946  2.7199
 1774TIP3    H229518   3.116   5.179  16.815  0.8397 -0.9046 -0.2295
 1775TIP3   OH229519   0.540   5.064  14.675 -0.1153 -0.2972 -0.1266
 1775TIP3    H129520   0.609   5.048  14.611 -0.0357  0.0288 -0.1253
 1775TIP3    H229521   0.553   5.155  14.702  0.3014 -0.6448  0.8857
 1776TIP3   OH229522   0.868   0.093  15.230 -0.0979 -0.0239  0.2248
 1776TIP3    H129523   0.900   0.162  15.288  1.0102  1.0313 -1.5580
 1776TIP3    H229524   0.945   0.066  15.181 -0.5928 -2.3027  0.5967
 1777TIP3   OH229525   1.987   0.244  15.912  0.0337 -0.2526  0.3851
 1777TIP3    H129526   2.017   0.154  15.899  0.3735 -0.3478  1.6910
 1777TIP3    H229527   1.911   0.235  15.971  0.1087  0.3093  0.5687
 1778TIP3   OH229528   0.708   2.111  15.574 -0.8463 -0.1829  0.1409
 1778TIP3    H129529   0.694   2.044  15.642 -3.0880  0.5185  0.4640
 1778TIP3    H229530   0.802   2.125  15.573 -0.1787 -3.6837 -0.2993
 1779TIP3   OH229531   5.298   6.059  16.824 -0.5543 -0.1823 -0.2884
 1779TIP3    H129532   5.209   6.042  16.791 -0.4721  0.3846 -0.8310
 1779TIP3    H229533   5.327   5.975  16.860  0.2748 -1.6184 -3.8466
 1780TIP3   OH229534   0.013   5.712  15.841 -0.5494  0.5948 -0.3671
 1780TIP3    H129535   0.006   5.652  15.915  1.2807  0.4816 -0.2386
 1780TIP3    H229536  -0.038   5.671  15.772 -0.8381 -0.1802  0.2951
 1781TIP3   OH229537   4.154   6.261  16.209 -0.4908  0.0478 -0.1577
 1781TIP3    H129538   4.067   6.225  16.192 -0.2186 -0.8413  0.2634
 1781TIP3    H229539   4.212   6.205  16.157 -0.3468  2.0277 -2.2760
 1782TIP3   OH229540   3.592   1.190  16.505  0.0241  0.2662 -0.4139
 1782TIP3    H129541   3.602   1.138  16.585 -1.8210  1.1423  0.4452
 1782TIP3    H229542   3.586   1.125  16.435 -0.3467 -0.6038  0.4027
 1783TIP3   OH229543   4.522   2.400  14.367  0.5313  0.1372  0.1969
 1783TIP3    H129544   4.523   2.495  14.369  1.6200  0.1395  1.6567
 1783TIP3    H229545   4.458   2.375  14.435 -0.8564 -0.2025 -1.1811
 1784TIP3   OH229546   1.303   3.114  16.202 -0.5841 -0.0789  0.3142
 1784TIP3    H129547   1.396   3.102  16.220 -0.3266 -1.0050 -1.3502
 1784TIP3    H229548   1.264   3.139  16.285  1.4440  2.1520  0.6717
 1785TIP3   OH229549   0.080   1.839  15.372  0.0773  0.2172  0.4274
 1785TIP3    H129550   0.136   1.910  15.340 -0.8759  0.0664 -1.7368
 1785TIP3    H229551   0.134   1.760  15.360 -0.0165  0.2409 -0.1793
 1786TIP3   OH229552   4.405   1.096  13.951  0.0147  0.0458 -0.8616
 1786TIP3    H129553   4.499   1.079  13.954  0.0498  0.0996 -1.5138
 1786TIP3    H229554   4.373   1.039  13.881 -0.5164 -0.3189 -0.3239
 1787TIP3   OH229555   2.219   2.219  14.348 -0.0386  0.2744  0.1574
 1787TIP3    H129556   2.309   2.244  14.327 -0.7475  1.3248 -1.9541
 1787TIP3    H229557   2.190   2.285  14.410 -0.6679  2.6833 -2.4877
 1788TIP3   OH229558   0.291   1.180  16.003 -0.0652  0.0299  0.1623
 1788TIP3    H129559   0.375   1.211  15.967 -0.3506 -0.6977 -1.1945
 1788TIP3    H229560   0.264   1.250  16.062  1.3343  0.4334  0.3689
 1789TIP3   OH229561   5.222   3.049  14.228  0.4870 -0.3728  0.0233
 1789TIP3    H129562   5.156   3.010  14.170  1.0665 -0.1769 -0.7894
 1789TIP3    H229563   5.289   3.082  14.168  1.4152 -0.7366  0.8464
 1790TIP3   OH229564   2.718   1.957  15.595  0.0975 -0.3155 -0.7061
 1790TIP3    H129565   2.677   2.017  15.533 -0.0715 -1.0994 -1.3694
 1790TIP3    H229566   2.677   1.978  15.679  0.2578  0.6902 -0.8724
 1791TIP3   OH229567   6.654   3.049  14.647 -0.3743 -0.1498 -0.7586
 1791TIP3    H129568   6.633   2.960  14.619  0.6038 -0.0065 -2.0504
 1791TIP3    H229569   6.601   3.104  14.589 -1.0996  0.1272  0.1433
 1792TIP3   OH229570   2.187   5.535  15.308 -0.6083 -0.2659 -0.2691
 1792TIP3    H129571   2.203   5.448  15.273 -3.4661 -0.4162 -1.4328
 1792TIP3    H229572   2.106   5.527  15.359  1.4660  0.7645  3.5823
 1793TIP3   OH229573   0.949   1.765  15.608 -0.2046 -0.3777 -0.2603
 1793TIP3    H129574   1.027   1.752  15.662 -1.1058  0.4346  1.3225
 1793TIP3    H229575   0.966   1.847  15.561 -0.1051 -0.2135  0.0642
 1794TIP3   OH229576   3.327   4.223  16.974 -0.1071 -0.2958 -0.1621
 1794TIP3    H129577   3.235   4.223  17.002 -0.3111  1.3352 -0.7318
 1794TIP3    H229578   3.328   4.170  16.894 -0.5753 -0.2682 -0.1895
 1795TIP3   OH229579   2.284   1.596  14.172  0.7403  0.1808  0.4165
 1795TIP3    H129580   2.336   1.625  14.247 -0.3251  2.3870  0.3836
 1795TIP3    H229581   2.307   1.657  14.102  0.4118 -0.7619 -0.5346
 1796TIP3   OH229582   4.014   3.396  17.052 -0.9337  0.4337 -0.0960
 1796TIP3    H129583   4.076   3.400  16.979 -0.8700  1.1093 -0.0101
 1796TIP3    H229584   4.006   3.302  17.071 -1.5655  0.1705 -1.4985
 1797TIP3   OH229585   4.045   3.217  16.464  0.3281 -0.6037 -0.3576
 1797TIP3    H129586   4.107   3.151  16.434 -1.3669 -3.4987  1.9677
 1797TIP3    H229587   4.087   3.259  16.539 -0.0215 -1.7885  0.5289
 1798TIP3   OH229588   1.151   5.455  17.138  0.0638 -1.2590  0.1533
 1798TIP3    H129589   1.125   5.367  17.113 -1.1526 -0.7828 -0.3336
 1798TIP3    H229590   1.088   5.512  17.095  1.6501 -0.0539 -0.6908
 1799TIP3   OH229591   5.554   6.667  15.742 -0.0567 -0.1102 -0.5457
 1799TIP3    H129592   5.546   6.598  15.676 -2.3316  0.6125 -1.1230
 1799TIP3    H229593   5.482   6.728  15.722 -0.6185  0.3381  2.3579
 1800TIP3   OH229594   3.696   0.625  14.940  0.3514 -0.3087 -0.0929
 1800TIP3    H129595   3.712   0.617  14.846  0.2739  0.4024 -0.1737
 1800TIP3    H229596   3.643   0.548  14.962  1.0737 -0.9294 -0.4597
 1801TIP3   OH229597   0.955   4.247  14.054 -0.4507  0.7593  0.2694
 1801TIP3    H129598   0.986   4.186  14.120  1.1925 -0.9215 -1.8841
 1801TIP3    H229599   1.021   4.317  14.052  0.2368  0.1091 -0.4613
 1802TIP3   OH229600   4.282   1.599  14.842 -0.3526 -0.0529 -0.0421
 1802TIP3    H129601   4.236   1.627  14.762  0.0397  0.0527 -0.2375
 1802TIP3    H229602   4.230   1.527  14.876  0.2100 -1.0183 -1.1547
 1803TIP3   OH229603   6.424   1.446  16.306 -0.8073  0.5702  0.2547
 1803TIP3    H129604   6.490   1.442  16.376 -1.4240  0.2979  0.8278
 1803TIP3    H229605   6.344   1.412  16.347 -1.3213  0.9552 -0.4201
 1804TIP3   OH229606   1.466   4.626  14.776  0.0648  0.3205 -0.4399
 1804TIP3    H129607   1.376   4.633  14.744  0.2777  1.1815 -0.8616
 1804TIP3    H229608   1.511   4.703  14.741  0.6205  0.6410  0.9038
 1805TIP3   OH229609   0.999   6.296  14.493  0.2003 -0.2986  0.5157
 1805TIP3    H129610   0.964   6.240  14.423  0.4345 -1.4106  1.2552
 1805TIP3    H229611   1.092   6.304  14.473  0.0067  0.6247 -0.0972
 1806TIP3   OH229612   3.961   2.280  14.125  0.0432 -0.1081 -0.1443
 1806TIP3    H129613   3.939   2.279  14.032 -0.0643 -0.2461 -0.1176
 1806TIP3    H229614   3.996   2.192  14.142 -1.1442 -0.5260  0.2372
 1807TIP3   OH229615   0.767   0.944  14.696  0.2573 -0.1971 -0.1252
 1807TIP3    H129616   0.737   0.905  14.613 -2.7001 -2.1312  1.6729
 1807TIP3    H229617   0.849   0.898  14.715  0.9838  0.2632 -1.8927
 1808TIP3   OH229618   0.806   5.564  14.008 -0.4512  0.1972 -0.2262
 1808TIP3    H129619   0.885   5.615  13.989 -0.5521  0.3483 -0.2364
 1808TIP3    H229620   0.738   5.629  14.023 -0.9874  0.0730 -1.9087
 1809TIP3   OH229621   3.141   0.163  15.482 -0.1563 -0.6036 -0.6109
 1809TIP3    H129622   3.166   0.071  15.469  1.8181 -0.3116  0.8076
 1809TIP3    H229623   3.200   0.212  15.425 -0.7446 -0.1552 -0.8452
 1810TIP3   OH229624   3.549   1.663  15.020 -0.0259 -0.1133 -0.1198
 1810TIP3    H129625   3.458   1.688  15.002  0.1688  3.0368  2.3311
 1810TIP3    H229626   3.547   1.631  15.111  1.4864  1.6933  0.6121
 1811TIP3   OH229627   1.450   3.743  16.609 -0.2691 -0.0446  0.0203
 1811TIP3    H129628   1.455   3.653  16.575  1.0920  0.2663 -0.6451
 1811TIP3    H229629   1.443   3.731  16.704 -0.0056 -0.8537 -0.0486
 1812TIP3   OH229630   1.994   0.837  14.860  0.2993 -0.5675  0.0532
 1812TIP3    H129631   2.038   0.906  14.910 -0.2552 -0.1755  0.0177
 1812TIP3    H229632   2.058   0.809  14.795  0.2858  0.4334 -0.4080
 1813TIP3   OH229633   2.336   6.536  14.055  0.1769  0.4196 -0.5570
 1813TIP3    H129634   2.357   6.598  13.986  1.1506 -0.6171 -1.2394
 1813TIP3    H229635   2.347   6.450  14.014 -0.4984 -0.2116  0.5312
 1814TIP3   OH229636   3.269   5.236  14.847  0.3407 -0.1600  0.2429
 1814TIP3    H129637   3.196   5.195  14.800  0.5592  1.1341 -1.3187
 1814TIP3    H229638   3.347   5.204  14.801  0.4812  2.7573 -1.7824
 1815TIP3   OH229639   4.653   4.750  16.619  0.4507  0.0797 -0.0487
 1815TIP3    H129640   4.721   4.692  16.654  0.2082 -0.0479  0.2152
 1815TIP3    H229641   4.580   4.692  16.599  1.0724 -0.0760 -2.1373
 1816TIP3   OH229642   6.322   4.667  15.261 -0.0874 -0.1147  0.5804
 1816TIP3    H129643   6.363   4.730  15.320  0.5382  0.9591 -0.9338
 1816TIP3    H229644   6.249   4.631  15.311  0.8360  0.2371  2.2357
 1817TIP3   OH229645   3.349   4.007  14.778  0.0833 -0.2903 -0.1689
 1817TIP3    H129646   3.353   4.100  14.757 -0.9395 -0.6291 -2.0746
 1817TIP3    H229647   3.403   3.965  14.711  0.2080 -1.1159  0.4294
 1818TIP3   OH229648   4.918   0.560  16.758 -0.4415 -0.3106 -0.4562
 1818TIP3    H129649   4.990   0.580  16.698  1.2035 -1.5787  1.0038
 1818TIP3    H229650   4.937   0.472  16.790 -1.7567 -0.0212  1.2555
 1819TIP3   OH229651   4.827   2.839  16.082 -0.2998  0.3930  0.9719
 1819TIP3    H129652   4.761   2.771  16.068  0.0019 -0.0373  1.6479
 1819TIP3    H229653   4.777   2.913  16.118 -0.7775  0.8668 -0.5508
 1820TIP3   OH229654   0.465   5.635  13.887  1.1166 -0.4784 -0.4953
 1820TIP3    H129655   0.509   5.683  13.817 -0.5549  1.5714 -0.2528
 1820TIP3    H229656   0.509   5.662  13.967 -0.6684  1.8322 -0.2179
 1821TIP3   OH229657   3.599   6.252  14.631  0.5580 -0.5520  0.1158
 1821TIP3    H129658   3.538   6.269  14.560  0.5233  1.3577  0.5449
 1821TIP3    H229659   3.681   6.226  14.587  0.0336 -1.1626 -0.5234
 1822TIP3   OH229660   1.645   3.503  16.716  0.8101 -0.5283 -0.4974
 1822TIP3    H129661   1.707   3.444  16.759  0.1534 -1.2788 -0.5673
 1822TIP3    H229662   1.589   3.534  16.786 -1.0997 -2.7669 -0.9104
 1823TIP3   OH229663   4.039   2.996  15.340  0.5603 -0.3538  0.0226
 1823TIP3    H129664   4.025   2.930  15.272 -1.9704 -1.6881  1.6828
 1823TIP3    H229665   3.987   3.071  15.312 -1.2548 -1.2447  0.8143
 1824TIP3   OH229666   5.114   4.314  14.851  0.6271  0.3230  0.1149
 1824TIP3    H129667   5.105   4.259  14.929  1.5271  0.6417  0.4575
 1824TIP3    H229668   5.032   4.301  14.803 -0.5372  1.1487  1.7682
 1825TIP3   OH229669   4.896   1.588  17.047  0.0604 -0.1293 -0.2405
 1825TIP3    H129670   4.800   1.583  17.047 -0.0703  0.8252  2.1164
 1825TIP3    H229671   4.915   1.670  17.002 -0.2821 -0.0481 -0.2463
 1826TIP3   OH229672   4.108   5.977  15.788  0.1455 -0.1341  0.0161
 1826TIP3    H129673   4.077   5.887  15.791  0.7464 -0.4192 -1.4537
 1826TIP3    H229674   4.028   6.030  15.784 -0.2616 -0.4692  2.1786
 1827TIP3   OH229675   4.250   5.008  17.311  0.1225 -0.5704 -0.1909
 1827TIP3    H129676   4.184   5.053  17.259  1.3470  1.8766  0.2054
 1827TIP3    H229677   4.201   4.958  17.376 -1.3415  1.1778  0.1030
 1828TIP3   OH229678   5.528   2.512  16.868  0.1902 -0.7579 -0.2082
 1828TIP3    H129679   5.447   2.461  16.871 -0.4733 -0.0824 -3.0958
 1828TIP3    H229680   5.579   2.471  16.797  0.5423  1.2593 -1.2059
 1829TIP3   OH229681   0.041   5.323  16.729 -0.1137  0.3949 -0.0945
 1829TIP3    H129682   0.009   5.339  16.818 -0.0288 -0.4950  0.1102
 1829TIP3    H229683   0.106   5.391  16.713 -0.4516  0.8270  0.3567
 1830TIP3   OH229684   3.610   1.680  14.645  0.0796 -0.0237  0.1078
 1830TIP3    H129685   3.646   1.695  14.732  0.6824 -1.0525  0.0491
 1830TIP3    H229686   3.535   1.621  14.660  0.5630 -0.7076 -0.1185
 1831TIP3   OH229687   6.302   5.603  17.325 -0.8662 -0.3935 -0.1030
 1831TIP3    H129688   6.233   5.541  17.353 -1.4160  0.1157 -0.3098
 1831TIP3    H229689   6.281   5.684  17.371  0.7751 -0.7653  1.4307
 1832TIP3   OH229690   0.410   0.694  14.064  0.2573  0.7282  0.3718
 1832TIP3    H129691   0.496   0.699  14.023  0.6313 -1.2172  0.8493
 1832TIP3    H229692   0.378   0.607  14.043 -1.0747  0.9666  1.2580
 1833TIP3   OH229693   4.247   2.639  15.633  0.1278 -0.0500  0.2083
 1833TIP3    H129694   4.286   2.719  15.668 -1.0245  0.5202  0.2244
 1833TIP3    H229695   4.216   2.663  15.546 -1.0816 -0.1930  0.5805
 1834TIP3   OH229696   2.213   4.432  15.798  0.3805 -0.1168  0.4337
 1834TIP3    H129697   2.184   4.380  15.873  2.9722 -0.4594  1.2811
 1834TIP3    H229698   2.229   4.368  15.729 -0.4798  0.0427  0.0670
 1835TIP3   OH229699   0.928   5.464  15.730  0.0507  0.1441  0.1502
 1835TIP3    H129700   1.022   5.476  15.717 -0.0692 -0.4410 -1.3937
 1835TIP3    H229701   0.888   5.529  15.673 -0.4940 -0.7805 -0.5335
 1836TIP3   OH229702   2.948   4.869  15.802  0.3856  0.2110  0.5000
 1836TIP3    H129703   3.025   4.817  15.778 -0.0754 -0.3050  0.1230
 1836TIP3    H229704   2.927   4.918  15.722 -0.1618 -0.2636  0.3485
 1837TIP3   OH229705   2.027   1.587  14.888 -0.1523  0.3343  0.4892
 1837TIP3    H129706   1.960   1.612  14.952 -0.8430 -2.7286  1.1092
 1837TIP3    H229707   2.103   1.562  14.941 -0.5227 -1.6483  0.1385
 1838TIP3   OH229708   2.250   3.838  14.023  0.1295  0.1007 -0.4986
 1838TIP3    H129709   2.183   3.771  14.033 -1.0934  0.9471 -2.3647
 1838TIP3    H229710   2.202   3.921  14.030  1.3462  0.7694  0.2334
 1839TIP3   OH229711   3.444   2.891  14.583 -0.5889  0.2818 -0.4864
 1839TIP3    H129712   3.493   2.956  14.533  1.7111  0.4185  1.7370
 1839TIP3    H229713   3.476   2.807  14.551 -1.1340  0.2816 -1.0641
 1840TIP3   OH229714   3.073   6.231  16.337 -0.6111 -0.1717  0.1750
 1840TIP3    H129715   3.024   6.176  16.275  2.2109 -3.3519  0.4758
 1840TIP3    H229716   3.015   6.237  16.414 -1.7944 -1.1390 -0.5934
 1841TIP3   OH229717   6.633   3.958  15.430 -0.1785 -0.0196  0.2205
 1841TIP3    H129718   6.667   3.934  15.344 -0.4999 -1.9144  0.5840
 1841TIP3    H229719   6.538   3.962  15.418 -0.1647  0.5965  0.2901
 1842TIP3   OH229720   3.881   5.758  16.487 -0.0981 -0.1432 -0.3555
 1842TIP3    H129721   3.816   5.689  16.494 -0.8229  0.5004 -0.5651
 1842TIP3    H229722   3.964   5.712  16.477 -0.2674 -1.0154  1.7447
 1843TIP3   OH229723   3.675   0.643  15.549  0.1756  0.2558 -0.0455
 1843TIP3    H129724   3.655   0.656  15.456  0.8411 -0.1543 -0.2561
 1843TIP3    H229725   3.590   0.645  15.592 -0.0814  1.1590 -0.5735
 1844TIP3   OH229726   5.803   4.757  16.517 -0.1579  0.5048  0.6269
 1844TIP3    H129727   5.738   4.814  16.475 -2.5786 -1.6956  1.1227
 1844TIP3    H229728   5.770   4.744  16.605  2.0365  0.7944  1.5560
 1845TIP3   OH229729   5.626   4.262  16.382 -0.1732  0.0928  0.3542
 1845TIP3    H129730   5.694   4.205  16.418  0.9359  0.5715 -0.9239
 1845TIP3    H229731   5.648   4.271  16.290 -0.8206  1.9080  0.3481
 1846TIP3   OH229732   6.646   4.524  14.379  0.5328 -0.1536  0.1079
 1846TIP3    H129733   6.600   4.460  14.434  0.5586  0.3342  0.7099
 1846TIP3    H229734   6.603   4.608  14.400 -0.7691 -0.2104 -2.0335
 1847TIP3   OH229735   0.711   3.468  14.897  0.2755 -0.5217  0.1150
 1847TIP3    H129736   0.630   3.506  14.931  0.0634 -1.5525  0.8011
 1847TIP3    H229737   0.780   3.525  14.932 -0.0673 -0.4479  0.6981
 1848TIP3   OH229738   3.713   3.622  16.872  0.8532 -0.2475 -0.0372
 1848TIP3    H129739   3.633   3.614  16.821  1.0995 -1.4889 -0.2509
 1848TIP3    H229740   3.775   3.564  16.829  1.5042 -0.2280  0.8413
 1849TIP3   OH229741   0.451   6.702  16.916 -0.1681  0.3240 -0.2390
 1849TIP3    H129742   0.442   6.658  16.832  0.0601 -1.8927  0.8335
 1849TIP3    H229743   0.363   6.733  16.936 -0.2135  0.9432 -1.2890
 1850TIP3   OH229744   2.217   0.069  14.834 -0.3418 -0.2385  0.0330
 1850TIP3    H129745   2.215  -0.023  14.861 -0.0445 -0.0371  0.7498
 1850TIP3    H229746   2.294   0.076  14.778 -0.4853 -0.4707 -0.1983
 1851TIP3   OH229747   2.040   5.972  16.049  0.1260 -0.0514  0.3854
 1851TIP3    H129748   2.020   5.951  16.140  1.3286 -0.2033  0.6325
 1851TIP3    H229749   2.046   6.068  16.048  0.8218 -0.0870  0.6335
 1852TIP3   OH229750   2.125   3.937  15.400  0.2671 -0.2967  0.1087
 1852TIP3    H129751   2.083   4.023  15.405  0.7015  0.0724 -1.8128
 1852TIP3    H229752   2.217   3.953  15.422  0.4188 -0.1974 -0.5818
 1853TIP3   OH229753   5.260   4.970  14.935  0.7663  0.0374  0.1924
 1853TIP3    H129754   5.253   5.044  14.996 -0.8856 -1.5859  2.1259
 1853TIP3    H229755   5.345   4.931  14.954  1.4574  1.1147 -0.5342
 1854TIP3   OH229756   0.328   2.746  13.960 -0.1880  0.3279  0.3932
 1854TIP3    H129757   0.392   2.775  14.025  2.0799 -1.0252 -1.0675
 1854TIP3    H229758   0.260   2.702  14.010 -0.0474  1.8513  2.0234
 1855TIP3   OH229759   1.297   0.937  16.310 -0.2840  0.1762 -0.2167
 1855TIP3    H129760   1.316   0.844  16.299  1.0899  0.4169 -0.0586
 1855TIP3    H229761   1.204   0.940  16.333 -0.1572 -1.2047  0.5643
 1856TIP3   OH229762   5.957   3.539  16.709  0.0746 -0.5057  0.5693
 1856TIP3    H129763   6.050   3.538  16.731 -0.0016  1.0688  1.0638
 1856TIP3    H229764   5.916   3.486  16.778  0.5761 -1.0195  0.4763
 1857TIP3   OH229765   2.264   3.801  16.933  0.5473 -0.1457 -0.2569
 1857TIP3    H129766   2.267   3.707  16.947  1.6306 -0.1363 -0.2923
 1857TIP3    H229767   2.184   3.830  16.975  0.1926 -1.0867 -0.2731
 1858TIP3   OH229768   4.877   0.320  16.147 -0.6959  0.0169  0.5132
 1858TIP3    H129769   4.961   0.303  16.105 -1.1920 -0.2752 -0.3783
 1858TIP3    H229770   4.882   0.411  16.176  0.3225 -0.3107  1.4196
 1859TIP3   OH229771   0.827   4.570  15.588  0.1646 -0.0396 -0.3519
 1859TIP3    H129772   0.912   4.615  15.585  0.2719 -0.2547 -0.6389
 1859TIP3    H229773   0.806   4.565  15.681  0.3359  0.2590 -0.2932
 1860TIP3   OH229774   3.069   2.899  14.087 -0.1725  0.1178 -0.4429
 1860TIP3    H129775   3.079   2.966  14.020  0.5403 -2.0505 -2.6733
 1860TIP3    H229776   3.159   2.876  14.111 -0.3916 -0.3914 -0.0858
 1861TIP3   OH229777   3.491   3.958  14.101  0.8449  0.3643 -0.6449
 1861TIP3    H129778   3.404   3.966  14.138  1.0088  1.1242 -0.4198
 1861TIP3    H229779   3.476   3.923  14.012  0.4844 -1.9568  0.2455
 1862TIP3   OH229780   5.557   4.166  14.958 -0.0086 -0.2246 -0.0973
 1862TIP3    H129781   5.483   4.202  15.009  0.9345 -1.2291  2.0899
 1862TIP3    H229782   5.633   4.214  14.991  0.4060  0.6962 -2.2364
 1863TIP3   OH229783   6.622   3.233  16.412 -0.0834  0.3491  0.1018
 1863TIP3    H129784   6.605   3.139  16.405  1.8927 -0.1310  1.1665
 1863TIP3    H229785   6.622   3.250  16.506  1.1561  1.0781 -0.0114
 1864TIP3   OH229786   5.786   0.466  14.016 -0.2822  0.4341 -0.4135
 1864TIP3    H129787   5.856   0.451  13.952 -0.3201 -0.3773 -0.2830
 1864TIP3    H229788   5.785   0.560  14.030 -0.5685  0.6746 -1.9464
 1865TIP3   OH229789   1.314   1.454  13.799  0.5633  0.3543 -0.6603
 1865TIP3    H129790   1.407   1.465  13.819  0.4298 -0.3179  0.3970
 1865TIP3    H229791   1.268   1.474  13.881 -0.3186  1.6924 -1.4330
 1866TIP3   OH229792   2.490   4.139  13.091  0.2277 -0.1168  0.8033
 1866TIP3    H129793   2.405   4.107  13.063 -0.4271  0.1507  2.4221
 1866TIP3    H229794   2.486   4.234  13.076  0.4250 -0.1569  0.4671
 1867TIP3   OH229795   0.318   5.391  16.151 -0.4663  0.0431 -0.3369
 1867TIP3    H129796   0.386   5.333  16.185  1.0439  1.9224 -0.0277
 1867TIP3    H229797   0.358   5.434  16.075 -0.6554  2.3678  0.7954
 1868TIP3   OH229798   4.733   1.949  14.533 -0.2019 -0.7943 -0.1624
 1868TIP3    H129799   4.766   1.988  14.614  0.8432 -0.2814 -0.8107
 1868TIP3    H229800   4.797   1.975  14.466 -1.0382 -1.2158 -1.1522
 1869TIP3   OH229801   6.443   4.167  15.249 -0.0309 -0.2113  0.4033
 1869TIP3    H129802   6.497   4.182  15.326  0.4000 -0.9635  0.2690
 1869TIP3    H229803   6.433   4.253  15.209 -1.0466  0.3379  1.7970
 1870TIP3   OH229804   4.404   3.371  15.757  0.3164 -0.1832 -0.6091
 1870TIP3    H129805   4.336   3.345  15.820  0.7013  0.5607  0.1174
 1870TIP3    H229806   4.434   3.288  15.719 -0.8475 -0.5419 -0.7970
 1871TIP3   OH229807   0.567   1.542  15.381 -0.5507 -0.3636 -0.1226
 1871TIP3    H129808   0.595   1.618  15.433 -0.7585  0.5673 -1.3190
 1871TIP3    H229809   0.645   1.487  15.374 -0.2937 -0.0794  0.4502
 1872TIP3   OH229810   3.025   0.921  15.244 -0.1289 -0.0615 -0.2304
 1872TIP3    H129811   3.031   0.825  15.243  1.9242 -0.0065  1.4746
 1872TIP3    H229812   3.099   0.950  15.190 -0.4120  0.5689 -0.2865
 1873TIP3   OH229813   0.499   5.818  16.987 -0.4603  0.1764 -0.4816
 1873TIP3    H129814   0.503   5.729  16.952 -0.5136 -0.6041  1.3987
 1873TIP3    H229815   0.405   5.840  16.986 -0.8119 -0.9178  1.5786
 1874TIP3   OH229816   3.245   4.504  16.921  0.0030 -0.3107  0.1219
 1874TIP3    H129817   3.263   4.434  16.859 -1.8400  0.4410 -1.3321
 1874TIP3    H229818   3.151   4.520  16.914  0.0338  0.9805  1.8639
 1875TIP3   OH229819   0.807   4.833  16.289 -0.1566 -0.3733 -0.2327
 1875TIP3    H129820   0.745   4.899  16.320 -1.0008 -1.4219  0.3723
 1875TIP3    H229821   0.891   4.879  16.287 -0.7824  0.8301 -0.2195
 1876TIP3   OH229822   1.889   3.808  15.899 -0.0171  0.0414  0.2199
 1876TIP3    H129823   1.869   3.885  15.845  0.3884  0.9438  1.3129
 1876TIP3    H229824   1.812   3.752  15.890  0.2347 -0.0496 -1.6378
 1877TIP3   OH229825   0.166   0.324  14.456  0.1194 -1.1421  0.6387
 1877TIP3    H129826   0.235   0.372  14.411  1.1341 -1.4852  1.7513
 1877TIP3    H229827   0.114   0.284  14.386 -1.2412  2.0978 -0.3712
 1878TIP3   OH229828   2.280   0.312  15.116  0.0231  0.0782  0.0043
 1878TIP3    H129829   2.192   0.317  15.079  0.0668 -1.7473 -0.4353
 1878TIP3    H229830   2.269   0.332  15.209 -0.8947 -0.3645 -0.0010
 1879TIP3   OH229831   2.985   5.220  15.879 -0.0667  0.9052  0.0803
 1879TIP3    H129832   2.919   5.176  15.823 -0.9100  0.3030  1.4926
 1879TIP3    H229833   2.999   5.305  15.837 -0.4835  0.3810 -1.1827
 1880TIP3   OH229834   0.591   3.861  15.298  0.5244  0.3375  0.2350
 1880TIP3    H129835   0.573   3.885  15.208  0.1362  0.9394  0.4683
 1880TIP3    H229836   0.655   3.925  15.329  0.2994  0.4246  0.5304
 1881TIP3   OH229837   0.071   0.280  15.832 -0.2008 -0.1047 -0.1831
 1881TIP3    H129838   0.028   0.213  15.777 -1.1754  1.8505 -1.9633
 1881TIP3    H229839   0.002   0.307  15.893 -0.3908  0.5135 -0.6635
 1882TIP3   OH229840   2.196   2.606  16.932 -0.7066  0.1389  0.0400
 1882TIP3    H129841   2.246   2.627  16.853  0.1573  1.5448  0.9200
 1882TIP3    H229842   2.138   2.681  16.946 -1.4546 -0.4689  0.2851
 1883TIP3   OH229843   4.835   2.400  15.993 -0.0378 -0.9441  0.1927
 1883TIP3    H129844   4.865   2.325  15.942  0.0295 -1.9793  1.6727
 1883TIP3    H229845   4.916   2.441  16.026 -0.0102  0.5532 -1.5827
 1884TIP3   OH229846   1.046   0.343  14.374  0.1170  0.2902  0.4347
 1884TIP3    H129847   1.129   0.305  14.403  0.7500  0.3373 -1.2345
 1884TIP3    H229848   0.981   0.277  14.397  0.8935 -0.7049 -0.1530
 1885TIP3   OH229849   2.245   3.259  14.133 -0.6190 -0.5553 -0.1790
 1885TIP3    H129850   2.190   3.210  14.194 -0.3065 -0.6598  0.0215
 1885TIP3    H229851   2.244   3.207  14.052 -1.2049 -0.3065 -0.3314
 1886TIP3   OH229852   2.856   0.227  15.584  0.4308 -0.4593 -0.0000
 1886TIP3    H129853   2.832   0.279  15.508  0.9815 -0.7246 -0.3676
 1886TIP3    H229854   2.949   0.247  15.598 -0.3153  1.9319  2.4597
 1887TIP3   OH229855   6.420   3.039  15.664 -0.1405  0.5378  0.0791
 1887TIP3    H129856   6.434   3.056  15.757 -0.8607 -1.3098  0.5832
 1887TIP3    H229857   6.508   3.034  15.627  0.5154 -3.4824  1.6969
 1888TIP3   OH229858   5.505   2.417  16.603 -0.0105  0.4054  0.4904
 1888TIP3    H129859   5.412   2.396  16.595  0.3180 -0.3946 -2.0344
 1888TIP3    H229860   5.521   2.481  16.534  1.5902 -0.6134 -0.1436
 1889TIP3   OH229861   2.444   6.413  15.637 -0.1049 -0.4924  0.3407
 1889TIP3    H129862   2.426   6.407  15.543 -1.4747 -0.0585  0.5640
 1889TIP3    H229863   2.540   6.408  15.643  0.0749  0.5019 -1.1539
 1890TIP3   OH229864   4.712   3.592  16.591  0.0695  0.4322 -0.4881
 1890TIP3    H129865   4.682   3.671  16.637  0.8699  0.8207 -0.6172
 1890TIP3    H229866   4.806   3.607  16.577  0.5555 -1.1756  0.7859
 1891TIP3   OH229867   4.154   2.999  15.773 -0.4112  0.4495  0.3833
 1891TIP3    H129868   4.112   3.077  15.735 -1.0377 -0.5798 -1.1323
 1891TIP3    H229869   4.110   2.925  15.730 -0.0952 -0.7634  2.0682
 1892TIP3   OH229870   0.746   6.210  15.849 -0.1492  0.0283  0.2344
 1892TIP3    H129871   0.730   6.259  15.768 -1.1910  0.9560  0.9620
 1892TIP3    H229872   0.840   6.190  15.847 -0.3363 -0.8225 -1.6463
 1893TIP3   OH229873   1.204   2.851  14.870  0.2449 -0.1475 -0.3402
 1893TIP3    H129874   1.225   2.942  14.888  0.4370 -0.0503 -1.0094
 1893TIP3    H229875   1.289   2.807  14.863  0.2165 -0.0570 -1.5511
 1894TIP3   OH229876   5.987   6.240  15.794 -0.3890 -0.4007  0.1367
 1894TIP3    H129877   6.023   6.218  15.880  0.5573 -2.3339 -0.7028
 1894TIP3    H229878   5.923   6.171  15.777 -2.1207  1.1183  0.1289
 1895TIP3   OH229879   0.977   4.458  15.990  0.0859 -0.4704  0.2639
 1895TIP3    H129880   1.015   4.541  15.959 -0.6201  1.0852  3.1627
 1895TIP3    H229881   1.051   4.399  15.997  1.2291  0.9939  1.2423
 1896TIP3   OH229882   0.370   2.933  15.623  0.6148 -0.3250  0.4456
 1896TIP3    H129883   0.435   2.976  15.568 -1.4890  1.0301 -1.1642
 1896TIP3    H229884   0.347   3.000  15.688  0.0056 -0.3570  0.2667
 1897TIP3   OH229885   2.835   1.167  16.589 -0.3191 -0.0599  0.5028
 1897TIP3    H129886   2.833   1.190  16.682 -2.9511  1.9381  0.0807
 1897TIP3    H229887   2.861   1.075  16.587 -0.8494 -0.3473  3.2711
 1898TIP3   OH229888   3.171   0.983  16.161 -0.0021  0.0157  0.5469
 1898TIP3    H129889   3.208   0.968  16.248 -2.4432  0.7729  1.8068
 1898TIP3    H229890   3.155   1.077  16.157 -1.3141 -0.2073 -0.0937
 1899TIP3   OH229891   6.488   1.991  14.829  0.3400  0.2035  0.1577
 1899TIP3    H129892   6.453   1.921  14.775  0.2607 -0.4219  0.9914
 1899TIP3    H229893   6.414   2.019  14.883  0.5448  0.4535  0.3097
 1900TIP3   OH229894   0.032   0.306  14.707 -0.2530 -0.1667  0.0845
 1900TIP3    H129895   0.055   0.281  14.617  1.3342 -0.6094  0.5673
 1900TIP3    H229896  -0.024   0.235  14.738 -0.3851 -0.2759 -0.3952
 1901TIP3   OH229897   5.197   1.969  14.216 -0.5268  0.2901 -0.7762
 1901TIP3    H129898   5.234   1.930  14.137  0.5336 -0.3606  0.0054
 1901TIP3    H229899   5.264   2.031  14.245 -1.1833  0.9887 -0.7246
 1902TIP3   OH229900   3.221   2.040  15.877  0.7640 -0.3963  0.3361
 1902TIP3    H129901   3.277   2.106  15.837  1.3636 -1.7130 -1.1478
 1902TIP3    H229902   3.158   2.017  15.808 -2.1077  1.4495  2.1246
 1903TIP3   OH229903   2.944   5.455  15.737 -0.1120  0.1936 -0.2798
 1903TIP3    H129904   2.992   5.480  15.657  0.3655  1.1874  0.2917
 1903TIP3    H229905   2.892   5.533  15.758 -0.1700 -0.0343  0.4235
 1904TIP3   OH229906   6.172   3.273  15.849  0.0635  0.2837  0.1936
 1904TIP3    H129907   6.128   3.212  15.791 -2.7935  1.6860  0.6841
 1904TIP3    H229908   6.212   3.218  15.916  1.2185 -1.2093 -1.6299
 1905TIP3   OH229909   4.686   3.304  15.692  0.2345 -0.1997 -0.1771
 1905TIP3    H129910   4.748   3.317  15.621  0.1998  1.2572  0.0225
 1905TIP3    H229911   4.604   3.339  15.659  0.5885  2.0505  1.0922
 1906TIP3   OH229912   2.775   3.448  14.783  0.3753 -0.2946  0.2602
 1906TIP3    H129913   2.683   3.421  14.780  0.3168 -0.0694 -0.1100
 1906TIP3    H229914   2.824   3.369  14.760  0.2324 -0.2272 -0.2958
 1907TIP3   OH229915   6.310   5.143  14.684  0.2707  0.0541 -0.3653
 1907TIP3    H129916   6.386   5.087  14.677 -0.2266 -0.7270  0.3232
 1907TIP3    H229917   6.327   5.215  14.623  2.6488  1.2050  1.5088
 1908TIP3   OH229918   1.742   5.771  15.449 -0.0917  0.2562  0.2722
 1908TIP3    H129919   1.717   5.850  15.497  0.0148 -0.1488  1.0061
 1908TIP3    H229920   1.829   5.750  15.481  0.4598  0.6109 -0.9282
 1909TIP3   OH229921   3.451   1.291  15.315 -0.3919 -0.3964  0.6846
 1909TIP3    H129922   3.450   1.220  15.251  2.2978  0.6397 -0.6885
 1909TIP3    H229923   3.492   1.253  15.393  0.6810 -0.5009  0.0911
 1910TIP3   OH229924   3.556   0.813  14.086 -0.1111  0.1786  0.3889
 1910TIP3    H129925   3.577   0.902  14.116  0.9235  0.3573 -0.7960
 1910TIP3    H229926   3.475   0.824  14.035  0.9801  0.8059 -1.3070
 1911TIP3   OH229927   0.703   2.027  17.030  0.9650  0.3111  0.2747
 1911TIP3    H129928   0.676   2.105  17.077 -0.2569  0.3381 -0.4235
 1911TIP3    H229929   0.799   2.027  17.035  0.8888  0.0480  3.1304
 1912TIP3   OH229930   1.087   4.167  16.036 -0.3392  0.0834  0.4288
 1912TIP3    H129931   1.178   4.197  16.035 -0.0658 -0.6914 -0.8825
 1912TIP3    H229932   1.052   4.200  16.118  1.0992  0.4874  0.9160
 1913TIP3   OH229933   0.728   5.700  16.660  0.3503  0.0390 -0.1549
 1913TIP3    H129934   0.782   5.743  16.727  0.7564  0.9135 -1.0276
 1913TIP3    H229935   0.651   5.670  16.708  1.5613 -1.2193  1.1223
 1914TIP3   OH229936   4.845   4.499  15.279  0.2367 -0.0770 -0.6321
 1914TIP3    H129937   4.817   4.441  15.350  2.0993  1.5955  1.6399
 1914TIP3    H229938   4.831   4.448  15.199 -0.3746 -2.7138  1.0224
 1915TIP3   OH229939   5.639   5.359  15.416  0.1208  0.0003  0.3398
 1915TIP3    H129940   5.725   5.398  15.433  1.1090 -1.4252 -1.1248
 1915TIP3    H229941   5.588   5.379  15.495  2.0478  0.1827  1.6090
 1916TIP3   OH229942   0.185   3.338  15.004  0.5552 -0.3121  0.5800
 1916TIP3    H129943   0.193   3.397  14.930  0.3179  0.4265  1.1242
 1916TIP3    H229944   0.275   3.319  15.029  0.6946  1.4330  1.6216
 1917TIP3   OH229945   1.104   3.984  14.577  0.6325 -0.5256 -0.2564
 1917TIP3    H129946   1.108   4.079  14.590  4.7903 -0.8506  3.5129
 1917TIP3    H229947   1.021   3.957  14.616  0.9340  1.3716  1.9203
 1918TIP3   OH229948   5.898   5.702  16.946 -1.1542  0.2308 -0.0362
 1918TIP3    H129949   5.892   5.796  16.927  0.2200  0.1016 -1.3186
 1918TIP3    H229950   5.988   5.689  16.976 -1.0461 -0.8097 -0.7514
 1919TIP3   OH229951   1.588   3.058  16.252  0.2067 -0.2735  0.0803
 1919TIP3    H129952   1.592   2.969  16.289  0.1082  0.2997  1.5411
 1919TIP3    H229953   1.601   3.045  16.158  1.2159 -1.7470  0.3776
 1920TIP3   OH229954   0.895   1.485  15.500  0.4263  0.7658  0.1320
 1920TIP3    H129955   0.898   1.575  15.535  1.1052  0.1456  1.7628
 1920TIP3    H229956   0.986   1.455  15.504  0.6806  0.8292 -2.8171
 1921TIP3   OH229957   3.497   1.410  13.648  0.2784  0.4033 -0.5835
 1921TIP3    H129958   3.556   1.344  13.611  2.7195  1.7571  0.5865
 1921TIP3    H229959   3.453   1.365  13.720 -0.9708 -0.9340 -2.1238
 1922TIP3   OH229960   3.880   6.218  16.196  0.1172 -0.1999  0.1532
 1922TIP3    H129961   3.843   6.233  16.109  2.5905 -0.1671 -0.9470
 1922TIP3    H229962   3.861   6.126  16.216 -0.3910 -0.2242 -0.4281
 1923TIP3   OH229963   4.283   2.023  16.230 -0.0257  0.0000 -0.2779
 1923TIP3    H129964   4.308   1.933  16.208  0.9777  0.3478 -0.5850
 1923TIP3    H229965   4.329   2.041  16.312 -1.9469 -0.4938  0.9881
 1924TIP3   OH229966   6.274   2.425  14.246 -0.2530 -0.2236 -0.9515
 1924TIP3    H129967   6.343   2.426  14.179 -0.0617  1.4000 -0.7661
 1924TIP3    H229968   6.196   2.395  14.200  0.2731 -0.7871 -1.4852
 1925TIP3   OH229969   6.339   5.829  15.162 -0.0709  0.0251  0.3350
 1925TIP3    H129970   6.312   5.738  15.149  0.3533 -0.0133 -0.3007
 1925TIP3    H229971   6.262   5.880  15.137  0.0034 -0.1298 -0.2274
 1926TIP3   OH229972   0.838   0.915  15.842 -0.0456 -0.5496  0.1406
 1926TIP3    H129973   0.849   0.856  15.917  2.8302 -1.1906 -0.6816
 1926TIP3    H229974   0.844   0.859  15.765  0.2738  0.5013 -0.6298
 1927TIP3   OH229975   5.962   2.629  15.528 -0.1836 -0.2520  0.0126
 1927TIP3    H129976   5.940   2.719  15.507 -0.0433 -0.3796 -0.7166
 1927TIP3    H229977   5.887   2.578  15.496 -0.2860 -0.3881  0.4698
 1928TIP3   OH229978   5.831   4.546  14.464 -0.6020 -0.1920  0.1356
 1928TIP3    H129979   5.878   4.569  14.384  1.6791  0.8686  1.6768
 1928TIP3    H229980   5.739   4.567  14.445  0.2043  2.3838 -1.4035
 1929TIP3   OH229981   6.424   0.597  16.761 -0.1728  0.1882  0.3566
 1929TIP3    H129982   6.434   0.679  16.711  1.3292 -0.2582 -0.1419
 1929TIP3    H229983   6.360   0.546  16.711 -1.0861  1.0259  0.6468
 1930TIP3   OH229984   0.506   5.043  14.182  0.4869  0.4028  0.0272
 1930TIP3    H129985   0.419   5.073  14.208  0.7596  0.9958  0.2891
 1930TIP3    H229986   0.495   5.015  14.091 -0.0708  0.0583  0.1984
 1931TIP3   OH229987   1.276   6.007  14.825  0.0913 -0.3919  0.3985
 1931TIP3    H129988   1.209   6.075  14.835 -0.2173 -0.6015 -0.2351
 1931TIP3    H229989   1.259   5.968  14.740  0.9267 -0.5530  0.2936
 1932TIP3   OH229990   4.192   3.489  16.266 -0.5330 -0.3985  0.0049
 1932TIP3    H129991   4.100   3.468  16.281 -0.5626 -0.0411  0.3241
 1932TIP3    H229992   4.230   3.495  16.354  0.2317 -2.4155 -0.1164
 1933TIP3   OH229993   3.003   2.265  14.578 -0.5990 -0.3074 -0.3417
 1933TIP3    H129994   3.005   2.171  14.598 -2.8563 -0.6224 -1.2913
 1933TIP3    H229995   2.944   2.303  14.643  1.3315  0.7392  0.8753
 1934TIP3   OH229996   2.950   1.577  16.301 -0.1257 -0.2417 -0.4918
 1934TIP3    H129997   2.937   1.619  16.386  1.9172 -2.3178  0.9614
 1934TIP3    H229998   2.940   1.483  16.319 -0.5515 -0.6760 -2.7500
 1935TIP3   OH229999   5.365   5.569  15.535  0.0038  0.3659 -0.0140
 1935TIP3    H130000   5.276   5.580  15.567 -0.2110  0.6780 -0.6957
 1935TIP3    H230001   5.395   5.487  15.575 -0.6451  0.1741  0.0922
 1936TIP3   OH230002   2.081   1.487  16.894 -0.0340  0.8207 -0.4396
 1936TIP3    H130003   2.008   1.546  16.878 -0.1893  1.7382  2.9485
 1936TIP3    H230004   2.041   1.401  16.902 -0.6777  1.2132  0.7012
 1937TIP3   OH230005   1.960   6.741  16.164 -0.3039 -0.0750 -0.3579
 1937TIP3    H130006   2.053   6.744  16.183 -0.6010 -0.3011  1.2904
 1937TIP3    H230007   1.920   6.799  16.228 -1.4303 -1.2611  0.0705
 1938TIP3   OH230008   2.874   5.645  15.135 -0.2208  0.4132  0.2197
 1938TIP3    H130009   2.826   5.682  15.061 -1.3757  0.6831  1.0895
 1938TIP3    H230010   2.958   5.618  15.097 -1.3153 -0.7930 -1.5124
 1939TIP3   OH230011   3.143   3.650  15.680  0.0787  0.1341  0.1841
 1939TIP3    H130012   3.203   3.575  15.692  0.9259  0.8508  0.5746
 1939TIP3    H230013   3.098   3.658  15.764  1.7693  1.5444  1.0143
 1940TIP3   OH230014   0.158   0.076  16.850 -0.5955  0.4777  0.0299
 1940TIP3    H130015   0.100   0.124  16.792  1.0686  0.7258 -1.5128
 1940TIP3    H230016   0.152  -0.015  16.820  0.2546  0.6041 -0.5704
 1941TIP3   OH230017   2.651   6.673  16.336 -0.0954 -0.1937 -0.5144
 1941TIP3    H130018   2.615   6.585  16.344 -0.4417  0.0555  1.0194
 1941TIP3    H230019   2.621   6.704  16.251 -1.5207 -0.8665 -0.2807
 1942TIP3   OH230020   3.622   2.237  15.908  0.7399 -0.2294  0.1781
 1942TIP3    H130021   3.599   2.233  16.000  1.5972  1.9326  0.5403
 1942TIP3    H230022   3.699   2.293  15.904  0.4152  0.1772 -1.8981
 1943TIP3   OH230023   6.525   4.775  14.224 -0.4349  1.1519  0.2472
 1943TIP3    H130024   6.600   4.787  14.283 -1.8140  1.1852  2.0938
 1943TIP3    H230025   6.460   4.730  14.278 -1.2704 -0.1453 -1.7185
 1944TIP3   OH230026   1.277   2.505  14.734 -0.5079 -0.0524  0.1211
 1944TIP3    H130027   1.337   2.506  14.660 -0.5149  0.6645  0.1197
 1944TIP3    H230028   1.316   2.564  14.798  0.7420 -2.4701  1.7191
 1945TIP3   OH230029   2.407   2.439  17.063  0.2221 -0.1529 -0.1517
 1945TIP3    H130030   2.372   2.510  17.008 -0.6815  0.6630  1.4005
 1945TIP3    H230031   2.423   2.480  17.148  1.4131 -1.4189  0.2765
 1946TIP3   OH230032   4.916   0.327  16.442 -0.1873 -0.4530 -0.4111
 1946TIP3    H130033   5.004   0.352  16.470  1.0302 -1.0457 -3.3663
 1946TIP3    H230034   4.928   0.292  16.354 -3.4023 -0.6368 -0.8864
 1947TIP3   OH230035   2.961   4.281  16.282  0.4444  0.2733  0.0829
 1947TIP3    H130036   3.007   4.206  16.246  2.3865  0.6609  1.6034
 1947TIP3    H230037   2.928   4.251  16.367 -0.9473  0.4468 -0.3574
 1948TIP3   OH230038   2.301   1.188  15.031  0.2217 -0.4217  0.0754
 1948TIP3    H130039   2.271   1.279  15.022  0.6341 -0.2900  0.0277
 1948TIP3    H230040   2.300   1.172  15.125 -0.2245 -0.4925  0.0585
 1949TIP3   OH230041   0.247   4.410  14.602 -0.0295 -0.4131 -0.0368
 1949TIP3    H130042   0.289   4.455  14.529  0.0064  0.8495  0.7380
 1949TIP3    H230043   0.197   4.340  14.561  0.2350  0.0817 -1.2485
 1950TIP3   OH230044   3.855   3.818  17.097 -0.2425  0.0540  0.1836
 1950TIP3    H130045   3.821   3.904  17.073 -0.1874  0.1310  0.3782
 1950TIP3    H230046   3.839   3.764  17.020 -1.2368 -0.0282  0.4286
 1951TIP3   OH230047   0.377   5.821  16.638  0.6150  0.1023  0.2117
 1951TIP3    H130048   0.325   5.889  16.596  2.0636 -0.7164 -3.2444
 1951TIP3    H230049   0.441   5.870  16.691  1.9498  1.6128 -2.5824
 1952TIP3   OH230050   5.054   3.899  14.833 -0.5380 -0.2406  0.5190
 1952TIP3    H130051   4.998   3.929  14.761  1.2474  1.5998 -0.1919
 1952TIP3    H230052   5.126   3.853  14.790 -0.2441 -0.4585  1.2259
 1953TIP3   OH230053   1.790   2.950  16.871  0.5100 -0.2142  0.0460
 1953TIP3    H130054   1.813   3.040  16.893 -1.8750  0.4147  0.2406
 1953TIP3    H230055   1.697   2.953  16.851  0.3583 -2.6513  0.0566
 1954TIP3   OH230056   0.371   5.085  16.741 -0.2161 -0.2301  0.1646
 1954TIP3    H130057   0.278   5.065  16.756 -0.0866 -3.5086 -2.2987
 1954TIP3    H230058   0.376   5.107  16.648  1.4816  0.0042  0.2898
 1955TIP3   OH230059   5.529   5.221  16.515 -0.1881 -0.3053  0.0667
 1955TIP3    H130060   5.472   5.289  16.549  0.6850 -0.2074  1.3941
 1955TIP3    H230061   5.618   5.251  16.535  0.2814 -1.1244 -0.6801
 1956TIP3   OH230062   3.817   5.936  14.423  0.0364 -0.3063 -0.1391
 1956TIP3    H130063   3.828   6.019  14.470 -0.8478 -1.2172  1.7936
 1956TIP3    H230064   3.801   5.962  14.332  4.1120  1.4614 -0.5660
 1957TIP3   OH230065   4.031   2.706  14.298 -0.2103  0.2733 -0.3986
 1957TIP3    H130066   4.059   2.781  14.245  1.7236 -1.1275 -1.4829
 1957TIP3    H230067   4.055   2.629  14.246 -0.9063 -1.1337  1.2503
 1958TIP3   OH230068   2.108   3.970  14.313  0.3635 -0.0442 -0.1222
 1958TIP3    H130069   2.187   4.004  14.356  0.3953  0.5618 -0.6549
 1958TIP3    H230070   2.111   3.876  14.329  0.0768  0.2203  1.7054
 1959TIP3   OH230071   3.246   1.655  15.075 -0.0969  0.2112 -0.0956
 1959TIP3    H130072   3.244   1.724  15.141  2.4799 -0.8927  1.2495
 1959TIP3    H230073   3.217   1.576  15.120 -1.3090 -0.0012 -1.1631
 1960TIP3   OH230074   4.581   2.849  13.589 -0.0312 -0.5939  0.1469
 1960TIP3    H130075   4.611   2.883  13.505 -0.7739  0.1714  0.1761
 1960TIP3    H230076   4.543   2.764  13.568  1.9308 -1.5237  0.0845
 1961TIP3   OH230077   2.329   1.705  16.568  0.5562 -0.0637  0.0150
 1961TIP3    H130078   2.419   1.727  16.543 -0.2819  1.5365 -1.8246
 1961TIP3    H230079   2.304   1.635  16.508  0.2782  0.1234 -0.0886
 1962TIP3   OH230080   2.298   0.022  15.145 -0.4007  0.1332 -0.2407
 1962TIP3    H130081   2.310   0.018  15.239 -2.0269  1.0882  0.0450
 1962TIP3    H230082   2.328   0.109  15.120 -1.1004  0.3235 -0.4229
 1963TIP3   OH230083   4.838   0.107  16.598  0.2146 -0.5647 -0.1668
 1963TIP3    H130084   4.835   0.189  16.548 -2.3452 -0.0880  0.6070
 1963TIP3    H230085   4.844   0.039  16.531  1.6076  0.1972 -0.8604
 1964TIP3   OH230086   2.553   6.072  16.107 -0.2056  0.2829 -0.1380
 1964TIP3    H130087   2.587   6.020  16.180 -0.1538  0.0040 -0.3585
 1964TIP3    H230088   2.480   6.121  16.144 -0.8864 -0.6902 -0.1522
 1965TIP3   OH230089   1.325   6.350  16.587 -0.4455  0.2987  0.6192
 1965TIP3    H130090   1.346   6.319  16.499 -0.4379  1.2156  0.2813
 1965TIP3    H230091   1.229   6.356  16.589 -0.3932  1.6725  0.1529
 1966TIP3   OH230092   6.155   6.752  14.924  0.7232  0.2854 -1.0185
 1966TIP3    H130093   6.113   6.821  14.976 -0.8508 -1.0095 -0.4786
 1966TIP3    H230094   6.167   6.680  14.985  2.3842  0.0725 -1.5658
 1967TIP3   OH230095   5.260   1.005  14.663 -0.3052  0.0717  0.0030
 1967TIP3    H130096   5.316   1.074  14.626 -1.1215  0.4372 -0.5983
 1967TIP3    H230097   5.310   0.970  14.736  0.1693  1.2620  0.2787
 1968TIP3   OH230098   5.934   3.061  16.786  0.1916  0.4401  0.7978
 1968TIP3    H130099   5.938   3.115  16.708  0.3935 -1.6559 -0.7331
 1968TIP3    H230100   6.020   3.073  16.828  0.1262  1.4779  0.6550
 1969TIP3   OH230101   5.175   0.376  16.474 -0.8583 -0.2172  0.1112
 1969TIP3    H130102   5.250   0.327  16.441 -0.3849  0.2333  0.4864
 1969TIP3    H230103   5.200   0.400  16.563 -0.7639  1.3095 -0.2962
 1970TIP3   OH230104   1.728   4.732  15.132  0.5075 -0.4814  0.5442
 1970TIP3    H130105   1.740   4.784  15.053  4.1113  0.5066  1.5209
 1970TIP3    H230106   1.715   4.642  15.101 -1.7891  0.3446 -1.1108
 1971TIP3   OH230107   1.317   6.447  15.419  0.0690 -0.7729 -0.4909
 1971TIP3    H130108   1.311   6.410  15.508 -0.4819  0.7120  0.1216
 1971TIP3    H230109   1.373   6.385  15.371  2.1330 -0.5397  1.4546
 1972TIP3   OH230110   3.979   6.576  16.220 -0.3414  0.2955  0.4786
 1972TIP3    H130111   4.073   6.572  16.241  0.0258 -1.0624 -1.1415
 1972TIP3    H230112   3.943   6.495  16.257 -0.3884 -0.3252 -0.8738
 1973TIP3   OH230113   1.888   3.438  15.321 -0.7438  0.2663  0.4697
 1973TIP3    H130114   1.942   3.359  15.323 -0.1662  0.5112 -2.0685
 1973TIP3    H230115   1.950   3.511  15.320 -1.1602  0.6306 -0.2443
 1974TIP3   OH230116   2.863   4.258  14.814 -0.2444  0.4723 -0.5807
 1974TIP3    H130117   2.913   4.187  14.855  0.0424  1.1846  0.3351
 1974TIP3    H230118   2.778   4.257  14.858 -0.0343  1.0679 -0.1620
 1975TIP3   OH230119   2.347   0.045  15.804 -0.0850 -0.2718 -0.0474
 1975TIP3    H130120   2.278   0.076  15.745  0.8730 -0.2557 -1.2066
 1975TIP3    H230121   2.410   0.001  15.746  1.5493  0.8883  0.7696
 1976TIP3   OH230122   2.104   0.375  17.061  0.5351  0.3485  0.5842
 1976TIP3    H130123   2.060   0.440  17.116 -0.4656  1.4770 -1.4389
 1976TIP3    H230124   2.044   0.362  16.987  2.8932  0.7610 -1.5190
 1977TIP3   OH230125   4.429   4.038  13.423  0.0832  0.0139 -0.4337
 1977TIP3    H130126   4.503   4.031  13.362  1.1702  0.2354  0.7925
 1977TIP3    H230127   4.352   4.049  13.367  0.9533 -0.4155 -1.7626
 1978TIP3   OH230128   1.659   1.503  14.286 -0.5429  0.0815  0.2524
 1978TIP3    H130129   1.616   1.581  14.251  0.9359  1.6491  1.7409
 1978TIP3    H230130   1.588   1.454  14.329 -1.1650  1.8311  1.3395
 1979TIP3   OH230131   4.932   1.405  14.561 -0.3348  0.3572  0.5508
 1979TIP3    H130132   4.847   1.391  14.602  0.0865 -1.0819  0.9935
 1979TIP3    H230133   4.976   1.320  14.567 -0.0488  0.1837 -2.4709
 1980TIP3   OH230134   4.012   6.520  16.740 -0.0648 -0.0062  0.2943
 1980TIP3    H130135   4.048   6.431  16.733 -0.3454 -0.1456  0.6010
 1980TIP3    H230136   4.036   6.562  16.657  2.7021  0.6197  1.3119
 1981TIP3   OH230137   4.032   0.227  15.892 -0.2180  0.0331 -0.2890
 1981TIP3    H130138   4.123   0.197  15.892  0.4626  1.8315  1.9303
 1981TIP3    H230139   3.992   0.185  15.968 -1.0729 -0.1876 -0.8398
 1982TIP3   OH230140   0.301   1.678  15.250 -0.2152  0.4691  0.3758
 1982TIP3    H130141   0.390   1.695  15.282  0.2175  0.7504 -0.9243
 1982TIP3    H230142   0.271   1.603  15.301 -0.4601  2.2727  3.0857
 1983TIP3   OH230143   6.286   3.795  16.143  0.3832 -0.1705  0.2942
 1983TIP3    H130144   6.363   3.790  16.199 -0.7374  0.8681  2.0215
 1983TIP3    H230145   6.238   3.872  16.175 -1.8226 -1.3056 -0.0762
 1984TIP3   OH230146   5.915   0.016  16.494  0.4371 -0.0632  0.0461
 1984TIP3    H130147   5.835  -0.023  16.460  0.8542  0.6646 -1.9588
 1984TIP3    H230148   5.886   0.080  16.558 -0.6571  0.6784 -1.1425
 1985TIP3   OH230149   1.881   3.853  15.475  0.8132 -0.5092 -0.2716
 1985TIP3    H130150   1.961   3.886  15.434  0.3782  0.6572 -0.2271
 1985TIP3    H230151   1.817   3.923  15.463 -0.1298 -1.3121 -0.0674
 1986TIP3   OH230152   2.263   5.335  15.580  0.4519 -0.5003  0.3624
 1986TIP3    H130153   2.255   5.290  15.496 -1.3992  0.4847 -0.0544
 1986TIP3    H230154   2.307   5.418  15.559 -1.1683  0.3360  0.0581
 1987TIP3   OH230155   3.292   2.842  17.213 -0.0929  0.0688  0.0600
 1987TIP3    H130156   3.282   2.843  17.118 -0.1744 -0.7603  0.0552
 1987TIP3    H230157   3.236   2.914  17.243  0.4432  0.7628 -0.5552
 1988TIP3   OH230158   2.683   4.777  14.361 -0.0343 -0.0061 -0.1331
 1988TIP3    H130159   2.681   4.767  14.265 -1.3580  0.6701 -0.2019
 1988TIP3    H230160   2.699   4.688  14.393  0.5473 -0.2271 -0.9798
 1989TIP3   OH230161   4.169   4.398  16.442  0.6568  0.1316 -0.7055
 1989TIP3    H130162   4.239   4.431  16.385  0.8963 -0.2440 -0.6328
 1989TIP3    H230163   4.161   4.305  16.419  0.2946  0.1342 -0.5970
 1990TIP3   OH230164   0.554   6.537  14.691  0.4855  0.5688  0.0281
 1990TIP3    H130165   0.521   6.448  14.693  0.2983  0.6482  0.8012
 1990TIP3    H230166   0.523   6.576  14.773  1.3500  1.0552  0.1399
 1991TIP3   OH230167   2.110   2.356  14.030  0.0324  0.1813  0.3203
 1991TIP3    H130168   2.167   2.337  14.105  0.0162  1.9741  0.8348
 1991TIP3    H230169   2.091   2.449  14.038 -1.6915 -0.0470 -0.7547
 1992TIP3   OH230170   1.140   1.861  16.190  0.7686  0.1117  0.5823
 1992TIP3    H130171   1.059   1.821  16.157  1.2239 -0.1055 -0.3051
 1992TIP3    H230172   1.196   1.787  16.213  0.8618  0.2584  0.8316
 1993TIP3   OH230173   6.321   1.678  15.849 -0.4846 -0.2168 -0.2183
 1993TIP3    H130174   6.374   1.600  15.834  0.9007  0.3559  1.3722
 1993TIP3    H230175   6.254   1.649  15.912 -0.4410 -0.2932 -0.2064
 1994TIP3   OH230176   1.514   4.893  16.804 -0.3721 -0.2435  0.1930
 1994TIP3    H130177   1.499   4.971  16.750 -2.6595 -0.3515  0.5552
 1994TIP3    H230178   1.607   4.894  16.823  0.1491  0.8903 -2.1032
 1995TIP3   OH230179   2.660   1.554  15.064  0.1144 -0.1958  0.4585
 1995TIP3    H130180   2.691   1.532  14.976 -0.5078 -0.3362  0.2713
 1995TIP3    H230181   2.691   1.643  15.078 -0.0854 -0.0428 -0.0427
 1996TIP3   OH230182   5.061   6.726  14.734  0.5301  0.1295  0.3353
 1996TIP3    H130183   5.005   6.769  14.670 -0.4070  0.4120  1.3143
 1996TIP3    H230184   5.146   6.718  14.690  0.2665  1.4646 -0.4817
 1997TIP3   OH230185   5.648   1.120  16.614  0.8332  0.2493  0.0173
 1997TIP3    H130186   5.588   1.190  16.588 -1.2726 -0.4300  2.5724
 1997TIP3    H230187   5.594   1.041  16.611  2.5631 -0.9543 -0.7617
 1998TIP3   OH230188   1.600   3.965  14.805  0.2175 -0.2326 -0.0620
 1998TIP3    H130189   1.555   3.999  14.883  0.2743  0.5751 -0.3696
 1998TIP3    H230190   1.547   3.996  14.732  0.2231 -0.9013 -0.3546
 1999TIP3   OH230191   6.292   5.046  16.331 -0.4302 -0.1424 -0.4028
 1999TIP3    H130192   6.200   5.047  16.303 -0.8302 -2.7385  0.6140
 1999TIP3    H230193   6.341   5.025  16.252 -1.1016 -2.4430 -0.2676
 2000TIP3   OH230194   5.302   6.011  14.492 -0.2703 -0.2155  0.4732
 2000TIP3    H130195   5.391   5.986  14.469 -0.9025 -1.0738 -1.2490
 2000TIP3    H230196   5.279   5.955  14.566  0.1644 -0.9815  0.0379
 2001TIP3   OH230197   2.675   0.667  15.013 -0.4709  0.3800 -0.5034
 2001TIP3    H130198   2.712   0.579  15.013  1.0650  0.9403  2.1726
 2001TIP3    H230199   2.726   0.715  14.948  0.3599 -0.0808 -0.2022
 2002TIP3   OH230200   4.562   6.417  14.501  0.2501 -0.2658  0.0061
 2002TIP3    H130201   4.581   6.342  14.557  1.7937  0.7654  0.9571
 2002TIP3    H230202   4.627   6.412  14.431 -1.3324 -1.2471 -1.4861
 2003TIP3   OH230203   2.075   1.019  15.039 -0.2559 -0.3540  0.7323
 2003TIP3    H130204   2.072   1.020  15.134  0.6269  0.2461  0.7584
 2003TIP3    H230205   2.159   1.060  15.016  0.5821 -2.4030 -0.2341
 2004TIP3   OH230206   0.774   3.452  16.802 -0.5459  0.0464  0.0411
 2004TIP3    H130207   0.833   3.387  16.839  1.6150  2.2229  0.7007
 2004TIP3    H230208   0.804   3.464  16.712  0.2547  1.3554  0.4565
 2005TIP3   OH230209   0.215   2.484  15.958  0.3097 -0.0308  0.0723
 2005TIP3    H130210   0.149   2.493  15.889  0.1512  1.2291  0.3573
 2005TIP3    H230211   0.285   2.434  15.917 -0.2355 -0.2146 -0.6719
 2006TIP3   OH230212   3.954   2.899  16.700  0.4644  0.1003  0.3731
 2006TIP3    H130213   4.047   2.877  16.698  0.8782  1.6731 -1.9465
 2006TIP3    H230214   3.919   2.863  16.619 -1.2214 -1.2480  1.6195
 2007TIP3   OH230215   4.254   3.670  14.357 -0.0499 -0.0566  0.3895
 2007TIP3    H130216   4.236   3.610  14.285 -2.3230 -0.4160  1.1520
 2007TIP3    H230217   4.346   3.694  14.347 -0.1379 -0.5567 -2.2509
 2008TIP3   OH230218   4.103   3.704  14.961 -0.6714 -0.2350  0.1958
 2008TIP3    H130219   4.094   3.787  14.914  0.6959 -0.4964 -0.5996
 2008TIP3    H230220   4.139   3.730  15.046 -0.5846  0.0162  0.0855
 2009TIP3   OH230221   2.583   0.131  16.994  0.5657  0.1002  0.3643
 2009TIP3    H130222   2.490   0.116  16.978  0.9466 -2.7977  0.2690
 2009TIP3    H230223   2.586   0.204  17.056 -1.7185  0.6423 -0.0968
 2010TIP3   OH230224   0.541   3.334  14.243 -0.6605 -0.1055 -0.8692
 2010TIP3    H130225   0.454   3.373  14.244 -0.5894  0.0595 -0.2907
 2010TIP3    H230226   0.601   3.409  14.247 -0.5316 -0.2367  2.7603
 2011TIP3   OH230227   2.089   2.861  15.335 -1.1339  0.3235  0.1963
 2011TIP3    H130228   2.076   2.935  15.275 -0.3132 -0.2168 -0.6875
 2011TIP3    H230229   2.051   2.786  15.289 -1.4712  0.0986  0.8432
 2012TIP3   OH230230   1.417   5.182  14.940  0.0588  0.5837  0.3858
 2012TIP3    H130231   1.423   5.248  14.871  1.8366 -0.0711 -0.1282
 2012TIP3    H230232   1.407   5.233  15.021 -3.5061  1.3454 -0.3756
 2013TIP3   OH230233   2.376   2.998  14.773  0.1995  0.3995  0.3284
 2013TIP3    H130234   2.334   2.949  14.702  1.1678 -0.1707  0.1335
 2013TIP3    H230235   2.469   3.002  14.749  0.7792 -0.8863  2.1368
 2014TIP3   OH230236   1.962   1.927  13.790  0.0703 -0.1082 -0.6180
 2014TIP3    H130237   1.911   1.987  13.736 -2.3415 -0.5557  1.0120
 2014TIP3    H230238   2.005   1.869  13.727  0.4248  1.6904 -2.1307
 2015TIP3   OH230239   5.592   0.071  17.108  0.5339 -0.0777  0.5826
 2015TIP3    H130240   5.507   0.103  17.078 -0.6465 -1.8381  1.8148
 2015TIP3    H230241   5.635   0.147  17.147 -0.3697  0.8876 -0.2705
 2016TIP3   OH230242   6.200   3.594  14.978  0.0653  0.3863  0.3493
 2016TIP3    H130243   6.207   3.508  14.937  0.5845  0.4325  0.3419
 2016TIP3    H230244   6.262   3.649  14.930  2.8224 -0.2313  2.9356
 2017TIP3   OH230245   5.408   3.755  16.290 -0.7921 -0.0137  0.0687
 2017TIP3    H130246   5.402   3.843  16.252 -1.1366 -0.3569 -0.6917
 2017TIP3    H230247   5.501   3.737  16.295 -0.7396 -0.0543 -0.8530
 2018TIP3   OH230248   0.456   1.731  15.776 -0.1906 -0.4944  0.0554
 2018TIP3    H130249   0.383   1.699  15.828  1.0228 -0.5492  1.8376
 2018TIP3    H230250   0.424   1.810  15.734 -2.1420 -2.0591 -1.5750
 2019TIP3   OH230251   4.345   4.523  14.062 -0.1029 -0.1154  0.4327
 2019TIP3    H130252   4.385   4.474  13.989 -1.1701 -2.5124  1.3494
 2019TIP3    H230253   4.413   4.584  14.090  0.4937  0.6241 -2.2639
 2020TIP3   OH230254   6.717   6.636  17.216 -1.1279  0.1880  0.4313
 2020TIP3    H130255   6.794   6.687  17.193 -0.9902 -0.9872 -1.9421
 2020TIP3    H230256   6.643   6.695  17.200 -1.0433 -0.4637 -3.2395
 2021TIP3   OH230257   1.896   1.841  15.555 -0.5216 -0.4241  0.2836
 2021TIP3    H130258   1.954   1.917  15.548 -0.6282 -0.4415 -1.1991
 2021TIP3    H230259   1.869   1.839  15.646  1.3041 -0.0342  0.8827
 2022TIP3   OH230260   1.751   2.956  16.521 -0.3184  0.4062  0.2419
 2022TIP3    H130261   1.706   3.019  16.577 -1.7175 -0.1560 -0.2259
 2022TIP3    H230262   1.682   2.903  16.483  0.7733 -0.7988 -0.1361
 2023TIP3   OH230263   3.893   5.407  15.832 -0.0903 -0.0662 -0.4434
 2023TIP3    H130264   3.910   5.371  15.745  0.9246 -0.4733 -0.0915
 2023TIP3    H230265   3.977   5.440  15.862 -0.5507  0.6096  0.1514
 2024TIP3   OH230266   0.542   1.337  16.467 -0.5255 -0.4092  0.2643
 2024TIP3    H130267   0.581   1.372  16.386 -3.3958 -0.8260 -1.4329
 2024TIP3    H230268   0.617   1.307  16.518  1.5462  1.5354 -1.4015
 2025TIP3   OH230269   3.319   3.848  15.658 -0.0647 -0.0862  0.2348
 2025TIP3    H130270   3.247   3.789  15.637 -0.5806  0.1811  1.1624
 2025TIP3    H230271   3.357   3.813  15.739 -0.2535  0.7134  0.6901
 2026TIP3   OH230272   3.317   0.874  15.977  0.0435 -0.4007  0.2246
 2026TIP3    H130273   3.293   0.931  16.050  1.5229  0.1991  0.2861
 2026TIP3    H230274   3.318   0.931  15.901  0.0464 -0.6790  0.0128
 2027TIP3   OH230275   4.868   6.358  16.831  0.0993 -0.4777  0.0221
 2027TIP3    H130276   4.852   6.266  16.809  2.2530 -0.9107  0.0531
 2027TIP3    H230277   4.962   6.370  16.818 -0.3208  2.1393 -1.4686
 2028TIP3   OH230278   0.320   0.144  16.614  0.3546  0.8196 -0.1696
 2028TIP3    H130279   0.237   0.106  16.586  0.5029 -0.6289  1.1770
 2028TIP3    H230280   0.299   0.189  16.696  0.8265  0.7015  0.0208
 2029TIP3   OH230281   0.387   3.563  13.974  0.9781 -0.0178  0.5717
 2029TIP3    H130282   0.451   3.503  13.937  0.4613 -0.6262  0.6363
 2029TIP3    H230283   0.305   3.544  13.928  0.3195 -0.7917  1.9748
 2030TIP3   OH230284   0.161   2.857  15.989 -0.5495  0.4118 -0.4316
 2030TIP3    H130285   0.240   2.910  15.976 -0.7594  1.1121  0.9571
 2030TIP3    H230286   0.185   2.796  16.059 -1.1392  0.4124 -0.2240
 2031TIP3   OH230287   2.182   0.732  15.231 -0.2870 -0.2067 -0.1179
 2031TIP3    H130288   2.269   0.755  15.200  0.2893 -0.8710  0.9684
 2031TIP3    H230289   2.138   0.697  15.154  0.1533  0.7762 -0.8439
 2032TIP3   OH230290   6.413   0.827  16.065 -0.0605  0.6286 -0.6081
 2032TIP3    H130291   6.361   0.781  15.999  0.2411 -0.5720 -0.0334
 2032TIP3    H230292   6.435   0.911  16.024  1.9145 -0.8787 -2.9055
 2033TIP3   OH230293   2.628   3.776  15.628  0.0215 -0.3866  0.3681
 2033TIP3    H130294   2.561   3.815  15.683 -0.4378 -1.3871  0.5362
 2033TIP3    H230295   2.660   3.700  15.677  0.4149 -0.6242 -0.2314
 2034TIP3   OH230296   5.943   4.731  16.855  0.4008 -0.2427 -0.4497
 2034TIP3    H130297   5.940   4.811  16.908 -1.3190 -1.6615  1.8053
 2034TIP3    H230298   5.859   4.731  16.808 -0.7740 -1.8021  1.4737
 2035TIP3   OH230299   5.822   3.139  15.428  0.1121 -0.2057  0.0522
 2035TIP3    H130300   5.800   3.181  15.512 -4.6537 -1.2919 -0.3908
 2035TIP3    H230301   5.848   3.212  15.372 -1.1467  1.2315  1.2338
 2036TIP3   OH230302   4.664   5.101  15.866 -0.3825  0.3820 -0.3509
 2036TIP3    H130303   4.705   5.188  15.866  0.9207 -0.2027 -1.0731
 2036TIP3    H230304   4.693   5.061  15.784 -1.7872 -0.3760 -0.5095
 2037TIP3   OH230305   0.084   2.165  13.771 -0.1518 -0.5194 -0.5193
 2037TIP3    H130306   0.098   2.238  13.710 -1.4129  0.4389  0.2952
 2037TIP3    H230307   0.037   2.100  13.719  1.1787 -0.8692 -1.3174
 2038TIP3   OH230308   5.737   0.202  14.074 -0.4950 -0.1403  0.2174
 2038TIP3    H130309   5.705   0.215  14.163 -0.8700 -1.7348  0.3496
 2038TIP3    H230310   5.766   0.289  14.046 -1.1264  0.5487  1.5885
 2039TIP3   OH230311   1.970   0.505  14.735 -0.2476 -0.0330  0.2021
 2039TIP3    H130312   1.965   0.422  14.782  1.1417  0.2833  0.9574
 2039TIP3    H230313   2.025   0.560  14.790 -0.0611  0.9457 -0.9342
 2040TIP3   OH230314   1.455   1.933  15.146  0.4468 -0.0783  0.5231
 2040TIP3    H130315   1.372   1.955  15.189  0.5552  0.6193  0.3851
 2040TIP3    H230316   1.485   1.854  15.191  0.4133  0.4625  1.5240
 2041TIP3   OH230317   1.918   6.496  16.025 -0.6607  0.4480  0.2470
 2041TIP3    H130318   1.938   6.539  16.109 -0.6013 -0.2892  0.6220
 2041TIP3    H230319   1.890   6.567  15.968  0.2226  1.0982  0.6026
 2042TIP3   OH230320   2.336   0.460  16.255 -0.3186 -0.1929  0.2398
 2042TIP3    H130321   2.423   0.484  16.225 -0.3143  0.6680  0.9260
 2042TIP3    H230322   2.342   0.460  16.350 -1.0685 -0.1141  0.2978
 2043TIP3   OH230323   4.482   6.060  16.325 -0.3742  0.4475  0.7589
 2043TIP3    H130324   4.416   5.991  16.329  0.1591 -0.2386 -1.2038
 2043TIP3    H230325   4.566   6.013  16.335 -0.0794  1.0387  1.1158
 2044TIP3   OH230326   6.731   2.456  15.812  0.5526 -0.5623  0.3162
 2044TIP3    H130327   6.658   2.513  15.836  1.0211 -0.5325  1.7476
 2044TIP3    H230328   6.747   2.475  15.719 -1.7106 -1.0924 -0.2243
 2045TIP3   OH230329   4.628   4.333  14.797  0.0007 -0.3816 -0.2673
 2045TIP3    H130330   4.599   4.243  14.779  0.5298 -0.2042 -2.2043
 2045TIP3    H230331   4.546   4.384  14.798 -0.1831 -0.6640 -0.6046
 2046TIP3   OH230332   2.638   0.369  15.879  0.0380 -0.3779 -0.0422
 2046TIP3    H130333   2.547   0.382  15.905  0.3193  1.6337  0.0700
 2046TIP3    H230334   2.652   0.429  15.807  0.9943 -1.4881 -0.8293
 2047TIP3   OH230335   0.223   0.643  14.627 -0.4547 -0.2254  0.3592
 2047TIP3    H130336   0.226   0.635  14.532  2.4211  0.2971  0.3338
 2047TIP3    H230337   0.145   0.593  14.652 -2.8433  1.7264 -2.3910
 2048TIP3   OH230338   2.169   2.374  14.563  0.2115 -0.2944 -0.6351
 2048TIP3    H130339   2.080   2.388  14.593  0.2235  0.6240 -1.0071
 2048TIP3    H230340   2.212   2.327  14.635 -0.0420  0.9469  0.3697
 2049TIP3   OH230341   1.560   5.651  15.983  0.0386  0.1936 -0.5084
 2049TIP3    H130342   1.605   5.663  16.067  1.4956 -0.3883 -1.1685
 2049TIP3    H230343   1.471   5.683  15.998 -0.4799 -2.0599  1.9771
 2050TIP3   OH230344   4.261   1.677  14.152 -0.2574  0.0172  0.2587
 2050TIP3    H130345   4.188   1.641  14.101  0.6201 -0.2441 -0.8492
 2050TIP3    H230346   4.308   1.734  14.091  0.5055  0.1404  0.9335
 2051TIP3   OH230347   4.671   4.329  14.039 -0.6972  0.1594 -0.3337
 2051TIP3    H130348   4.593   4.373  14.007 -1.9829 -0.3941  1.8365
 2051TIP3    H230349   4.720   4.305  13.960 -2.1534  1.4746 -1.6980
 2052TIP3   OH230350   0.969   4.226  16.549  0.3910  0.0458  0.5473
 2052TIP3    H130351   0.975   4.192  16.460 -1.5560  1.6590 -0.2747
 2052TIP3    H230352   1.002   4.316  16.542 -1.0747  0.6545  1.1184
 2053TIP3   OH230353   4.643   0.299  16.858 -0.7407 -0.1210  0.4073
 2053TIP3    H130354   4.630   0.231  16.924  2.1979 -0.0868  1.1594
 2053TIP3    H230355   4.578   0.280  16.790  0.1630 -3.9592  0.4025
 2054TIP3   OH230356   0.368   3.692  16.685 -0.4785 -0.1986 -0.1812
 2054TIP3    H130357   0.418   3.714  16.764 -0.0173 -1.0043 -0.2298
 2054TIP3    H230358   0.434   3.661  16.623 -0.8262  0.5264 -0.9323
 2055TIP3   OH230359   0.798   3.358  13.518 -0.4043 -0.5636 -0.4513
 2055TIP3    H130360   0.832   3.436  13.563 -1.5044  0.4109 -1.2244
 2055TIP3    H230361   0.714   3.341  13.560 -0.6291 -0.7233 -0.9645
 2056TIP3   OH230362   0.450   5.754  15.152 -0.1884 -0.3780 -0.3738
 2056TIP3    H130363   0.543   5.749  15.133 -0.1542 -0.9675 -0.0494
 2056TIP3    H230364   0.409   5.700  15.085  0.0996 -4.5212  2.4423
 2057TIP3   OH230365   1.969   3.629  15.648 -0.0211 -0.3945  0.1915
 2057TIP3    H130366   1.895   3.658  15.700  0.9695 -0.4699  1.7156
 2057TIP3    H230367   1.976   3.694  15.578 -1.5558 -0.4561 -0.0534
 2058TIP3   OH230368   3.596   2.882  15.091  0.1006  0.5933 -0.0386
 2058TIP3    H130369   3.555   2.851  15.010  0.9848  1.5393 -0.8805
 2058TIP3    H230370   3.591   2.807  15.151 -2.3722  0.5160 -0.2563
 2059TIP3   OH230371   4.538   0.509  17.002 -0.0747 -0.7955  0.4367
 2059TIP3    H130372   4.610   0.572  17.010 -0.4095 -0.2712 -0.5605
 2059TIP3    H230373   4.578   0.430  16.967  0.5282 -1.5101  2.5809
 2060TIP3   OH230374   3.559   2.847  17.295 -0.5912 -0.6294  0.3600
 2060TIP3    H130375   3.468   2.824  17.280 -0.1463 -1.9663 -0.4734
 2060TIP3    H230376   3.571   2.839  17.390 -1.2874 -0.6583  0.4475
 2061TIP3   OH230377   4.366   2.215  15.477  0.3235 -0.0585  0.3468
 2061TIP3    H130378   4.275   2.247  15.471  0.0578 -0.6411  1.1504
 2061TIP3    H230379   4.383   2.175  15.392 -0.1250  0.1801  0.1415
 2062TIP3   OH230380   3.273   6.702  15.541  0.3396  0.3406 -0.3178
 2062TIP3    H130381   3.300   6.665  15.625  0.1260 -0.9361 -0.7927
 2062TIP3    H230382   3.354   6.713  15.492  0.4621  1.0624  0.0309
 2063TIP3   OH230383   1.706   3.446  14.871  0.0572 -0.3923  0.3343
 2063TIP3    H130384   1.754   3.478  14.794 -2.1697  2.0510 -0.1710
 2063TIP3    H230385   1.617   3.431  14.839 -0.2714 -2.0041  1.8698
 2064TIP3   OH230386   1.027   4.632  14.833  0.0801  0.4047 -0.0085
 2064TIP3    H130387   1.085   4.657  14.905 -0.0186 -2.2792  1.1276
 2064TIP3    H230388   0.942   4.618  14.875 -0.0911 -0.7636 -0.7043
 2065TIP3   OH230389   5.047   6.555  14.959 -0.0219  0.0685  0.2560
 2065TIP3    H130390   5.057   6.618  14.888 -0.3138  1.1580  1.1388
 2065TIP3    H230391   5.135   6.548  14.997 -0.4239  1.9426  1.7308
 2066TIP3   OH230392   6.117   5.794  15.963  0.7097 -0.0649  0.1453
 2066TIP3    H130393   6.134   5.706  15.994  1.9087 -0.2321 -0.9118
 2066TIP3    H230394   6.092   5.843  16.042  0.8821 -1.1297  0.8792
 2067TIP3   OH230395   2.952   2.522  15.430 -0.2169  0.0563 -1.3786
 2067TIP3    H130396   2.962   2.553  15.340 -0.9669  1.6621 -0.9448
 2067TIP3    H230397   2.914   2.596  15.477 -1.5165 -1.3506 -0.1093
 2068TIP3   OH230398   2.768   0.888  14.883  0.4173 -0.0440  0.1358
 2068TIP3    H130399   2.738   0.978  14.895 -0.4100 -0.2065 -0.6108
 2068TIP3    H230400   2.863   0.896  14.871  0.3693  0.7076  0.1976
 2069TIP3   OH230401   4.275   0.708  17.549 -0.1552  0.3255  0.0054
 2069TIP3    H130402   4.254   0.623  17.510 -0.0773 -1.0513  2.7514
 2069TIP3    H230403   4.196   0.732  17.597  0.3476  1.1010  0.4512
 2070TIP3   OH230404   1.973   1.324  15.135 -0.5650 -0.1414 -0.5181
 2070TIP3    H130405   2.046   1.386  15.145 -0.2039 -0.5044 -0.8393
 2070TIP3    H230406   1.968   1.309  15.041 -0.9251 -0.2792 -0.4769
 2071TIP3   OH230407   2.750   1.888  14.985 -0.0722  0.0233  0.1356
 2071TIP3    H130408   2.768   1.851  15.072 -0.1566 -0.5834 -0.0991
 2071TIP3    H230409   2.654   1.892  14.980 -0.0670  1.2744  0.5617
 2072TIP3   OH230410   2.443   2.168  16.959  0.3836  0.0982 -0.2507
 2072TIP3    H130411   2.450   2.255  17.000  1.3838 -0.0588 -0.0622
 2072TIP3    H230412   2.462   2.185  16.867  0.1238  0.1467 -0.2954
 2073TIP3   OH230413   2.459   2.277  16.363  0.2088 -0.4040 -0.0353
 2073TIP3    H130414   2.375   2.236  16.341 -0.9029  0.8663  1.6362
 2073TIP3    H230415   2.453   2.296  16.456  3.4454 -2.6558  0.7930
 2074TIP3   OH230416   5.182   4.958  14.668 -0.0529 -0.1580  1.0674
 2074TIP3    H130417   5.189   4.931  14.760 -0.0718  0.5875  1.2940
 2074TIP3    H230418   5.252   5.022  14.657 -0.9265  0.7998  0.9471
 2075TIP3   OH230419   2.733   0.438  14.610 -0.0565 -0.4040  0.3822
 2075TIP3    H130420   2.644   0.462  14.584  0.5588  2.8150  0.8029
 2075TIP3    H230421   2.776   0.522  14.629  2.9393 -1.8599  0.6558
 2076TIP3   OH230422   1.935   6.142  14.143 -0.3231  0.1032  0.0977
 2076TIP3    H130423   1.919   6.229  14.180 -0.7181  0.4539 -0.8662
 2076TIP3    H230424   1.879   6.139  14.065  0.5516 -0.5752 -0.5175
 2077TIP3   OH230425   6.647   0.746  16.416  0.5427  0.5834  0.3487
 2077TIP3    H130426   6.589   0.720  16.344 -0.3679 -2.3863  1.9731
 2077TIP3    H230427   6.735   0.722  16.387  0.4151  0.9692 -0.3812
 2078TIP3   OH230428   2.696   4.390  16.644  0.2994 -0.3069 -0.5760
 2078TIP3    H130429   2.737   4.475  16.657  0.4187 -0.4872  0.2771
 2078TIP3    H230430   2.681   4.357  16.732 -0.1344 -0.9867 -0.8950
 2079TIP3   OH230431   1.506   0.085  15.530  0.0510  0.1255  0.1695
 2079TIP3    H130432   1.542   0.164  15.490 -1.2388  0.3529 -0.6056
 2079TIP3    H230433   1.566   0.064  15.602  0.2130  2.0261  0.6398
 2080TIP3   OH230434   0.988   3.723  14.719 -0.5778  0.3601  0.0902
 2080TIP3    H130435   1.081   3.702  14.723 -0.2439  1.8656  1.1607
 2080TIP3    H230436   0.948   3.668  14.787 -0.4076  0.0355 -0.0705
 2081TIP3   OH230437   5.770   3.925  16.267 -0.1575 -0.0864 -0.1462
 2081TIP3    H130438   5.742   3.953  16.354  0.5011  2.2522 -0.6032
 2081TIP3    H230439   5.844   3.866  16.283 -1.3801 -1.4057  0.8846
 2082TIP3   OH230440   5.646   0.863  15.372 -0.0814  0.4698  0.0353
 2082TIP3    H130441   5.700   0.941  15.359 -1.3358  1.7509  1.9560
 2082TIP3    H230442   5.573   0.893  15.426 -1.3800 -1.7509 -0.3655
 2083TIP3   OH230443   4.799   0.697  16.969 -0.4362 -0.4342 -0.8586
 2083TIP3    H130444   4.822   0.650  16.889 -0.5796 -1.2902 -0.4058
 2083TIP3    H230445   4.850   0.777  16.965  0.6552 -1.1265 -1.1162
 2084TIP3   OH230446   1.208   0.011  14.231  0.3990 -0.4528  0.7180
 2084TIP3    H130447   1.237   0.080  14.290  0.5934 -0.1568  0.2805
 2084TIP3    H230448   1.136  -0.032  14.277  0.3924 -0.0709  1.0622
 2085TIP3   OH230449   4.922   5.026  16.280  0.6801 -0.0014 -0.3994
 2085TIP3    H130450   4.843   5.066  16.244 -0.1297  1.2930  2.5011
 2085TIP3    H230451   4.922   4.937  16.245 -3.2033 -0.7132  0.9307
 2086TIP3   OH230452   5.214   4.392  14.078 -0.0521  0.0805  0.3975
 2086TIP3    H130453   5.237   4.334  14.151 -1.6962 -1.5796 -0.3188
 2086TIP3    H230454   5.236   4.480  14.110  0.7978 -0.7376  2.2472
 2087TIP3   OH230455   0.909   0.775  16.085 -0.1275  0.1051  0.3237
 2087TIP3    H130456   0.888   0.861  16.121  2.9469  1.1793 -0.1780
 2087TIP3    H230457   0.909   0.716  16.160  0.1712  1.0751  1.0996
 2088TIP3   OH230458   4.078   3.971  15.708 -0.1851 -0.1770  0.2800
 2088TIP3    H130459   4.053   3.879  15.700 -0.0518 -0.2500  0.7294
 2088TIP3    H230460   4.172   3.970  15.723 -0.5789 -0.1371  3.4446
 2089TIP3   OH230461   2.753   5.193  15.187  0.0671  0.5157  0.2338
 2089TIP3    H130462   2.751   5.250  15.110  1.7797  0.7341  0.3114
 2089TIP3    H230463   2.840   5.206  15.225  0.0899 -1.2722  0.9169
 2090TIP3   OH230464   0.218   4.054  16.308 -0.1931 -0.6327  0.5336
 2090TIP3    H130465   0.159   4.058  16.383 -0.5712  1.7516  0.2035
 2090TIP3    H230466   0.170   4.096  16.237  0.8727 -1.1037 -0.4981
 2091TIP3   OH230467   1.460   3.376  14.781 -0.3992 -0.7214 -0.2463
 2091TIP3    H130468   1.376   3.349  14.819  0.1246 -1.3229  0.5245
 2091TIP3    H230469   1.483   3.306  14.721 -0.2299 -0.7884 -0.1065
 2092TIP3   OH230470   4.655   5.169  14.285 -0.6836  0.0852  0.6038
 2092TIP3    H130471   4.583   5.117  14.247 -1.5955  0.9211  1.1363
 2092TIP3    H230472   4.643   5.257  14.249  0.8663 -0.0395 -0.3084
 2093TIP3   OH230473   4.713   3.265  15.279 -0.0742 -0.0233  0.3834
 2093TIP3    H130474   4.728   3.214  15.199 -0.0178 -0.0602  0.4169
 2093TIP3    H230475   4.621   3.251  15.300 -0.0669 -0.0858  0.3748
 2094TIP3   OH230476   5.147   0.818  16.138 -0.1829  0.0230 -0.0191
 2094TIP3    H130477   5.179   0.738  16.096  0.9274  0.2414  0.3588
 2094TIP3    H230478   5.134   0.793  16.230  1.7783  0.6519  0.4810
 2095TIP3   OH230479   5.078   4.812  14.040  0.4278 -0.4572 -0.1103
 2095TIP3    H130480   5.135   4.737  14.053 -0.7214 -1.3806 -0.2244
 2095TIP3    H230481   4.989   4.775  14.037 -0.4077  1.0947  2.1062
 2096TIP3   OH230482   1.684   3.411  14.468  0.6849 -0.1116 -0.0885
 2096TIP3    H130483   1.718   3.467  14.538 -1.1300  1.6476 -0.4920
 2096TIP3    H230484   1.654   3.332  14.513  3.3351 -0.8653  0.5075
 2097TIP3   OH230485   4.845   0.798  13.896  0.0250 -0.0627  0.1801
 2097TIP3    H130486   4.924   0.746  13.890 -1.2817 -2.1439  0.0046
 2097TIP3    H230487   4.856   0.868  13.832  1.7318 -0.2640  0.2320
 2098TIP3   OH230488   1.189   1.308  13.605 -0.0876  0.5113 -0.6695
 2098TIP3    H130489   1.110   1.270  13.643 -0.2514 -0.2691 -1.7472
 2098TIP3    H230490   1.230   1.354  13.678 -0.8113 -0.2553  0.2589
 2099TIP3   OH230491   4.465   0.256  16.350  0.0452  0.4454 -0.4822
 2099TIP3    H130492   4.487   0.194  16.280 -0.5080  0.6305 -0.8283
 2099TIP3    H230493   4.407   0.319  16.308 -1.0414  0.0416  0.3712
 2100TIP3   OH230494   4.675   6.192  13.550  0.1261  1.0821  0.3785
 2100TIP3    H130495   4.697   6.284  13.566  0.5421  0.9791  0.4083
 2100TIP3    H230496   4.580   6.188  13.561 -0.1942  1.9271 -1.6542
 2101TIP3   OH230497   3.867   0.317  14.008  0.5715  0.2353  0.1099
 2101TIP3    H130498   3.937   0.359  13.958 -0.0725  0.7688 -0.3660
 2101TIP3    H230499   3.874   0.224  13.986  0.1703  0.4850 -1.1628
 2102TIP3   OH230500   0.564   1.623  14.951 -0.2870 -0.0054  0.2736
 2102TIP3    H130501   0.477   1.633  14.912  0.0998  0.0732 -0.5811
 2102TIP3    H230502   0.614   1.697  14.917 -0.2327  0.7044  1.7788
 2103TIP3   OH230503   0.502   3.867  14.668  0.1850  0.3069  0.3738
 2103TIP3    H130504   0.523   3.959  14.682 -1.2627  0.5574  1.0559
 2103TIP3    H230505   0.587   3.822  14.669  0.9356  1.6686 -0.3689
 2104TIP3   OH230506   0.630   0.015  14.571 -0.5024 -0.6783  0.0495
 2104TIP3    H130507   0.642   0.066  14.651 -0.8975  2.4402 -1.7278
 2104TIP3    H230508   0.592  -0.068  14.601 -0.4496  0.2635  3.0700
 2105TIP3   OH230509   2.270   3.401  16.577  0.5144  0.5096 -0.6629
 2105TIP3    H130510   2.331   3.337  16.613 -0.4720  0.3236  0.7770
 2105TIP3    H230511   2.321   3.449  16.512  1.8471 -0.3914 -0.3298
 2106TIP3   OH230512   0.877   5.962  14.531 -0.3194 -0.0658  0.3767
 2106TIP3    H130513   0.882   5.867  14.518 -0.6779  0.0082 -0.3049
 2106TIP3    H230514   0.946   5.998  14.476  0.4060  0.0246  1.3065
 2107TIP3   OH230515   4.653   6.618  15.810 -0.5557 -0.0924  0.0271
 2107TIP3    H130516   4.574   6.565  15.806  0.1564 -1.1447 -4.1838
 2107TIP3    H230517   4.632   6.696  15.759  1.1321 -0.4518 -1.2655
 2108TIP3   OH230518   5.852   0.134  15.795  0.2535  0.2878 -0.2804
 2108TIP3    H130519   5.900   0.052  15.786  0.6668  0.3351  1.1920
 2108TIP3    H230520   5.875   0.184  15.717  2.4504  0.2209  0.2577
 2109TIP3   OH230521   2.688   4.060  16.073  0.3806 -0.2687 -0.4100
 2109TIP3    H130522   2.742   3.984  16.049  0.6700  0.1121 -0.9896
 2109TIP3    H230523   2.734   4.099  16.147  2.0781  1.2113 -2.1014
 2110TIP3   OH230524   0.516   2.478  15.894 -0.4845  0.9531 -0.0746
 2110TIP3    H130525   0.539   2.390  15.865 -0.2557  0.7179  0.7841
 2110TIP3    H230526   0.574   2.495  15.969  0.6747  2.4957 -1.2354
 2111TIP3   OH230527   3.554   1.168  14.301 -0.0364  0.1734  0.1101
 2111TIP3    H130528   3.636   1.125  14.326  0.4557  0.1953 -1.3550
 2111TIP3    H230529   3.581   1.238  14.240 -1.2659 -1.1367 -2.0684
 2112TIP3   OH230530   2.323   0.737  16.811  1.0229  0.2751 -0.0065
 2112TIP3    H130531   2.300   0.645  16.822  0.9066  0.2581 -0.3517
 2112TIP3    H230532   2.387   0.737  16.739 -0.5918  0.6572 -1.5190
 2113TIP3   OH230533   1.599   5.499  14.012 -0.0077  0.0872 -0.8352
 2113TIP3    H130534   1.628   5.474  14.100 -2.2732  2.1238  0.6117
 2113TIP3    H230535   1.673   5.547  13.975 -0.0070  1.7968  1.1934
 2114TIP3   OH230536   3.933   4.799  16.713  0.9219  0.3058 -0.0983
 2114TIP3    H130537   3.953   4.744  16.638 -0.5812  0.8800 -0.9590
 2114TIP3    H230538   3.837   4.808  16.712  0.8845  0.4875  1.7698
 2115TIP3   OH230539   6.409   0.881  14.785 -0.3124 -0.4755 -0.3857
 2115TIP3    H130540   6.440   0.870  14.695 -1.6565 -2.0622 -0.7075
 2115TIP3    H230541   6.326   0.927  14.776 -0.7846 -1.2304 -0.0545
 2116TIP3   OH230542   5.262   4.001  14.132  0.1571 -0.5125  0.4663
 2116TIP3    H130543   5.307   3.917  14.127  0.9885 -0.0009 -2.1403
 2116TIP3    H230544   5.178   3.987  14.088 -0.0605 -0.1682  0.7565
 2117TIP3   OH230545   6.560   1.516  15.752 -0.3990 -0.2291 -0.3512
 2117TIP3    H130546   6.631   1.464  15.791 -1.8872 -1.8938  0.2804
 2117TIP3    H230547   6.604   1.573  15.689  1.7024  0.1056  1.3013
 2118TIP3   OH230548   1.068   5.224  14.248  0.2559  0.4032 -0.3153
 2118TIP3    H130549   1.070   5.291  14.179  0.3607 -0.0220 -0.7317
 2118TIP3    H230550   1.064   5.141  14.201  1.8228  0.0299  0.1521
 2119TIP3   OH230551   4.430   2.747  13.840 -0.7624 -0.1828  0.0564
 2119TIP3    H130552   4.383   2.737  13.757  0.0379 -0.3629 -0.3799
 2119TIP3    H230553   4.467   2.835  13.836 -0.0062 -0.5078 -0.1500
 2120TIP3   OH230554   2.922   6.518  17.074  0.0100 -0.6331 -0.6624
 2120TIP3    H130555   2.882   6.459  17.137  1.3062  1.2088  2.0674
 2120TIP3    H230556   2.850   6.546  17.017 -1.0743 -2.8095 -0.4265
 2121TIP3   OH230557   1.446   5.699  16.523  0.3323  0.1746 -0.1659
 2121TIP3    H130558   1.531   5.670  16.492  0.6159 -0.4940  1.1638
 2121TIP3    H230559   1.454   5.699  16.619 -1.6172 -1.4194  0.0649
 2122TIP3   OH230560   3.397   5.242  17.016 -0.0265 -0.3225  0.5237
 2122TIP3    H130561   3.461   5.312  17.030 -0.0448 -0.1636 -0.1160
 2122TIP3    H230562   3.341   5.245  17.093 -0.7297  1.1482  0.0053
 2123TIP3   OH230563   0.496   5.328  14.483 -0.3031  0.3017 -0.1915
 2123TIP3    H130564   0.572   5.297  14.432  0.7366 -1.1093  2.0526
 2123TIP3    H230565   0.425   5.271  14.457 -0.0449  0.2375 -0.7716
 2124TIP3   OH230566   2.051   0.979  15.652  0.0456  0.6759 -0.3220
 2124TIP3    H130567   2.014   0.903  15.607 -0.3559 -0.3674  1.6738
 2124TIP3    H230568   2.144   0.959  15.660 -0.5284 -1.3457  3.1896
 2125TIP3   OH230569   6.682   0.535  15.844 -0.6943  0.5307 -0.1118
 2125TIP3    H130570   6.699   0.627  15.824  0.2887  0.0023 -1.9257
 2125TIP3    H230571   6.656   0.496  15.760  0.3581 -1.1441  0.2849
 2126TIP3   OH230572   0.694   4.294  16.466  0.2438 -0.2624 -0.0398
 2126TIP3    H130573   0.700   4.378  16.421  1.0707  0.2479  0.9663
 2126TIP3    H230574   0.784   4.277  16.496  0.0707 -1.4709 -0.1713
 2127TIP3   OH230575   2.965   5.198  17.196 -0.0763 -0.2939  0.1565
 2127TIP3    H130576   2.909   5.237  17.263 -1.6975 -0.7684 -0.8860
 2127TIP3    H230577   2.906   5.175  17.125  1.5548 -0.0462 -1.3613
 2128TIP3   OH230578   4.946   3.559  15.597 -0.1023 -0.2046 -0.2224
 2128TIP3    H130579   4.922   3.467  15.583 -1.6321 -0.0648  1.1626
 2128TIP3    H230580   4.863   3.606  15.596  0.7048  1.2623 -1.3423
 2129TIP3   OH230581   1.887   3.794  14.845  0.2570  0.3864  0.4627
 2129TIP3    H130582   1.846   3.855  14.783 -0.9855  0.4765  1.3444
 2129TIP3    H230583   1.965   3.763  14.799 -0.7514  0.2699 -1.2620
 2130TIP3   OH230584   6.215   3.762  15.849  0.0742  0.1160  0.1670
 2130TIP3    H130585   6.235   3.773  15.943  1.2274 -0.4150  0.0091
 2130TIP3    H230586   6.265   3.831  15.806  1.0111 -0.7306 -0.1751
 2131TIP3   OH230587   1.039   1.232  14.561  0.1643 -0.2500  0.0079
 2131TIP3    H130588   1.018   1.254  14.652  1.3718  1.7904 -0.1465
 2131TIP3    H230589   1.010   1.308  14.510  1.8434 -0.1973 -0.9560
 2132TIP3   OH230590   0.993   2.087  14.278 -0.0301 -0.1382 -0.2208
 2132TIP3    H130591   1.036   2.023  14.336 -1.5471 -0.2873  0.8035
 2132TIP3    H230592   0.913   2.042  14.249  0.0886  0.4167 -1.4396
 2133TIP3   OH230593   0.841   0.023  15.835 -0.3272  0.0539 -0.2861
 2133TIP3    H130594   0.887   0.076  15.770  0.1944  0.4837  0.4212
 2133TIP3    H230595   0.773  -0.024  15.785 -0.0875  0.5569 -1.0894
 2134TIP3   OH230596   2.339   5.423  16.491  0.7242  0.5332 -0.3946
 2134TIP3    H130597   2.269   5.460  16.545  0.0960 -0.7220 -0.3026
 2134TIP3    H230598   2.414   5.480  16.508  0.3253  0.6533  1.2079
 2135TIP3   OH230599   3.381   0.197  15.258 -0.7385 -0.2452 -0.1913
 2135TIP3    H130600   3.416   0.119  15.302 -2.1750 -0.3924  0.7551
 2135TIP3    H230601   3.322   0.162  15.192  1.3724 -0.0204 -2.3233
 2136TIP3   OH230602   6.533   1.106  14.907 -0.6040 -0.0825 -0.6027
 2136TIP3    H130603   6.599   1.086  14.840  1.6065 -0.2417  1.4892
 2136TIP3    H230604   6.463   1.042  14.891 -0.3983  0.1719 -2.9825
 2137TIP3   OH230605   0.441   3.183  15.130  0.5684 -0.5367  0.1580
 2137TIP3    H130606   0.439   3.118  15.060  1.3940 -1.1045  0.6341
 2137TIP3    H230607   0.376   3.153  15.193  0.5713 -0.6119  0.1252
 2138TIP3   OH230608   5.161   0.961  14.412 -0.1731 -0.0239 -0.2666
 2138TIP3    H130609   5.199   0.874  14.428 -0.3053  0.0126  0.2681
 2138TIP3    H230610   5.165   1.005  14.497  0.5910  0.7746 -0.6926
 2139TIP3   OH230611   5.021   1.083  14.978 -0.0976  0.3118  0.3168
 2139TIP3    H130612   4.949   1.092  14.915 -0.4877  2.4206  0.9939
 2139TIP3    H230613   5.073   1.162  14.967  1.6379 -0.7687  0.4816
 2140TIP3   OH230614   1.183   5.043  13.848  0.2355 -0.2554  0.2653
 2140TIP3    H130615   1.275   5.018  13.841  0.1961 -0.3995  0.2656
 2140TIP3    H230616   1.142   4.972  13.896  0.1194 -0.2015  0.2464
 2141TIP3   OH230617   1.345   2.756  15.890  0.6465 -0.3566 -0.2248
 2141TIP3    H130618   1.272   2.740  15.831  1.2606  0.1440 -1.1461
 2141TIP3    H230619   1.338   2.848  15.913 -0.0601 -0.7331  1.1665
 2142TIP3   OH230620   3.215   2.450  14.457 -0.2407  0.0649  0.1102
 2142TIP3    H130621   3.200   2.535  14.499  1.9520 -0.1708  1.5413
 2142TIP3    H230622   3.155   2.391  14.502  0.6531  0.2263  1.6215
 2143TIP3   OH230623   1.489   5.181  14.637 -0.4570  0.0402 -0.4112
 2143TIP3    H130624   1.489   5.217  14.548  1.1418  1.3548  0.0676
 2143TIP3    H230625   1.430   5.238  14.686  0.4544  0.7601 -0.1278
 2144TIP3   OH230626   1.096   3.733  16.603  0.0677  0.1066 -0.1190
 2144TIP3    H130627   1.133   3.664  16.658 -2.4593 -0.4111  1.0974
 2144TIP3    H230628   1.111   3.814  16.652 -2.6066 -0.4064  1.7410
 2145TIP3   OH230629   4.265   6.052  14.777  0.6384  0.0503  0.4331
 2145TIP3    H130630   4.238   5.980  14.834  1.2351 -0.4010  0.1510
 2145TIP3    H230631   4.359   6.042  14.768  0.7728  1.0310  0.6011
 2146TIP3   OH230632   5.316   5.894  13.724 -0.1134 -0.6361 -0.3551
 2146TIP3    H130633   5.325   5.988  13.708 -0.2519 -0.6137 -0.3043
 2146TIP3    H230634   5.224   5.876  13.703 -0.0222 -0.8067 -0.6095
 2147TIP3   OH230635   5.272   4.495  15.167 -0.5296 -0.3090  0.7016
 2147TIP3    H130636   5.228   4.497  15.082 -0.2913  1.1894  0.5824
 2147TIP3    H230637   5.279   4.402  15.189  0.3657 -0.7897 -1.4172
 2148TIP3   OH230638   2.167   5.011  16.989 -0.3608  0.7341 -0.3989
 2148TIP3    H130639   2.247   5.000  17.039 -0.7649  2.0983  0.5920
 2148TIP3    H230640   2.193   5.061  16.912 -0.3483  1.7431  0.2422
 2149TIP3   OH230641   1.504   5.304  15.190  0.1173  0.0357 -0.1084
 2149TIP3    H130642   1.467   5.386  15.222  2.6914  1.5117 -0.6801
 2149TIP3    H230643   1.546   5.265  15.267 -2.1987 -1.5297  0.4874
 2150TIP3   OH230644   6.444   6.560  14.907 -0.2062  0.0448 -0.4267
 2150TIP3    H130645   6.384   6.526  14.974  0.2921  0.5137  0.2688
 2150TIP3    H230646   6.435   6.655  14.912  0.6602  0.1227 -0.2507
 2151TIP3   OH230647   0.804   3.550  14.484  0.2702  0.4991 -0.0366
 2151TIP3    H130648   0.738   3.552  14.414  0.1593  0.0481  0.0495
 2151TIP3    H230649   0.834   3.459  14.485 -0.5891  0.1947  1.2816
 2152TIP3   OH230650   2.603   5.851  14.652 -0.1947  0.5663 -0.0422
 2152TIP3    H130651   2.606   5.779  14.589 -1.0438  1.1811 -0.8128
 2152TIP3    H230652   2.580   5.928  14.599  3.5426  2.0528  0.1962
 2153TIP3   OH230653   4.368   6.085  14.401  0.1746 -0.4353  0.6523
 2153TIP3    H130654   4.308   6.066  14.328 -0.1432 -0.1574  0.8420
 2153TIP3    H230655   4.321   6.146  14.456  0.4085 -0.6632  1.1090
 2154TIP3   OH230656   5.277   5.606  15.276  0.6483  0.0677  0.0044
 2154TIP3    H130657   5.308   5.620  15.365  0.5627  0.1510  0.0221
 2154TIP3    H230658   5.292   5.690  15.232  0.6796  0.0307 -0.0555
 2155TIP3   OH230659   6.596   3.965  16.266  0.0413 -0.3021  0.3413
 2155TIP3    H130660   6.622   3.934  16.352  0.7758  0.1971  0.3077
 2155TIP3    H230661   6.671   4.016  16.235  0.0196 -0.9388 -0.8340
 2156TIP3   OH230662   4.991   0.764  16.409  0.2595  0.6081  0.2634
 2156TIP3    H130663   5.003   0.854  16.437 -0.2926  1.1133 -1.0360
 2156TIP3    H230664   5.043   0.712  16.471  0.2895  1.7710  1.2474
 2157TIP3   OH230665   5.995   4.962  16.988  0.0339 -0.0782 -0.0384
 2157TIP3    H130666   5.977   5.050  17.020 -0.2062 -0.5050  1.0473
 2157TIP3    H230667   6.090   4.960  16.973  0.0250  0.3896 -0.1533
 2158TIP3   OH230668   4.304   5.158  16.146  0.0158  0.3934 -0.0022
 2158TIP3    H130669   4.379   5.216  16.139 -0.5465  1.0527 -0.7305
 2158TIP3    H230670   4.336   5.083  16.197  1.6011 -0.0548 -1.5537
 2159TIP3   OH230671   4.273   3.951  14.218  0.6174  0.3073 -0.7020
 2159TIP3    H130672   4.210   4.021  14.205  0.8546  0.9820  1.4554
 2159TIP3    H230673   4.239   3.900  14.291  0.6881 -1.6043 -1.9275
 2160TIP3   OH230674   2.339   5.357  15.137  0.1882 -0.5378 -0.0642
 2160TIP3    H130675   2.294   5.274  15.120 -0.1683 -0.5199  0.7510
 2160TIP3    H230676   2.417   5.333  15.186 -0.4010 -0.3222  1.0099
 2161TIP3   OH230677   3.452   5.474  13.614 -0.9875 -0.0593  0.1414
 2161TIP3    H130678   3.393   5.401  13.633 -2.0562  0.1726 -1.9964
 2161TIP3    H230679   3.393   5.547  13.596  0.0049  0.6325 -0.3748
 2162TIP3   OH230680   6.499   5.326  13.204 -0.1789  0.0375 -0.7029
 2162TIP3    H130681   6.487   5.399  13.265  1.5129  0.1306 -0.4557
 2162TIP3    H230682   6.415   5.280  13.205 -0.9932  1.4820 -0.2226
 2163TIP3   OH230683   0.375   2.692  15.208 -0.2155  0.5523  0.1387
 2163TIP3    H130684   0.345   2.629  15.274 -0.7658 -0.2202 -0.8252
 2163TIP3    H230685   0.448   2.649  15.164 -1.4979 -0.0812 -1.4964
 2164TIP3   OH230686   0.921   0.600  15.764  0.0729  0.0141  0.2851
 2164TIP3    H130687   0.984   0.610  15.835 -0.2027  1.3577  0.3769
 2164TIP3    H230688   0.837   0.623  15.802 -0.4764 -1.6015  0.1170
 2165TIP3   OH230689   2.059   3.079  16.847  0.9660  0.7023  0.0456
 2165TIP3    H130690   2.023   2.991  16.831  1.5458  0.5777 -0.6231
 2165TIP3    H230691   2.055   3.122  16.762  1.7765  0.9068  0.0980
 2166TIP3   OH230692   5.868   5.561  16.699 -0.1823  0.1549 -0.1041
 2166TIP3    H130693   5.847   5.611  16.777 -1.7809 -0.7345  0.0802
 2166TIP3    H230694   5.961   5.578  16.684 -0.2163  1.5751  1.0703
 2167TIP3   OH230695   0.812   1.261  16.682 -0.4793 -0.1216 -0.4991
 2167TIP3    H130696   0.720   1.246  16.702 -0.4246  0.8409  0.6071
 2167TIP3    H230697   0.859   1.206  16.745 -0.3106  1.1681  0.5479
 2168TIP3   OH230698   0.933   3.754  14.182  0.2419  0.2209 -0.4594
 2168TIP3    H130699   0.945   3.846  14.209 -0.0392 -0.1450  1.0081
 2168TIP3    H230700   0.994   3.743  14.109  0.9365  1.3376 -0.0880
 2169TIP3   OH230701   5.384   6.567  16.341  0.1152  0.0298  0.1771
 2169TIP3    H130702   5.378   6.560  16.245  0.0073 -0.0340  0.1892
 2169TIP3    H230703   5.478   6.575  16.358  0.1319  0.0928  0.0626
 2170TIP3   OH230704   2.541   1.719  16.254  0.0955 -0.4384  0.0881
 2170TIP3    H130705   2.490   1.649  16.215 -1.1679 -0.4871  1.7210
 2170TIP3    H230706   2.480   1.792  16.264  1.1851  0.6605 -0.8434
 2171TIP3   OH230707   1.207   5.192  17.085  0.1813  0.2621 -0.5723
 2171TIP3    H130708   1.272   5.255  17.053 -0.2302  0.2768 -1.4137
 2171TIP3    H230709   1.234   5.108  17.049  0.7283 -0.0625  0.5518
 2172TIP3   OH230710   4.324   4.774  14.809 -0.5129 -0.1044  0.0114
 2172TIP3    H130711   4.411   4.811  14.824  0.0262 -0.4677 -1.8679
 2172TIP3    H230712   4.340   4.699  14.752 -1.7901 -1.9865  1.9508
 2173TIP3   OH230713   0.410   0.606  15.919  0.0833  0.0018 -1.5373
 2173TIP3    H130714   0.382   0.514  15.921  1.0711 -0.3107  0.6994
 2173TIP3    H230715   0.346   0.652  15.973  2.0327 -0.2119  1.1178
 2174TIP3   OH230716   4.967   0.916  16.961 -0.3208  0.4626 -0.3885
 2174TIP3    H130717   4.950   0.973  17.036  0.0413  1.4891 -1.0711
 2174TIP3    H230718   5.061   0.924  16.945 -0.3583  0.0787 -0.8186
 2175TIP3   OH230719   5.331   1.505  16.734  1.0113  0.0614 -0.5518
 2175TIP3    H130720   5.258   1.473  16.788  1.1369  0.0802 -0.3679
 2175TIP3    H230721   5.375   1.569  16.790  0.5572  0.8228 -1.0357
 2176TIP3   OH230722   0.793   1.907  14.170  0.0445 -0.3567  0.0642
 2176TIP3    H130723   0.723   1.847  14.194  1.0551 -1.2044  0.9947
 2176TIP3    H230724   0.772   1.934  14.080 -1.2171 -0.9408  0.1693
 2177TIP3   OH230725   1.133   5.477  14.071 -0.4316 -0.3249  0.0835
 2177TIP3    H130726   1.081   5.553  14.046 -0.4303 -0.6943 -1.0913
 2177TIP3    H230727   1.214   5.486  14.020  0.0514 -0.5064  0.8105
 2178TIP3   OH230728   4.964   3.474  15.285 -0.0459 -0.6245  0.5585
 2178TIP3    H130729   4.890   3.504  15.232 -0.4643 -0.3789  1.2588
 2178TIP3    H230730   4.924   3.421  15.354  0.4110 -0.3489  1.0446
 2179TIP3   OH230731   3.896   3.722  16.503 -0.2180 -0.2231  0.2770
 2179TIP3    H130732   3.807   3.753  16.487 -0.2015  0.3839  1.2793
 2179TIP3    H230733   3.884   3.641  16.553 -0.2137 -0.1200  0.4479
 2180TIP3   OH230734   2.614   6.532  15.390  0.1902 -0.6827 -0.1588
 2180TIP3    H130735   2.620   6.622  15.359 -0.1315 -0.4578  0.4082
 2180TIP3    H230736   2.528   6.502  15.362  0.0304 -0.5874  0.2180
 2181TIP3   OH230737   5.512   1.053  16.951  0.0699  0.4351 -0.1106
 2181TIP3    H130738   5.430   1.037  16.906 -0.3433 -0.6737  0.9871
 2181TIP3    H230739   5.501   1.140  16.991 -0.1665  0.7207 -0.7865
 2182TIP3   OH230740   0.017   3.458  16.323 -0.2195 -0.4329  0.5961
 2182TIP3    H130741  -0.033   3.404  16.383  0.2808 -0.5574  0.9120
 2182TIP3    H230742   0.106   3.422  16.328 -0.0469 -0.0575  0.2423
 2183TIP3   OH230743   0.135   3.962  14.041 -0.5437 -0.0575 -0.1115
 2183TIP3    H130744   0.188   4.034  14.075  0.9160 -1.3006  0.3711
 2183TIP3    H230745   0.099   3.995  13.959  2.1283  0.4169 -1.1938
 2184TIP3   OH230746   3.973   0.921  13.989 -0.2659 -0.4076  0.3464
 2184TIP3    H130747   3.998   0.998  14.041 -0.1213 -1.3840  1.7878
 2184TIP3    H230748   4.052   0.896  13.943 -0.5229  0.7741 -0.7936
 2185TIP3   OH230749   6.639   6.721  13.939  0.2282 -0.0353 -0.4645
 2185TIP3    H130750   6.619   6.790  14.002  3.8560  1.8176 -1.1052
 2185TIP3    H230751   6.642   6.641  13.991 -2.0314  0.5270  0.6620
 2186TIP3   OH230752   2.468   4.718  14.040  0.4664 -0.2476 -0.0620
 2186TIP3    H130753   2.505   4.702  13.953  0.4417  2.4352 -0.6647
 2186TIP3    H230754   2.539   4.761  14.088 -0.4235  1.0203  0.1855
 2187TIP3   OH230755   5.295   4.431  15.613  0.3407 -0.0712  0.1096
 2187TIP3    H130756   5.322   4.406  15.702  1.5748 -0.3266 -0.3154
 2187TIP3    H230757   5.341   4.513  15.597 -0.6412  0.4789  0.0497
 2188TIP3   OH230758   5.091   1.555  16.287 -0.7349  0.2282  0.6226
 2188TIP3    H130759   5.034   1.478  16.286 -3.1567  1.8759 -0.9969
 2188TIP3    H230760   5.174   1.524  16.251 -1.6808 -1.5880 -0.1540
 2189TIP3   OH230761   3.699   0.856  16.953 -0.0667  0.1200  0.3619
 2189TIP3    H130762   3.789   0.833  16.927 -0.4698 -0.0459 -0.9645
 2189TIP3    H230763   3.652   0.866  16.870 -1.3308  0.0114  1.0426
 2190TIP3   OH230764   5.272   5.860  14.713  0.4490 -0.0816 -0.0100
 2190TIP3    H130765   5.207   5.928  14.732  0.5304 -0.1143  0.3788
 2190TIP3    H230766   5.226   5.800  14.654  0.2467  0.0921 -0.0317
 2191TIP3   OH230767   2.586   1.021  17.120  0.3828  0.2945  0.2775
 2191TIP3    H130768   2.562   1.093  17.179 -0.1093  0.1552  0.2532
 2191TIP3    H230769   2.508   1.008  17.066  1.1077  0.9860 -0.9878
 2192TIP3   OH230770   0.348   1.890  16.353 -0.2056  0.0087 -0.7259
 2192TIP3    H130771   0.271   1.946  16.341  0.6232  1.7672  1.4536
 2192TIP3    H230772   0.422   1.950  16.351  1.0899 -1.5556 -2.0020
 2193TIP3   OH230773   5.292   1.668  13.796  0.0120 -0.3361  0.1068
 2193TIP3    H130774   5.365   1.681  13.857 -0.3385 -0.4610  0.5601
 2193TIP3    H230775   5.334   1.649  13.712  0.5655  2.0973 -0.2624
 2194TIP3   OH230776   1.727   3.745  16.964 -0.1624  0.3226 -0.0817
 2194TIP3    H130777   1.639   3.714  16.941  0.2405 -2.0307  1.2416
 2194TIP3    H230778   1.715   3.796  17.044 -0.2645 -0.5636  0.4754
 2195TIP3   OH230779   5.837   6.420  16.092 -0.4584 -0.2979  0.5118
 2195TIP3    H130780   5.925   6.402  16.125 -0.2783  0.6753  0.5821
 2195TIP3    H230781   5.784   6.349  16.126  0.5983 -1.8226 -0.8653
 2196TIP3   OH230782   5.583   3.272  14.426  0.4018  0.3245 -0.3337
 2196TIP3    H130783   5.572   3.263  14.521  0.4094  1.0183 -0.2678
 2196TIP3    H230784   5.608   3.184  14.397 -1.9206 -0.5180 -0.0145
 2197TIP3   OH230785   4.893   6.509  14.664 -0.3227  0.4738  0.6399
 2197TIP3    H130786   4.988   6.499  14.660 -0.2895  1.1745 -1.0035
 2197TIP3    H230787   4.869   6.544  14.578 -2.2461 -1.1084  0.4572
 2198TIP3   OH230788   1.695   4.734  16.554  0.3198  0.1896  0.1544
 2198TIP3    H130789   1.643   4.810  16.530 -0.2773 -0.2702 -0.0320
 2198TIP3    H230790   1.691   4.677  16.477  0.0421 -0.4142  0.6105
 2199TIP3   OH230791   4.316   0.256  16.721 -0.7784  0.1789  0.1252
 2199TIP3    H130792   4.228   0.293  16.726  0.0758  2.1851  1.7107
 2199TIP3    H230793   4.313   0.177  16.776 -1.9937 -0.8091 -1.2896
 2200TIP3   OH230794   1.068   0.548  16.013 -0.6653 -0.5816  0.3576
 2200TIP3    H130795   1.050   0.598  16.093  0.3500 -0.1674  0.3298
 2200TIP3    H230796   1.032   0.461  16.032 -2.9989  0.2744  0.1796
 2201TIP3   OH230797   4.213   2.843  14.034 -0.3857 -0.3651  0.5869
 2201TIP3    H130798   4.121   2.834  14.009 -0.1692  1.3150 -1.0340
 2201TIP3    H230799   4.251   2.757  14.014 -1.2280 -0.5013 -0.5542
 2202TIP3   OH230800   0.427   4.581  13.661  0.0793  0.2122  0.4572
 2202TIP3    H130801   0.339   4.570  13.623 -0.3101  1.3243  0.9784
 2202TIP3    H230802   0.467   4.650  13.609  0.1853  0.5477  0.9757
 2203TIP3   OH230803   6.489   4.039  13.329 -0.1581 -0.2172 -0.0743
 2203TIP3    H130804   6.549   4.100  13.284  0.4198 -0.5239  0.2655
 2203TIP3    H230805   6.543   3.963  13.349 -0.5001 -0.2350  0.8189
 2204TIP3   OH230806   1.118   5.903  15.524  0.2063  0.0006  0.0167
 2204TIP3    H130807   1.202   5.944  15.505  0.4140 -0.8499 -0.9811
 2204TIP3    H230808   1.133   5.853  15.604  0.7475 -0.3861 -0.3186
 2205TIP3   OH230809   1.774   3.854  16.389  0.3105 -0.2165  0.0098
 2205TIP3    H130810   1.852   3.810  16.425  0.1566  0.4827  1.2440
 2205TIP3    H230811   1.808   3.907  16.317  1.0104  0.1523  0.5909
 2206TIP3   OH230812   1.913   5.446  15.378 -0.1931  0.5229 -0.4528
 2206TIP3    H130813   1.890   5.399  15.458 -0.5554 -0.9619 -1.3942
 2206TIP3    H230814   1.829   5.474  15.342 -0.1058  0.3560 -0.7935
 2207TIP3   OH230815   4.336   1.573  17.031  0.8305 -0.0631 -0.1489
 2207TIP3    H130816   4.283   1.562  16.952 -0.9469  0.2726  0.9500
 2207TIP3    H230817   4.273   1.578  17.102  2.3062  1.3444  1.1407
 2208TIP3   OH230818   4.904   3.662  16.054  0.3703  0.1094  0.4078
 2208TIP3    H130819   4.953   3.735  16.014 -0.9090 -1.0693 -3.8549
 2208TIP3    H230820   4.817   3.698  16.071  0.5871  0.3099  1.1267
 2209TIP3   OH230821   3.797   2.023  15.283 -0.3152  0.0011 -0.6670
 2209TIP3    H130822   3.841   2.099  15.323 -2.0045  1.0921 -0.7807
 2209TIP3    H230823   3.767   2.056  15.198  0.7569 -1.4517 -1.6462
 2210TIP3   OH230824   4.600   4.853  15.576  0.4385 -0.6153  0.2612
 2210TIP3    H130825   4.641   4.833  15.492  1.6459 -0.4220  0.7654
 2210TIP3    H230826   4.512   4.883  15.554  1.3008  1.1599 -1.1079
 2211TIP3   OH230827   6.184   3.675  16.762  0.0641  0.0060  0.0406
 2211TIP3    H130828   6.178   3.768  16.785  1.2051  0.1174 -0.0376
 2211TIP3    H230829   6.242   3.673  16.686  0.3117 -0.7942  0.2426
 2212TIP3   OH230830   6.644   5.281  17.005 -0.2112 -0.2528  0.2853
 2212TIP3    H130831   6.632   5.326  17.088 -0.6388 -1.2958  0.8052
 2212TIP3    H230832   6.680   5.195  17.029  3.2035  0.6994 -0.8273
 2213TIP3   OH230833   6.280   4.854  14.731  0.1691  0.2456 -0.6585
 2213TIP3    H130834   6.268   4.880  14.822 -0.9741 -0.5244 -0.5708
 2213TIP3    H230835   6.193   4.861  14.692  0.8012  1.4003 -1.9331
 2214TIP3   OH230836   3.099   5.818  16.309  0.0928 -0.3744  0.2898
 2214TIP3    H130837   3.153   5.865  16.373 -1.5054 -0.9265  2.1324
 2214TIP3    H230838   3.011   5.821  16.345 -0.7503 -1.4202 -1.5267
 2215TIP3   OH230839   2.895   4.372  13.122  0.3487  0.3734  0.2637
 2215TIP3    H130840   2.946   4.441  13.166  2.0484 -0.8469  0.2970
 2215TIP3    H230841   2.960   4.317  13.079 -1.0824 -0.2664 -1.2118
 2216TIP3   OH230842   0.065   3.305  15.712  0.3672  0.3952  0.0502
 2216TIP3    H130843   0.058   3.225  15.660 -0.3194  0.0999  0.5843
 2216TIP3    H230844  -0.022   3.318  15.748  0.2893  1.7732 -0.5793
 2217TIP3   OH230845   4.371   0.655  15.493  0.3574 -0.1381  0.4722
 2217TIP3    H130846   4.388   0.562  15.482 -0.5963 -0.1289 -1.7106
 2217TIP3    H230847   4.294   0.659  15.551 -1.0309 -0.8802 -1.2254
 2218TIP3   OH230848   3.311   0.321  13.939 -0.0426 -0.1521  0.2388
 2218TIP3    H130849   3.332   0.408  13.975  2.5905 -1.6557  2.7244
 2218TIP3    H230850   3.358   0.319  13.856 -0.7947  1.0631 -0.2465
 2219TIP3   OH230851   6.012   4.835  14.272  0.2604 -0.5253 -0.3790
 2219TIP3    H130852   6.044   4.746  14.285  0.7680  0.0056  2.6445
 2219TIP3    H230853   6.079   4.891  14.312 -1.2589  1.0341  0.1079
 2220TIP3   OH230854   1.473   1.245  14.636 -0.0522  0.1916  0.3063
 2220TIP3    H130855   1.391   1.197  14.649  0.2252 -0.7551 -1.1691
 2220TIP3    H230856   1.461   1.327  14.683 -1.6786 -0.1096  0.4647
 2221TIP3   OH230857   6.426   6.312  15.773  0.6802 -0.1761  0.1117
 2221TIP3    H130858   6.421   6.216  15.768  0.8706 -0.1686 -0.2440
 2221TIP3    H230859   6.519   6.332  15.763  0.7480  0.0053  1.0290
 2222TIP3   OH230860   6.611   0.226  15.493  0.2752 -0.2523 -0.6140
 2222TIP3    H130861   6.693   0.251  15.450  2.0005 -0.2859  2.4207
 2222TIP3    H230862   6.630   0.143  15.535 -1.9025 -1.1138 -1.2072
 2223TIP3   OH230863   1.677   5.886  16.757 -0.3277 -0.0770 -0.2399
 2223TIP3    H130864   1.673   5.981  16.768 -0.9426  0.0278 -1.2332
 2223TIP3    H230865   1.700   5.874  16.665  0.5562 -0.8968  0.0753
 2224TIP3   OH230866   2.874   2.240  15.214  0.1291  0.2026  0.0096
 2224TIP3    H130867   2.844   2.331  15.223  0.9226  0.4572  0.1039
 2224TIP3    H230868   2.891   2.212  15.304 -0.4267 -0.1494  0.0068
 2225TIP3   OH230869   0.225   6.577  16.309 -0.0639  0.4031 -0.0316
 2225TIP3    H130870   0.177   6.651  16.347 -0.1722  1.1671 -1.5585
 2225TIP3    H230871   0.276   6.541  16.382  0.2629  2.2037  0.6839
 2226TIP3   OH230872   6.516   4.366  15.490  1.0280 -0.1051  0.0580
 2226TIP3    H130873   6.456   4.438  15.511  0.0040 -0.9586  0.1279
 2226TIP3    H230874   6.510   4.307  15.564  0.2782 -1.2620 -0.8809
 2227TIP3   OH230875   2.030   6.311  15.575 -0.2725  0.7838 -0.4322
 2227TIP3    H130876   2.061   6.278  15.659 -0.2047 -1.5104 -1.3016
 2227TIP3    H230877   2.081   6.264  15.509  0.2470  3.0958 -1.8197
 2228TIP3   OH230878   3.331   0.873  15.457 -0.0705 -0.6296 -0.2387
 2228TIP3    H130879   3.375   0.789  15.456  0.8148 -0.1814  0.0177
 2228TIP3    H230880   3.249   0.857  15.505  0.8209 -1.0017  1.2268
 2229TIP3   OH230881   1.014   2.345  16.672 -0.4360 -0.3440  0.6076
 2229TIP3    H130882   1.071   2.269  16.667 -0.3765 -0.3159  0.8921
 2229TIP3    H230883   0.999   2.369  16.580  0.3127 -0.1185  0.5406
 2230TIP3   OH230884   2.745   2.572  14.261  0.0496 -0.1163 -0.0589
 2230TIP3    H130885   2.758   2.483  14.294  0.3207  0.4736  1.5360
 2230TIP3    H230886   2.821   2.588  14.205 -0.1871 -1.0091 -0.6413
 2231TIP3   OH230887   4.605   2.318  16.725 -0.3558 -0.3871  0.1241
 2231TIP3    H130888   4.518   2.331  16.763  0.3177  2.9023  0.9158
 2231TIP3    H230889   4.659   2.288  16.798 -0.1292  1.1444  0.6443
 2232TIP3   OH230890   6.081   2.810  13.449 -0.2992 -0.0211 -0.8275
 2232TIP3    H130891   6.131   2.767  13.518  2.0938  4.6899  0.8560
 2232TIP3    H230892   6.145   2.833  13.382 -1.3445  1.0480 -1.5205
 2233TIP3   OH230893   2.318   3.918  16.679  0.0915  0.1319  0.2650
 2233TIP3    H130894   2.231   3.936  16.643 -0.0249 -0.8024  0.0435
 2233TIP3    H230895   2.300   3.883  16.767  0.0947 -1.9392 -0.4948
 2234TIP3   OH230896   2.582   4.010  14.848  0.0996 -0.1348  0.0248
 2234TIP3    H130897   2.556   3.918  14.841  2.6541 -0.9509  0.4730
 2234TIP3    H230898   2.636   4.014  14.926 -0.5477  1.9313  0.4200
 2235TIP3   OH230899   1.441   5.821  17.105  0.3205  0.7835 -0.3474
 2235TIP3    H130900   1.357   5.845  17.066 -0.4442  0.7230  1.2020
 2235TIP3    H230901   1.418   5.768  17.181  1.7112  1.8679  0.8846
 2236TIP3   OH230902   1.285   5.155  16.349  0.1206 -0.3031  0.0626
 2236TIP3    H130903   1.280   5.111  16.264 -0.4535 -0.6405  0.2681
 2236TIP3    H230904   1.367   5.204  16.345 -1.0513  1.7323 -1.6704
 2237TIP3   OH230905   1.050   6.104  16.670 -0.0663 -0.3134 -0.2080
 2237TIP3    H130906   1.007   6.023  16.641 -0.0471 -0.4816  0.2237
 2237TIP3    H230907   1.143   6.080  16.676 -0.2544 -0.7161  1.4352
 2238TIP3   OH230908   0.665   5.284  14.273  0.2445  0.4945  0.3817
 2238TIP3    H130909   0.620   5.329  14.202 -1.9585 -1.4040  0.4586
 2238TIP3    H230910   0.628   5.196  14.272  3.5387 -1.0544  0.9178
 2239TIP3   OH230911   0.055   5.373  15.260 -0.1137 -0.3814  0.2982
 2239TIP3    H130912   0.063   5.290  15.308  0.4733 -0.3681  0.2217
 2239TIP3    H230913  -0.031   5.367  15.218  0.0266 -1.0601  0.0912
 2240TIP3   OH230914   0.156   4.644  13.838  0.0446  0.0953 -0.2351
 2240TIP3    H130915   0.133   4.554  13.862 -0.6995  0.8078  2.0238
 2240TIP3    H230916   0.242   4.658  13.877  0.4057  0.2068 -1.0541
 2241TIP3   OH230917   3.465   4.391  16.329 -0.0418 -0.1230 -0.1005
 2241TIP3    H130918   3.539   4.332  16.348 -0.1306 -0.0087  0.6434
 2241TIP3    H230919   3.500   4.453  16.266  0.9706  0.8055  1.3076
 2242TIP3   OH230920   3.234   0.205  16.836 -0.3494 -0.1104 -0.3053
 2242TIP3    H130921   3.145   0.203  16.871  0.4889 -0.3931  1.9392
 2242TIP3    H230922   3.235   0.138  16.768 -1.2472 -1.7586  1.2353
 2243TIP3   OH230923   2.459   3.126  15.217 -0.3152  0.5389 -0.1090
 2243TIP3    H130924   2.423   3.210  15.190  1.1340  1.4176  0.5256
 2243TIP3    H230925   2.385   3.077  15.252 -1.2413  1.4132 -0.8073
 2244TIP3   OH230926   6.628   0.889  13.851 -0.5131 -0.1282 -0.7232
 2244TIP3    H130927   6.681   0.956  13.893 -1.3203  0.9108 -1.3230
 2244TIP3    H230928   6.682   0.857  13.779 -0.6367  0.8181 -1.2428
 2245TIP3   OH230929   3.704   3.606  15.250  0.9886  0.4514  0.0097
 2245TIP3    H130930   3.633   3.669  15.256  2.2193  1.8381  0.6622
 2245TIP3    H230931   3.714   3.589  15.156  1.1554  1.8520 -0.2403
 2246TIP3   OH230932   1.557   1.471  15.382 -0.2822 -0.2478 -0.2352
 2246TIP3    H130933   1.597   1.401  15.434  1.8299  0.5603 -0.6753
 2246TIP3    H230934   1.475   1.433  15.350 -0.6910 -1.4396  2.0206
 2247TIP3   OH230935   6.345   3.812  15.148  0.3925 -0.4426  0.0872
 2247TIP3    H130936   6.394   3.814  15.066  0.5103 -2.3830  0.0737
 2247TIP3    H230937   6.270   3.754  15.130  0.7468 -1.3984  1.4953
 2248TIP3   OH230938   1.533   3.260  15.503  0.2333  0.1953  0.5524
 2248TIP3    H130939   1.622   3.281  15.532  0.3616  1.4252 -0.6359
 2248TIP3    H230940   1.481   3.336  15.530 -0.2945 -0.1437  0.4933
 2249TIP3   OH230941   5.547   2.312  15.480  0.1417 -1.1184  0.3513
 2249TIP3    H130942   5.555   2.246  15.410  0.6097 -1.1679  0.4517
 2249TIP3    H230943   5.453   2.331  15.483  0.0034 -1.7460  0.2862
 2250TIP3   OH230944   2.045   1.149  14.607 -0.5368  0.1511  0.3799
 2250TIP3    H130945   1.967   1.139  14.552 -0.7939  0.0681  0.7446
 2250TIP3    H230946   2.102   1.076  14.583 -0.4439  0.3811 -0.0956
 2251TIP3   OH230947   2.716   4.719  16.426  0.6002  0.3377  0.5289
 2251TIP3    H130948   2.635   4.744  16.381 -0.3703 -0.5246  1.7049
 2251TIP3    H230949   2.748   4.643  16.376  0.1178  0.0542  0.6379
 2252TIP3   OH230950   1.786   3.988  14.330  0.7374  0.1704 -0.3109
 2252TIP3    H130951   1.862   4.008  14.274  1.1626 -1.1611 -0.2498
 2252TIP3    H230952   1.721   4.053  14.306  1.8676  1.2846 -0.4421
 2253TIP3   OH230953   2.285   0.467  16.852 -0.4999  0.5213  0.1831
 2253TIP3    H130954   2.230   0.431  16.922 -1.6731 -1.6961 -1.7244
 2253TIP3    H230955   2.374   0.459  16.885 -0.9577 -1.1761  1.1649
 2254TIP3   OH230956   0.547   4.325  15.043 -0.1317 -0.0570  0.6672
 2254TIP3    H130957   0.587   4.408  15.070  0.1134  0.5334 -1.3219
 2254TIP3    H230958   0.537   4.333  14.948 -3.0579 -1.0284  0.7849
 2255TIP3   OH230959   6.434   6.633  16.998  0.2341 -0.0042  0.3009
 2255TIP3    H130960   6.444   6.667  16.909 -0.2227 -0.4030  0.0957
 2255TIP3    H230961   6.449   6.710  17.054 -0.3058  0.4371 -0.1447
 2256TIP3   OH230962   0.085   2.516  14.756 -0.3156 -0.0112 -0.0296
 2256TIP3    H130963  -0.004   2.480  14.753 -0.4693  0.2226  1.1338
 2256TIP3    H230964   0.124   2.492  14.672 -2.7800  3.2665 -2.4022
 2257TIP3   OH230965   2.189   1.328  16.616 -0.1666 -0.5730 -0.3448
 2257TIP3    H130966   2.203   1.367  16.530 -0.5869  1.0782  0.2920
 2257TIP3    H230967   2.245   1.379  16.675  0.8003 -2.2452  0.2613
 2258TIP3   OH230968   0.373   4.138  15.142 -0.4876  0.5263  0.4223
 2258TIP3    H130969   0.450   4.195  15.145  0.7978 -0.8144 -2.7237
 2258TIP3    H230970   0.325   4.166  15.065 -1.4736 -0.7087  0.5561
 2259TIP3   OH230971   2.935   4.625  14.708 -0.0496 -0.4053 -0.3171
 2259TIP3    H130972   2.919   4.719  14.711  0.7110 -0.2729 -0.2214
 2259TIP3    H230973   2.934   4.603  14.615 -0.2030 -0.2957 -0.3392
 2260TIP3   OH230974   1.810   5.272  16.875  0.4920 -0.0533 -0.0683
 2260TIP3    H130975   1.865   5.194  16.873  0.0264 -0.3705 -1.4965
 2260TIP3    H230976   1.814   5.302  16.965 -0.1811 -2.3242  0.7741
 2261TIP3   OH230977   1.931   0.266  15.639  0.3973 -0.1653 -0.0799
 2261TIP3    H130978   1.951   0.274  15.733  0.1873 -0.2795 -0.0264
 2261TIP3    H230979   1.847   0.222  15.636  1.3749 -2.1363 -0.3553
 2262TIP3   OH230980   2.876   3.931  15.575 -0.1355  0.2383 -0.2244
 2262TIP3    H130981   2.899   3.844  15.608  0.6207  0.7509  0.6517
 2262TIP3    H230982   2.834   3.914  15.491 -1.3205 -1.0646  0.5718
 2263TIP3   OH230983   4.511   5.672  14.786  0.1345 -0.4965 -0.2706
 2263TIP3    H130984   4.465   5.720  14.854  1.5082 -2.8139  2.5332
 2263TIP3    H230985   4.444   5.617  14.746 -0.4949  0.0705 -0.0182
 2264TIP3   OH230986   6.263   5.331  16.136  0.1557  0.0576  0.5722
 2264TIP3    H130987   6.314   5.333  16.055  1.0248  2.7141  1.0717
 2264TIP3    H230988   6.329   5.336  16.206 -0.6443 -0.0555  1.3550
 2265TIP3   OH230989   6.558   5.541  14.939 -0.5240 -0.2613 -0.1215
 2265TIP3    H130990   6.637   5.504  14.900 -0.1757  1.2974 -0.9953
 2265TIP3    H230991   6.582   5.558  15.030  0.2004  0.3000 -0.4072
 2266TIP3   OH230992   0.354   1.141  14.833 -0.4292 -0.4852  0.0570
 2266TIP3    H130993   0.263   1.170  14.834 -0.6406 -0.9563  3.0968
 2266TIP3    H230994   0.398   1.196  14.898  1.6433  0.0999 -1.7192
 2267TIP3   OH230995   1.890   5.223  14.701  0.2421  0.0460 -0.0683
 2267TIP3    H130996   1.924   5.284  14.635  1.6337 -1.1478 -0.5066
 2267TIP3    H230997   1.961   5.215  14.764 -0.5088  0.0211  0.7815
 2268TIP3   OH230998   5.283   4.366  15.927  0.2304  0.1033 -0.6251
 2268TIP3    H130999   5.239   4.447  15.900  0.8544  0.0346 -1.9351
 2268TIP3    H231000   5.299   4.377  16.020  1.2470  1.9635 -0.9601
 2269TIP3   OH231001   3.567   1.147  13.526 -0.1352 -0.8101  0.0597
 2269TIP3    H131002   3.501   1.145  13.457 -0.1073 -0.3436  0.0189
 2269TIP3    H231003   3.650   1.133  13.480  0.0950  1.3227 -0.2749
 2270TIP3   OH231004   6.489   5.126  14.417  0.3015  0.5791  0.3940
 2270TIP3    H131005   6.549   5.109  14.345 -0.0135 -1.4520  0.5472
 2270TIP3    H231006   6.543   5.114  14.496  0.0355  0.1662  0.5155
 2271TIP3   OH231007   0.669   1.472  16.246  0.3370  0.0069  0.0515
 2271TIP3    H131008   0.671   1.501  16.155  1.9769 -0.3510 -0.0637
 2271TIP3    H231009   0.758   1.487  16.278 -0.2063  0.1132  1.6026
 2272TIP3   OH231010   4.878   1.707  15.730 -0.1644  0.9499 -0.5743
 2272TIP3    H131011   4.794   1.730  15.769  0.2194  3.6747 -1.2027
 2272TIP3    H231012   4.891   1.772  15.661  1.8090 -0.2942 -1.4486
 2273TIP3   OH231013   4.539   3.017  13.820  0.0668  0.4151 -0.2247
 2273TIP3    H131014   4.601   3.089  13.815 -0.5500  0.8811 -1.3085
 2273TIP3    H231015   4.548   2.971  13.737  0.2491 -0.6077  0.3365
 2274TIP3   OH231016   4.464   3.890  13.730  0.1512 -0.0960  0.2862
 2274TIP3    H131017   4.471   3.797  13.708 -3.3033 -0.4076 -0.0809
 2274TIP3    H231018   4.474   3.893  13.825 -1.7599 -1.2503  0.5941
 2275TIP3   OH231019   1.028   6.442  15.851  0.2617  0.4799 -0.2769
 2275TIP3    H131020   1.078   6.367  15.822 -2.4185 -1.1434 -1.0360
 2275TIP3    H231021   1.001   6.420  15.940  0.2881  0.9898 -0.1393
 2276TIP3   OH231022   4.546   0.084  16.154  0.8843 -0.0196 -0.6808
 2276TIP3    H131023   4.609   0.128  16.097  0.9711 -0.2651 -0.7758
 2276TIP3    H231024   4.593   0.007  16.186  0.9156  0.2439 -0.0872
 2277TIP3   OH231025   0.496   2.264  17.014 -0.0478 -0.3313 -0.4526
 2277TIP3    H131026   0.569   2.272  16.953  1.0238 -0.8970  0.7250
 2277TIP3    H231027   0.462   2.354  17.023  1.0263  0.0766 -0.3734
 2278TIP3   OH231028   4.158   5.835  15.386  0.5701  0.2905 -0.1889
 2278TIP3    H131029   4.226   5.858  15.449 -0.8508  0.2250  1.4236
 2278TIP3    H231030   4.144   5.741  15.399 -2.0719  0.8482  1.9138
 2279TIP3   OH231031   0.596   0.626  15.488  1.0375  0.3487 -0.6051
 2279TIP3    H131032   0.523   0.576  15.526  0.2288  1.5419 -0.5135
 2279TIP3    H231033   0.653   0.560  15.449 -0.0934 -0.6255 -0.6616
 2280TIP3   OH231034   4.563   1.083  15.867  0.5585 -0.0080  0.0036
 2280TIP3    H131035   4.505   1.089  15.791 -0.8733  0.1673  1.0774
 2280TIP3    H231036   4.649   1.106  15.832  0.0576 -0.5158 -1.6854
 2281TIP3   OH231037   6.663   1.816  16.450 -0.0400  0.0875  0.1106
 2281TIP3    H131038   6.673   1.808  16.545 -1.1394  0.3465  0.2565
 2281TIP3    H231039   6.753   1.826  16.418  0.6786 -2.8690  0.8297
 2282TIP3   OH231040   4.137   1.670  13.923 -0.1720 -0.0416 -0.2428
 2282TIP3    H131041   4.054   1.681  13.876 -0.7996 -0.4427  0.7410
 2282TIP3    H231042   4.183   1.753  13.910 -1.4457  0.8183  0.5754
 2283TIP3   OH231043   5.367   0.080  15.597  0.0658  0.1867 -0.0252
 2283TIP3    H131044   5.432   0.143  15.629  0.3325 -0.2968  0.3854
 2283TIP3    H231045   5.284   0.128  15.600  0.2569  0.5008  0.3446
 2284TIP3   OH231046   3.383   2.287  15.189 -0.6182 -0.4894  0.8265
 2284TIP3    H131047   3.298   2.328  15.206 -1.0215 -1.0891  0.3356
 2284TIP3    H231048   3.361   2.202  15.151  0.1975 -0.9923  1.4322
 2285TIP3   OH231049   1.239   4.752  14.700 -0.1073 -0.3262 -0.1515
 2285TIP3    H131050   1.151   4.720  14.720 -0.8916  1.2528 -0.8599
 2285TIP3    H231051   1.224   4.840  14.663  1.8188  0.2765  0.4178
 2286TIP3   OH231052   3.924   0.246  14.283 -0.2949  0.2669  0.2399
 2286TIP3    H131053   3.869   0.271  14.209  1.1729  1.2886 -0.5536
 2286TIP3    H231054   3.971   0.168  14.254 -1.1250 -0.4627  0.8255
 2287TIP3   OH231055   1.105   4.478  14.168  0.0549  0.2007 -0.0075
 2287TIP3    H131056   1.108   4.540  14.241 -2.5254 -1.5595  1.7869
 2287TIP3    H231057   1.078   4.531  14.093 -2.3136  1.3348  1.5114
 2288TIP3   OH231058   6.313   0.171  15.533 -0.4512 -0.1793  0.2130
 2288TIP3    H131059   6.325   0.084  15.571 -0.3734 -0.4638 -0.4566
 2288TIP3    H231060   6.398   0.194  15.497 -0.7912 -0.4061 -0.7911
 2289TIP3   OH231061   4.826   1.849  13.962  0.0176  0.1550  0.0177
 2289TIP3    H131062   4.912   1.849  13.922 -0.0073  1.2069 -0.0486
 2289TIP3    H231063   4.808   1.756  13.979  0.3841 -0.2412 -1.5889
 2290TIP3   OH231064   6.297   0.575  14.484  0.5031  0.5187 -0.1543
 2290TIP3    H131065   6.226   0.629  14.519  1.1957  1.6056 -0.3705
 2290TIP3    H231066   6.267   0.549  14.397  0.4178  1.1067 -0.3087
 2291TIP3   OH231067   3.492   0.673  15.922  0.0312 -0.0452 -0.0766
 2291TIP3    H131068   3.584   0.700  15.924  0.7203 -2.1048  1.7194
 2291TIP3    H231069   3.443   0.750  15.950  0.9827  1.5817 -2.5828
 2292TIP3   OH231070   0.095   4.838  15.969 -0.3966  0.0344 -0.4523
 2292TIP3    H131071   0.098   4.809  16.060 -2.3387  0.2123 -0.3055
 2292TIP3    H231072   0.187   4.840  15.942  0.1214 -1.4516  1.0331
 2293TIP3   OH231073   0.808   4.481  16.815  0.1420 -0.2154 -0.3810
 2293TIP3    H131074   0.772   4.396  16.791 -3.4051  1.2137 -0.8355
 2293TIP3    H231075   0.833   4.522  16.733  2.1509 -0.8501 -0.1382
 2294TIP3   OH231076   3.078   1.630  14.249  0.1315  1.0250  0.6681
 2294TIP3    H131077   2.988   1.625  14.283  0.2284 -1.1227  0.7191
 2294TIP3    H231078   3.070   1.603  14.157  0.6317  1.6180  0.4440
 2295TIP3   OH231079   6.507   1.893  14.416 -0.2161  0.2590  0.3852
 2295TIP3    H131080   6.424   1.902  14.462  0.1965  1.5226  0.9127
 2295TIP3    H231081   6.489   1.827  14.348 -0.9569 -1.3130  2.0203
 2296TIP3   OH231082   5.318   5.592  14.853 -0.2077 -0.3765  0.8711
 2296TIP3    H131083   5.312   5.643  14.772  0.9371 -0.5766  0.6449
 2296TIP3    H231084   5.269   5.512  14.835 -0.8328  0.0257  0.7439
 2297TIP3   OH231085   3.291   5.090  15.675  0.4273 -0.5167  0.1597
 2297TIP3    H131086   3.260   5.144  15.748 -1.7576 -1.3177 -0.1182
 2297TIP3    H231087   3.359   5.035  15.713  0.9848  0.6936  1.0031
 2298TIP3   OH231088   0.902   3.381  16.049  0.0078 -0.6983 -0.0213
 2298TIP3    H131089   0.982   3.410  16.006 -0.7908  0.1917 -0.9364
 2298TIP3    H231090   0.901   3.430  16.132 -0.7764  1.1768 -1.0707
 2299TIP3   OH231091   1.217   3.483  14.269  0.4317  0.0479 -0.3836
 2299TIP3    H131092   1.210   3.567  14.316  0.8710  0.1675 -0.5287
 2299TIP3    H231093   1.264   3.426  14.330 -1.2009 -0.5878  0.3641
 2300TIP3   OH231094   1.336   1.678  16.253 -0.6154  0.2378  0.8471
 2300TIP3    H131095   1.377   1.764  16.261  0.7087 -0.2158 -0.6052
 2300TIP3    H231096   1.350   1.636  16.338  0.5685  0.6927  0.8928
 2301TIP3   OH231097   4.873   6.175  15.433 -0.4654  0.4182 -0.1120
 2301TIP3    H131098   4.782   6.206  15.433 -0.2553  1.0394 -0.4802
 2301TIP3    H231099   4.910   6.208  15.515  0.3601  2.9788 -1.4270
 2302TIP3   OH231100   4.515   2.506  15.312  0.1231  0.6912 -0.6183
 2302TIP3    H131101   4.521   2.469  15.401 -0.4423  1.2399 -0.3371
 2302TIP3    H231102   4.586   2.570  15.308 -0.2786  1.1699 -0.3002
 2303TIP3   OH231103   6.277   3.789  14.528 -0.7976  0.4048 -0.6334
 2303TIP3    H131104   6.275   3.694  14.511  1.5614  0.4797 -1.8024
 2303TIP3    H231105   6.366   3.815  14.503 -0.9741  2.7242  0.9096
 2304TIP3   OH231106   3.428   1.637  13.511  0.3364 -0.2668 -0.0576
 2304TIP3    H131107   3.447   1.564  13.570 -1.7997 -0.4408  0.4842
 2304TIP3    H231108   3.333   1.639  13.505  0.3014  2.7266  0.2155
 2305TIP3   OH231109   1.367   1.477  14.706  0.1162  0.4361 -0.0158
 2305TIP3    H131110   1.324   1.521  14.632 -1.3656 -0.6984  0.1307
 2305TIP3    H231111   1.327   1.516  14.784 -0.7234 -0.6724  0.1223
 2306TIP3   OH231112   1.586   1.089  15.629 -0.2863  0.3131 -0.3724
 2306TIP3    H131113   1.504   1.098  15.678 -0.3395 -0.9323 -0.2076
 2306TIP3    H231114   1.579   1.003  15.587  1.6412 -0.6134  1.0474
 2307TIP3   OH231115   1.523   4.890  16.435 -0.1571 -0.0589 -0.1728
 2307TIP3    H131116   1.554   4.937  16.358  0.2413 -0.8157 -0.4809
 2307TIP3    H231117   1.428   4.881  16.421  0.0514 -1.0574 -1.0615
 2308TIP3   OH231118   4.632   2.574  16.653  0.0164 -0.0745  0.5427
 2308TIP3    H131119   4.708   2.590  16.710  1.2633  0.6299 -1.2396
 2308TIP3    H231120   4.618   2.480  16.658  0.7084 -0.1568  1.2376
 2309TIP3   OH231121   2.526   4.564  14.578  0.3686  0.1094 -0.5118
 2309TIP3    H131122   2.580   4.581  14.656 -1.0368 -2.5300  1.1885
 2309TIP3    H231123   2.446   4.615  14.593 -0.1569 -0.8666  0.1564
 2310TIP3   OH231124   0.976   4.929  14.403 -0.0207 -0.0344  0.3811
 2310TIP3    H131125   0.990   4.942  14.309 -1.3223  0.2304  0.2121
 2310TIP3    H231126   1.005   4.839  14.418  0.9499  0.1824 -0.1078
 2311TIP3   OH231127   5.263   6.567  16.742  0.0243  0.6586 -0.2923
 2311TIP3    H131128   5.317   6.587  16.819  0.8133 -1.6398 -0.1895
 2311TIP3    H231129   5.225   6.652  16.717  0.5414  1.6348  2.0054
 2312TIP3   OH231130   3.746   3.090  15.296 -0.4107 -0.1073 -0.2367
 2312TIP3    H131131   3.752   3.183  15.275  0.6980 -0.0354  0.2884
 2312TIP3    H231132   3.687   3.054  15.230 -0.0725  0.7835 -1.0556
 2313TIP3   OH231133   6.715   3.291  16.045 -0.6787  0.2081  0.3244
 2313TIP3    H131134   6.743   3.376  16.079 -1.5856  0.1474  1.2518
 2313TIP3    H231135   6.660   3.312  15.970  0.2277  0.3809 -0.3124
 2314TIP3   OH231136   5.089   0.168  17.049  0.2737 -0.3334 -0.2418
 2314TIP3    H131137   5.045   0.085  17.063  0.4704 -0.3831  0.1046
 2314TIP3    H231138   5.036   0.213  16.983 -0.1544 -0.4888 -0.0070
 2315TIP3   OH231139   5.638   4.584  15.157  0.2268 -0.0840 -0.0247
 2315TIP3    H131140   5.719   4.593  15.207  0.4045  0.0884 -0.3416
 2315TIP3    H231141   5.653   4.635  15.077 -0.6326  0.9695  0.4534
 2316TIP3   OH231142   3.361   4.755  16.898  0.3018 -0.2811  0.8544
 2316TIP3    H131143   3.424   4.764  16.970  0.2232 -1.8120  1.1553
 2316TIP3    H231144   3.321   4.669  16.912 -2.3219  0.8692  1.0150
 2317TIP3   OH231145   0.746   1.416  15.774 -0.1818 -1.4617  0.5160
 2317TIP3    H131146   0.712   1.327  15.760  0.0334 -1.5163  0.3368
 2317TIP3    H231147   0.762   1.449  15.686 -2.6968 -0.2700  0.4165
 2318TIP3   OH231148   1.232   6.096  15.277  0.7867  0.3652 -0.0062
 2318TIP3    H131149   1.201   6.158  15.211  0.3839 -0.5710 -0.6977
 2318TIP3    H231150   1.313   6.136  15.310 -0.7594  2.5880  1.4369
 2319TIP3   OH231151   4.530   1.905  14.337  0.7571 -0.2335 -0.3431
 2319TIP3    H131152   4.582   1.915  14.417 -1.3466 -0.2895  1.1214
 2319TIP3    H231153   4.529   1.992  14.298  2.0929 -0.2794 -0.5222
 2320TIP3   OH231154   0.656   3.036  13.914  0.6223 -0.5013 -0.7524
 2320TIP3    H131155   0.692   3.084  13.989 -0.1784 -0.5584 -0.3229
 2320TIP3    H231156   0.635   2.950  13.948 -3.1122  0.5460 -0.0436
 2321TIP3   OH231157   5.460   5.522  15.075  0.0815  0.1863 -0.2802
 2321TIP3    H131158   5.411   5.511  15.156 -0.0544 -0.9724 -0.5075
 2321TIP3    H231159   5.396   5.557  15.013  0.0467  0.5294 -0.0583
 2322TIP3   OH231160   1.252   0.204  15.867  0.0878  0.9551  0.3403
 2322TIP3    H131161   1.163   0.239  15.859 -0.4974  0.2268  2.9628
 2322TIP3    H231162   1.242   0.109  15.859  0.9100  0.9446 -1.0147
 2323TIP3   OH231163   1.707   4.878  14.210 -0.4085 -0.0466 -0.2208
 2323TIP3    H131164   1.730   4.960  14.166 -0.8534  1.6117  2.4317
 2323TIP3    H231165   1.788   4.826  14.208 -0.4142 -0.0932 -2.8706
 2324TIP3   OH231166   5.739   6.633  14.511  0.4171  0.5629 -0.2990
 2324TIP3    H131167   5.662   6.577  14.507 -0.0622  1.2524 -0.9308
 2324TIP3    H231168   5.807   6.577  14.550 -0.0734 -0.4135 -0.8052
 2325TIP3   OH231169   3.059   1.190  15.736 -0.2649 -0.6695 -0.3299
 2325TIP3    H131170   3.068   1.281  15.709 -1.7186 -0.3141  0.3234
 2325TIP3    H231171   3.046   1.142  15.653  1.4655 -0.4550 -0.7647
 2326TIP3   OH231172   5.390   1.714  14.561  0.1458  0.0119 -0.0122
 2326TIP3    H131173   5.440   1.761  14.494  1.1421  0.9647  1.3449
 2326TIP3    H231174   5.312   1.683  14.515 -1.2192  4.0207 -0.7393
 2327TIP3   OH231175   5.614   1.812  13.688  0.1387 -0.8360  0.4854
 2327TIP3    H131176   5.541   1.786  13.632 -0.8479  2.7773 -0.1683
 2327TIP3    H231177   5.584   1.793  13.776 -1.7947  0.7073  0.2475
 2328TIP3   OH231178   3.206   2.032  16.407  0.0996  0.6751  0.1054
 2328TIP3    H131179   3.192   2.038  16.313 -0.0903  1.0308  0.1550
 2328TIP3    H231180   3.193   1.939  16.427 -0.8883  0.7676 -0.0594
 2329TIP3   OH231181   6.296   4.603  16.194  0.0067 -0.2958  0.0826
 2329TIP3    H131182   6.332   4.691  16.182  1.3321 -0.9229 -0.6859
 2329TIP3    H231183   6.342   4.569  16.271 -1.6106  0.2042  1.3366
 2330TIP3   OH231184   3.368   3.128  15.230  0.1923  0.1605  0.0864
 2330TIP3    H131185   3.394   3.081  15.310 -0.7207 -0.7003 -0.1087
 2330TIP3    H231186   3.305   3.070  15.188 -3.2430  2.7491  1.2459
 2331TIP3   OH231187   0.481   2.967  16.296 -0.0082  0.3356  0.3502
 2331TIP3    H131188   0.422   2.977  16.371  2.6405  0.1937  2.6242
 2331TIP3    H231189   0.509   2.876  16.299  0.8142  0.5529 -0.2305
 2332TIP3   OH231190   1.123   2.234  14.098 -0.2279  0.1264  0.5415
 2332TIP3    H131191   1.096   2.216  14.188  0.5121  0.5472  0.8561
 2332TIP3    H231192   1.055   2.195  14.044  0.0354 -1.3879  1.2528
 2333TIP3   OH231193   2.804   1.826  13.865 -0.7958  0.0712 -0.5070
 2333TIP3    H131194   2.799   1.901  13.806 -0.3454  0.1101 -0.4986
 2333TIP3    H231195   2.713   1.807  13.888 -0.9258  0.4728 -0.6869
 2334TIP3   OH231196   6.199   3.529  14.350  0.5605 -0.0336 -0.4185
 2334TIP3    H131197   6.288   3.495  14.343  0.2527 -0.7279 -1.1068
 2334TIP3    H231198   6.182   3.570  14.265  0.3242  0.3487 -0.1912
 2335TIP3   OH231199   6.462   2.632  15.262 -0.6597  0.1030 -0.3032
 2335TIP3    H131200   6.539   2.649  15.207 -0.3388  5.8993  1.2474
 2335TIP3    H231201   6.391   2.681  15.221 -2.4100 -1.4600  0.6770
 2336TIP3   OH231202   2.281   0.272  17.233 -0.2126 -0.0197 -0.9902
 2336TIP3    H131203   2.347   0.334  17.262 -0.8771  0.4749 -0.4919
 2336TIP3    H231204   2.235   0.317  17.163 -2.0597  0.9527  0.7331
 2337TIP3   OH231205   4.238   4.116  16.401 -0.4653 -0.0782 -0.1696
 2337TIP3    H131206   4.241   4.037  16.454  1.6021  0.6080  0.8477
 2337TIP3    H231207   4.328   4.148  16.400 -0.7493  0.9073 -2.6816
 2338TIP3   OH231208   6.683   0.543  16.632 -0.2035 -0.2142 -0.0202
 2338TIP3    H131209   6.616   0.580  16.690 -0.1559 -0.4685  0.1988
 2338TIP3    H231210   6.641   0.540  16.546  1.0468  4.1248 -1.0288
 2339TIP3   OH231211   4.716   5.410  14.158 -0.3274 -0.5465 -0.5338
 2339TIP3    H131212   4.735   5.496  14.122  1.2786  0.0069  1.4678
 2339TIP3    H231213   4.802   5.367  14.164 -0.5371 -0.7418  2.1501
 2340TIP3   OH231214   6.213   1.339  16.449  0.1280 -1.1404  0.1537
 2340TIP3    H131215   6.188   1.411  16.508 -2.4325 -0.6118 -1.4335
 2340TIP3    H231216   6.131   1.311  16.409  1.5634 -2.4330 -2.0926
 2341TIP3   OH231217   0.527   4.112  14.354  0.4687 -0.0898  0.1252
 2341TIP3    H131218   0.539   4.118  14.449  0.2547 -0.1558  0.1556
 2341TIP3    H231219   0.500   4.022  14.338  1.6620 -0.4203 -0.1284
 2342TIP3   OH231220   2.203   2.324  15.149  0.3206  0.1849 -0.0267
 2342TIP3    H131221   2.277   2.384  15.140  1.4095 -0.8091  1.6694
 2342TIP3    H231222   2.174   2.307  15.060  1.5827  1.2991 -0.6724
 2343TIP3   OH231223   3.957   1.781  15.303 -0.0446  0.0114  0.0119
 2343TIP3    H131224   3.901   1.853  15.275 -0.9819 -0.2797  1.0442
 2343TIP3    H231225   3.922   1.755  15.388  2.0026  0.1483  0.9565
 2344TIP3   OH231226   1.475   1.715  15.304  0.1409 -0.9073  0.0000
 2344TIP3    H131227   1.398   1.672  15.268  0.6219 -2.4706  0.7302
 2344TIP3    H231228   1.527   1.644  15.342  1.5329  0.1988  0.2835
 2345TIP3   OH231229   2.982   0.114  16.082 -0.0955 -0.1671  0.0276
 2345TIP3    H131230   2.934   0.140  16.003  0.0415 -1.3843 -0.4743
 2345TIP3    H231231   3.023   0.195  16.113 -0.1446  0.3284 -1.1617
 2346TIP3   OH231232   1.803   2.696  15.086 -0.1639  0.2956 -0.7696
 2346TIP3    H131233   1.800   2.677  14.992 -1.7487 -2.0986 -0.3236
 2346TIP3    H231234   1.711   2.701  15.112  0.2535  0.3573  0.7698
 2347TIP3   OH231235   2.823   6.351  14.420 -0.1661 -0.1055  0.7325
 2347TIP3    H131236   2.826   6.270  14.471  0.4754  0.5545  1.7822
 2347TIP3    H231237   2.844   6.420  14.483  0.9549  0.7071 -0.4741
 2348TIP3   OH231238   6.383   1.169  14.570 -0.5588 -0.3286  0.2220
 2348TIP3    H131239   6.337   1.126  14.642 -1.3006  0.2244  0.0937
 2348TIP3    H231240   6.331   1.146  14.492  0.6397 -1.5413 -0.2768
 2349TIP3   OH231241   5.616   0.719  16.988  0.1983  0.1058 -0.2604
 2349TIP3    H131242   5.650   0.769  16.914  1.5623  0.8787  0.8259
 2349TIP3    H231243   5.528   0.753  17.002 -0.2192 -0.3275 -1.7523
 2350TIP3   OH231244   1.117   3.719  14.426 -0.2653  0.3250 -0.1402
 2350TIP3    H131245   1.052   3.739  14.359 -0.7574  2.0506  0.7909
 2350TIP3    H231246   1.067   3.674  14.494 -0.3043  0.7809  0.1406
 2351TIP3   OH231247   4.420   5.551  15.767 -0.7262 -0.3736 -0.2264
 2351TIP3    H131248   4.503   5.546  15.814 -0.7456 -0.5300 -0.2078
 2351TIP3    H231249   4.360   5.592  15.830 -0.7982 -0.7502 -0.0517
 2352TIP3   OH231250   4.716   0.922  15.574 -0.1334  0.1496 -0.1513
 2352TIP3    H131251   4.705   0.971  15.493  0.0312  0.1166 -0.1931
 2352TIP3    H231252   4.626   0.899  15.600 -0.3516  1.8160  0.7141
 2353TIP3   OH231253   5.356   5.954  15.673 -0.0660  0.2475  0.0066
 2353TIP3    H131254   5.278   5.900  15.668 -0.6527  0.9612  1.0568
 2353TIP3    H231255   5.325   6.043  15.662  0.7545  0.4600 -0.6842
 2354TIP3   OH231256   1.799   3.184  14.830 -0.0209 -0.2841 -0.6607
 2354TIP3    H131257   1.717   3.163  14.787 -1.1543 -0.5866  1.5087
 2354TIP3    H231258   1.795   3.279  14.846  0.9537  0.0588 -2.2422
 2355TIP3   OH231259   3.208   2.484  15.170 -0.3596 -0.0309 -0.0027
 2355TIP3    H131260   3.255   2.547  15.225  0.4186 -2.9376  2.9937
 2355TIP3    H231261   3.116   2.497  15.193 -0.5785  1.9326 -1.7170
 2356TIP3   OH231262   2.749   6.041  17.211  0.7075  0.0495 -0.2561
 2356TIP3    H131263   2.731   5.964  17.266  0.2508 -0.3738 -0.9776
 2356TIP3    H231264   2.670   6.052  17.159  0.9392  0.7605 -0.4662
 2357TIP3   OH231265   2.203   5.212  15.844  0.2557 -0.2806  0.2336
 2357TIP3    H131266   2.234   5.295  15.807 -0.4055  0.8412  2.0842
 2357TIP3    H231267   2.198   5.153  15.769 -0.0581  1.5842 -1.2824
 2358TIP3   OH231268   2.782   0.182  17.249 -0.3372 -0.1131  0.3049
 2358TIP3    H131269   2.763   0.095  17.284  0.4976  0.1664  1.5103
 2358TIP3    H231270   2.722   0.241  17.295  1.9304  0.5015  2.7048
 2359TIP3   OH231271   6.068   5.706  15.473  0.3252  0.4681 -0.6874
 2359TIP3    H131272   6.003   5.760  15.518  0.5405  1.3322 -1.3865
 2359TIP3    H231273   6.101   5.762  15.402  1.8496  0.0638 -0.3328
 2360TIP3   OH231274   5.309   1.103  16.761  0.2870 -0.2481  0.5255
 2360TIP3    H131275   5.375   1.161  16.722  0.4290  0.7341  2.1361
 2360TIP3    H231276   5.226   1.146  16.742  0.2144 -0.7361 -0.2714
 2361TIP3   OH231277   2.004   1.439  15.950  0.2566 -0.8527 -0.0336
 2361TIP3    H131278   1.967   1.372  16.008  2.5802 -0.4943  2.0506
 2361TIP3    H231279   2.048   1.389  15.881 -1.9248 -1.3003 -1.1925
 2362TIP3   OH231280   6.216   5.817  13.851  0.0089 -0.2589 -0.0686
 2362TIP3    H131281   6.171   5.744  13.808 -1.1466 -0.4411  1.3396
 2362TIP3    H231282   6.262   5.862  13.780 -2.5135  0.0058 -1.6986
 2363TIP3   OH231283   1.255   5.227  14.452 -0.2191  0.5485 -0.2369
 2363TIP3    H131284   1.202   5.250  14.376 -0.5746 -0.5806 -0.3451
 2363TIP3    H231285   1.345   5.224  14.418 -0.3959 -0.1329 -0.6647
 2364TIP3   OH231286   5.828   3.415  15.332 -0.1362 -0.5163  0.3426
 2364TIP3    H131287   5.831   3.486  15.395 -0.7097 -0.2479  0.0783
 2364TIP3    H231288   5.895   3.437  15.267  0.6551 -0.9413  0.9954
 2365TIP3   OH231289   0.666   4.842  15.589 -0.2035 -0.1430 -0.2977
 2365TIP3    H131290   0.626   4.759  15.561 -1.0179 -0.0462  0.5329
 2365TIP3    H231291   0.645   4.904  15.519 -0.5683 -0.3594 -0.3790
 2366TIP3   OH231292   5.717   5.024  16.071 -1.2582  0.0865 -0.3754
 2366TIP3    H131293   5.764   4.957  16.120 -0.1388  0.4054 -0.9671
 2366TIP3    H231294   5.740   5.006  15.979 -1.2054  1.0754 -0.5637
 2367TIP3   OH231295   2.429   2.652  14.058 -0.5693 -0.4594  0.3634
 2367TIP3    H131296   2.361   2.689  14.003  0.7373  1.1789 -0.2122
 2367TIP3    H231297   2.509   2.659  14.007  0.7611  1.4086  2.4964
 2368TIP3   OH231298   6.091   6.320  17.274 -0.4697  0.9309 -0.3336
 2368TIP3    H131299   6.154   6.385  17.245  1.9612 -1.3775 -0.5849
 2368TIP3    H231300   6.039   6.300  17.195 -0.2974  1.5120 -0.6000
 2369TIP3   OH231301   4.574   5.416  15.376 -0.2967 -0.9250 -0.4157
 2369TIP3    H131302   4.528   5.381  15.452 -1.6490 -1.9811 -1.6590
 2369TIP3    H231303   4.658   5.370  15.375  0.2719  0.0118  1.1034
 2370TIP3   OH231304   1.991   3.105  13.942 -0.7823 -0.0276  0.4302
 2370TIP3    H131305   1.972   3.012  13.931 -0.5806 -0.1056  0.7468
 2370TIP3    H231306   2.086   3.112  13.931 -0.6299 -0.0431  1.6377
 2371TIP3   OH231307   2.026   5.932  14.869  0.5551  0.2999 -0.2422
 2371TIP3    H131308   1.995   5.876  14.939 -0.6811 -0.3052 -1.2538
 2371TIP3    H231309   2.119   5.911  14.862  0.4133 -0.5845  0.3287
 2372TIP3   OH231310   5.616   3.806  14.124  0.6646  0.3313 -0.3750
 2372TIP3    H131311   5.648   3.717  14.112  0.0893  0.2352 -1.2798
 2372TIP3    H231312   5.524   3.803  14.096  1.2142  1.6769 -2.5228
 2373TIP3   OH231313   6.231   1.084  15.527 -0.0700 -0.2530  0.4475
 2373TIP3    H131314   6.160   1.103  15.588 -0.8121 -1.4453 -0.0174
 2373TIP3    H231315   6.197   1.109  15.442  0.3334 -0.1642  0.3125
 2374TIP3   OH231316   4.071   0.567  13.511 -0.0104  0.2592  0.1657
 2374TIP3    H131317   4.146   0.612  13.550 -0.1848  0.0018  0.8008
 2374TIP3    H231318   4.078   0.477  13.542 -1.2334  0.4948  1.1850
 2375TIP3   OH231319   4.959   2.186  15.697 -0.1480 -0.4923 -0.5094
 2375TIP3    H131320   4.943   2.277  15.671 -1.6433 -0.4301  0.5227
 2375TIP3    H231321   5.030   2.157  15.639  0.5479  1.3937 -0.6836
 2376TIP3   OH231322   0.796   6.216  17.126 -0.2730 -0.0068 -0.1925
 2376TIP3    H131323   0.703   6.212  17.147 -0.4099  0.0633 -0.7618
 2376TIP3    H231324   0.801   6.271  17.048 -0.0882 -2.5696 -2.1029
 2377TIP3   OH231325   3.486   0.361  13.744 -0.0312 -0.0364 -0.0749
 2377TIP3    H131326   3.466   0.411  13.665  0.2868 -1.5859 -1.2003
 2377TIP3    H231327   3.564   0.310  13.720 -0.0043 -0.6227  1.2055
 2378TIP3   OH231328   3.929   1.244  16.186  0.0674 -0.3931 -0.0511
 2378TIP3    H131329   3.845   1.288  16.202 -0.1362  0.9523 -3.8508
 2378TIP3    H231330   3.906   1.160  16.147  0.5098 -0.8022  0.5500
 2379TIP3   OH231331   4.454   2.840  13.246 -0.2722 -0.1210 -0.4995
 2379TIP3    H131332   4.417   2.764  13.201  2.2582 -0.9165 -1.3927
 2379TIP3    H231333   4.482   2.899  13.175  1.7745 -0.3963  0.0197
 2380TIP3   OH231334   6.203   4.405  14.669 -0.0322  0.0862 -0.2084
 2380TIP3    H131335   6.211   4.432  14.760  2.2943  0.5661 -0.4982
 2380TIP3    H231336   6.133   4.459  14.633 -1.1053 -0.2528  1.3220
 2381TIP3   OH231337   2.074   6.266  16.020  0.3166  0.2030  0.3958
 2381TIP3    H131338   2.016   6.341  16.035  0.7506  0.5747  0.2569
 2381TIP3    H231339   2.097   6.273  15.927  0.3918 -0.0740  0.3954
 2382TIP3   OH231340   2.149   6.562  14.986  0.1493 -0.1984 -0.4185
 2382TIP3    H131341   2.067   6.606  14.964  1.2813  2.6514  0.5525
 2382TIP3    H231342   2.179   6.606  15.066  1.1808 -3.2095  1.0048
 2383TIP3   OH231343   6.622   6.725  15.651 -0.4361 -0.4129 -0.1096
 2383TIP3    H131344   6.589   6.689  15.568  0.1201 -0.2956 -0.3855
 2383TIP3    H231345   6.709   6.687  15.661  0.6179  1.6342 -0.9432
 2384TIP3   OH231346   1.467   4.236  13.628 -0.2519  0.2292  1.1439
 2384TIP3    H131347   1.467   4.320  13.584  0.5323 -0.4678 -0.2704
 2384TIP3    H231348   1.375   4.211  13.634 -0.4529  0.9609  1.1521
 2385TIP3   OH231349   5.665   5.313  14.803 -0.2833 -0.2776  0.5694
 2385TIP3    H131350   5.685   5.242  14.741 -0.1407  0.2141  0.0424
 2385TIP3    H231351   5.639   5.268  14.883 -0.3225 -0.9288  0.2009
 2386TIP3   OH231352   5.240   3.911  15.220  0.3833 -0.0611  0.0162
 2386TIP3    H131353   5.205   3.832  15.178 -0.7397  0.5140 -0.1389
 2386TIP3    H231354   5.291   3.954  15.151  0.2629 -0.1891 -0.1532
 2387TIP3   OH231355   2.721   6.352  14.780 -0.4909  0.1103 -0.1973
 2387TIP3    H131356   2.705   6.267  14.823 -2.7815  0.5417 -0.0638
 2387TIP3    H231357   2.701   6.417  14.847 -1.4381  0.7680 -1.0889
 2388TIP3   OH231358   2.650   2.613  17.025 -0.4867 -0.4432  0.5304
 2388TIP3    H131359   2.588   2.601  17.097 -1.2783 -1.2594 -0.2714
 2388TIP3    H231360   2.712   2.541  17.034  1.6802  1.4594  2.5492
 2389TIP3   OH231361   4.649   4.969  14.492 -0.3087 -0.0521  0.0814
 2389TIP3    H131362   4.705   4.991  14.567  0.2459 -0.6057 -0.1569
 2389TIP3    H231363   4.658   5.044  14.433  1.0021 -0.5707 -0.4087
 2390TIP3   OH231364   6.233   6.507  14.513  0.4153 -0.2675  0.5924
 2390TIP3    H131365   6.146   6.506  14.474  0.7230  0.2968 -0.1231
 2390TIP3    H231366   6.275   6.427  14.481  1.0693  0.7474 -1.2078
 2391TIP3   OH231367   4.487   3.625  13.703  0.8833 -0.2771 -0.3669
 2391TIP3    H131368   4.521   3.584  13.623 -0.6290  1.1494 -1.8240
 2391TIP3    H231369   4.392   3.619  13.693  0.6162 -1.7437  2.2790
 2392TIP3   OH231370   6.508   0.446  16.437 -0.1719 -0.3612 -0.3608
 2392TIP3    H131371   6.482   0.536  16.416  0.4147 -0.2650 -0.6780
 2392TIP3    H231372   6.424   0.400  16.446 -0.5313  0.5660  1.4533
 2393TIP3   OH231373   6.185   1.580  16.582 -0.1746  0.1347  0.3982
 2393TIP3    H131374   6.276   1.594  16.607  1.1194 -0.9390 -3.1331
 2393TIP3    H231375   6.135   1.639  16.639  2.9291  2.6947  0.7500
 2394TIP3   OH231376   5.875   4.162  16.169  0.9341 -0.2793 -0.3925
 2394TIP3    H131377   5.873   4.138  16.076 -0.6283  0.3869 -0.5654
 2394TIP3    H231378   5.841   4.085  16.214  0.6922 -0.2179 -0.4703
 2395TIP3   OH231379   3.152   3.651  16.389  0.3500 -0.2336  0.3467
 2395TIP3    H131380   3.193   3.567  16.407 -0.4869 -0.8692 -0.6245
 2395TIP3    H231381   3.079   3.656  16.450  0.6502 -0.0198  0.6903
 2396TIP3   OH231382   1.534   3.709  13.415  0.0671  0.0223  0.5135
 2396TIP3    H131383   1.615   3.699  13.465  0.1405  2.2214  0.9438
 2396TIP3    H231384   1.497   3.791  13.447 -1.1438  0.2361 -1.3260
 2397TIP3   OH231385   4.959   0.391  14.768 -0.0794 -0.1606 -0.1591
 2397TIP3    H131386   4.934   0.475  14.729  1.3033  0.4779  0.2987
 2397TIP3    H231387   4.883   0.367  14.822 -0.8944  0.2789 -1.0636
 2398TIP3   OH231388   4.470   5.384  14.024  0.3895 -0.0596 -0.5177
 2398TIP3    H131389   4.439   5.471  14.001  1.6424  1.2447  2.2629
 2398TIP3    H231390   4.556   5.399  14.064  2.0658 -2.9064 -2.6427
 2399TIP3   OH231391   3.946   3.422  14.075 -0.1101 -0.0453 -0.1657
 2399TIP3    H131392   3.978   3.442  13.987  0.1978 -0.4590 -0.1472
 2399TIP3    H231393   4.024   3.405  14.127 -0.2324  1.1204  0.4284
 2400TIP3   OH231394   5.085   2.177  14.013  0.6140 -0.2237 -0.5226
 2400TIP3    H131395   5.168   2.190  13.967  1.1467 -1.0115  0.2011
 2400TIP3    H231396   5.104   2.113  14.081 -0.0969  1.0700  0.9626
 2401TIP3   OH231397   1.421   4.590  16.056  0.2900 -0.2540  0.6167
 2401TIP3    H131398   1.499   4.646  16.060 -1.1100  1.7359  1.7101
 2401TIP3    H231399   1.408   4.561  16.146  0.8493 -2.2471  0.1056
 2402TIP3   OH231400   0.089   6.126  14.613 -0.5651  0.3090 -0.1236
 2402TIP3    H131401   0.088   6.110  14.519  0.2949  1.3233 -0.3218
 2402TIP3    H231402  -0.002   6.147  14.635 -1.0128 -1.1135 -0.4848
 2403TIP3   OH231403   5.487   2.069  13.871 -0.9659 -0.8541  0.2753
 2403TIP3    H131404   5.416   2.034  13.818  0.6101 -1.5106 -1.5584
 2403TIP3    H231405   5.518   2.145  13.821  1.0881 -1.9563 -0.2662
 2404TIP3   OH231406   3.413   0.047  13.930  0.0769  0.2342 -0.6640
 2404TIP3    H131407   3.434   0.140  13.918  0.9528  0.0720 -0.4649
 2404TIP3    H231408   3.454   0.004  13.855  0.4537 -0.0956 -0.2718
 2405TIP3   OH231409   2.822   1.088  15.160  0.4104  0.0415 -0.1897
 2405TIP3    H131410   2.871   1.016  15.199  0.9983  0.2229 -0.5714
 2405TIP3    H231411   2.734   1.082  15.198  0.4347 -0.9100 -0.2639
 2406TIP3   OH231412   3.889   3.445  16.759 -0.1259  0.0764 -0.4397
 2406TIP3    H131413   3.902   3.352  16.740  0.7786 -0.0181  0.4956
 2406TIP3    H231414   3.968   3.470  16.807 -0.2175  1.4124 -0.9601
 2407TIP3   OH231415   4.303   0.301  14.778 -0.1061  0.4453  0.0165
 2407TIP3    H131416   4.383   0.300  14.726  0.6300  2.2619  1.0150
 2407TIP3    H231417   4.234   0.317  14.714  0.5793  0.9369 -0.6241
 2408TIP3   OH231418   4.772   0.933  15.239 -0.6014  0.0698 -0.0775
 2408TIP3    H131419   4.775   0.945  15.144 -1.4310 -1.1275 -0.2750
 2408TIP3    H231420   4.741   0.843  15.251  0.4369 -0.1310  1.3253
 2409TIP3   OH231421   4.782   2.979  14.249  0.2547 -0.1638  0.5504
 2409TIP3    H131422   4.774   3.022  14.164 -0.1571  0.6663  0.9951
 2409TIP3    H231423   4.877   2.977  14.266  0.3465 -0.4158  0.0449
 2410TIP3   OH231424   1.562   2.936  15.374  0.1069 -0.4009 -0.2673
 2410TIP3    H131425   1.494   2.964  15.313 -1.5101  1.3411  2.1446
 2410TIP3    H231426   1.642   2.936  15.322 -1.4254 -0.8059 -2.7839
 2411TIP3   OH231427   5.946   0.524  15.417 -0.3905  0.0067 -0.3027
 2411TIP3    H131428   6.033   0.556  15.392 -0.5508  0.5172 -0.2325
 2411TIP3    H231429   5.902   0.602  15.451 -0.8225 -0.2838 -0.1994
 2412TIP3   OH231430   3.435   3.386  16.617  0.1512  0.1258  0.6158
 2412TIP3    H131431   3.504   3.434  16.571  1.5551 -1.0404  1.4205
 2412TIP3    H231432   3.464   3.383  16.708 -1.1017 -0.1755  1.0260
 2413TIP3   OH231433   0.511   6.483  14.417  0.0277 -0.1528 -0.2021
 2413TIP3    H131434   0.528   6.521  14.503 -2.2945  1.8507 -0.5042
 2413TIP3    H231435   0.594   6.490  14.370  0.5822  1.4926  0.9343
 2414TIP3   OH231436   3.733   4.306  16.282  0.1162 -0.4508 -0.0706
 2414TIP3    H131437   3.765   4.347  16.362 -0.0608 -0.7869  0.1734
 2414TIP3    H231438   3.804   4.319  16.219  0.1068  0.1353  0.0316
 2415TIP3   OH231439   2.095   4.821  16.573 -0.7846  0.1775 -0.2492
 2415TIP3    H131440   2.132   4.909  16.563 -0.9348  0.2906  0.1633
 2415TIP3    H231441   2.107   4.801  16.666 -2.0337  0.3554 -0.0252
 2416TIP3   OH231442   3.591   4.817  17.075 -0.0842  0.0067 -0.6386
 2416TIP3    H131443   3.666   4.850  17.124 -2.0531  2.6814  0.8710
 2416TIP3    H231444   3.561   4.740  17.124  0.2596  0.3768  0.1764
 2417TIP3   OH231445   0.764   6.357  15.586 -0.0998 -0.2503 -0.3019
 2417TIP3    H131446   0.758   6.448  15.555  0.7639 -0.2039 -0.3573
 2417TIP3    H231447   0.848   6.326  15.551 -0.0185 -0.8181  0.3921
 2418TIP3   OH231448   3.317   3.233  13.923 -0.0816 -0.0765 -0.2932
 2418TIP3    H131449   3.259   3.251  13.849 -1.7589 -1.0464  0.7183
 2418TIP3    H231450   3.394   3.287  13.907 -0.5375 -0.0039 -2.5548
 2419TIP3   OH231451   6.750   3.360  14.700  0.0252 -0.9289  0.5779
 2419TIP3    H131452   6.729   3.269  14.721  0.5358 -1.3617 -0.7073
 2419TIP3    H231453   6.667   3.397  14.672  0.1660 -1.5531 -0.7409
 2420TIP3   OH231454   5.280   3.150  15.769  0.3198 -0.4121  0.2213
 2420TIP3    H131455   5.352   3.193  15.723 -0.5355  1.6480  0.7242
 2420TIP3    H231456   5.314   3.133  15.857  0.9946 -1.7754 -0.2644
 2421TIP3   OH231457   3.050   5.677  16.655  0.0703 -0.0374  0.1607
 2421TIP3    H131458   3.136   5.718  16.666 -0.2356  1.4432 -2.2801
 2421TIP3    H231459   3.057   5.630  16.572 -1.9685  1.5697 -0.9892
 2422TIP3   OH231460   3.016   1.583  14.549  0.4036 -0.2150 -0.0120
 2422TIP3    H131461   2.968   1.641  14.490 -0.4668 -0.6488  0.2572
 2422TIP3    H231462   2.960   1.575  14.626  1.2683 -0.1039  0.6537
 2423TIP3   OH231463   4.160   5.426  15.613  0.2897  0.1723 -0.1118
 2423TIP3    H131464   4.134   5.334  15.609  1.5341 -0.2245  0.6781
 2423TIP3    H231465   4.197   5.437  15.700 -0.6986  1.6742  0.1644
 2424TIP3   OH231466   0.217   1.513  15.460  0.2415  0.4312 -0.5687
 2424TIP3    H131467   0.125   1.511  15.487 -0.0003 -0.3720 -1.3979
 2424TIP3    H231468   0.266   1.521  15.542 -0.5098 -0.6713  0.0155
 2425TIP3   OH231469   6.478   1.448  16.835 -0.0254  0.2254  0.9483
 2425TIP3    H131470   6.489   1.531  16.788  0.5742 -0.3018  0.1545
 2425TIP3    H231471   6.390   1.419  16.812 -0.7009  1.1853  2.1367
 2426TIP3   OH231472   3.999   3.709  16.113 -0.5523 -0.0122 -0.4059
 2426TIP3    H131473   4.092   3.703  16.089 -0.4964 -1.7265  0.0448
 2426TIP3    H231474   3.999   3.763  16.192 -0.1123  1.1455 -1.1761
 2427TIP3   OH231475   3.506   2.147  16.717  0.0099 -0.2245  0.6519
 2427TIP3    H131476   3.552   2.229  16.703 -0.4120 -0.2077 -0.9229
 2427TIP3    H231477   3.416   2.164  16.688 -0.5866 -0.7162  2.1054
 2428TIP3   OH231478   0.318   0.204  15.017 -0.0307 -0.5108  0.3079
 2428TIP3    H131479   0.327   0.127  14.961 -0.7194  0.3225 -1.0020
 2428TIP3    H231480   0.223   0.219  15.021  0.1259  0.5789  0.1030
 2429TIP3   OH231481   2.092   4.196  15.130  0.5109  0.4490 -0.3456
 2429TIP3    H131482   2.129   4.170  15.046  0.5014 -0.2194 -0.1530
 2429TIP3    H231483   2.168   4.218  15.184  0.8603 -2.6336  0.6290
 2430TIP3   OH231484   3.547   5.447  15.145 -0.3563 -0.2806 -0.4417
 2430TIP3    H131485   3.456   5.419  15.137 -0.5489  0.2676 -0.1958
 2430TIP3    H231486   3.543   5.542  15.153  0.2869 -0.1804 -1.1368
 2431TIP3   OH231487   4.770   5.992  16.342  0.8409 -0.2060 -0.0032
 2431TIP3    H131488   4.856   5.962  16.371  1.3176  0.1169 -1.0392
 2431TIP3    H231489   4.776   5.994  16.246 -0.2146  0.1311 -0.0770
 2432TIP3   OH231490   2.754   4.541  13.791 -0.2803 -0.2578  0.1208
 2432TIP3    H131491   2.698   4.472  13.826 -0.2239  0.3587  1.4683
 2432TIP3    H231492   2.699   4.619  13.789  0.2351  0.1204  0.4975
 2433TIP3   OH231493   1.357   4.383  16.670  0.7585  0.1325  0.4673
 2433TIP3    H131494   1.343   4.477  16.661  1.3953  0.3548  1.6185
 2433TIP3    H231495   1.349   4.349  16.581  0.7845  1.3071 -0.0020
 2434TIP3   OH231496   4.684   3.146  14.510  0.9851  0.2880  0.4074
 2434TIP3    H131497   4.669   3.103  14.427  0.0324  1.3620 -0.0038
 2434TIP3    H231498   4.778   3.137  14.525  0.8948 -1.4490  0.1043
 2435TIP3   OH231499   3.931   0.898  14.767 -0.2134 -0.1290 -0.5223
 2435TIP3    H131500   3.938   0.850  14.684  2.5183 -0.3677 -0.2460
 2435TIP3    H231501   3.972   0.840  14.831 -1.5636  0.4079  0.8993
 2436TIP3   OH231502   2.043   3.023  15.072 -0.2933 -0.5199  0.3490
 2436TIP3    H131503   2.103   3.069  15.013 -0.7531  1.4578  1.3173
 2436TIP3    H231504   1.992   2.966  15.014  0.1441  0.3862 -0.9854
 2437TIP3   OH231505   0.849   1.836  16.537  0.6493 -0.1853  0.3577
 2437TIP3    H131506   0.799   1.888  16.599 -0.4136 -0.2211 -0.4401
 2437TIP3    H231507   0.867   1.754  16.583  2.1501  0.7413  1.5491
 2438TIP3   OH231508   5.702   3.518  14.053  0.5117 -0.1411  0.0711
 2438TIP3    H131509   5.766   3.469  14.103  1.9447 -0.0383 -1.5620
 2438TIP3    H231510   5.754   3.576  13.997 -0.9964  0.0350 -1.2300
 2439TIP3   OH231511   3.653   0.433  16.869  0.1232  0.4081  0.7313
 2439TIP3    H131512   3.654   0.337  16.869 -0.9580  0.3800 -0.2215
 2439TIP3    H231513   3.666   0.456  16.961  1.7155 -0.6083  0.8088
 2440TIP3   OH231514   5.305   6.242  14.314 -0.6730  0.3323 -0.3526
 2440TIP3    H131515   5.265   6.218  14.397 -1.2204  2.5879  0.1130
 2440TIP3    H231516   5.257   6.320  14.286  2.7961  2.8235 -0.0935
 2441TIP3   OH231517   6.538   0.485  14.440 -0.6109  0.5760 -0.1900
 2441TIP3    H131518   6.452   0.503  14.479 -0.7581  0.0616 -0.2712
 2441TIP3    H231519   6.543   0.545  14.365 -0.5443  1.2011  0.2985
 2442TIP3   OH231520   2.020   4.875  15.901 -0.2397 -0.1270 -0.0447
 2442TIP3    H131521   2.017   4.780  15.890 -0.1443 -0.5105  2.6417
 2442TIP3    H231522   2.094   4.902  15.847  1.0489 -1.8960  0.7136
 2443TIP3   OH231523   2.047   6.438  14.158  0.4213  0.1788 -0.3519
 2443TIP3    H131524   2.035   6.453  14.252  2.0915  0.0285 -0.0885
 2443TIP3    H231525   2.128   6.386  14.152 -0.1359 -0.5859 -1.8219
 2444TIP3   OH231526   1.032   2.555  15.719 -0.3082  0.1319 -0.2407
 2444TIP3    H131527   0.940   2.530  15.714 -0.7836  1.8265 -0.7633
 2444TIP3    H231528   1.038   2.635  15.667  1.7555 -0.6730 -1.3781
 2445TIP3   OH231529   2.790   5.352  16.135 -0.1259 -0.0824  0.0247
 2445TIP3    H131530   2.808   5.306  16.053 -0.0223  2.6969 -1.6546
 2445TIP3    H231531   2.699   5.382  16.126  0.2267  1.1574  0.4218
 2446TIP3   OH231532   5.478   6.253  17.062  0.4587 -0.8434  0.0866
 2446TIP3    H131533   5.399   6.199  17.057  0.4412 -0.7730 -0.5453
 2446TIP3    H231534   5.550   6.189  17.069  0.4267 -0.9521 -0.5066
 2447TIP3   OH231535   6.689   1.769  16.717  0.0419 -0.5964 -0.1920
 2447TIP3    H131536   6.732   1.841  16.762 -0.0957  1.2926 -2.8688
 2447TIP3    H231537   6.718   1.691  16.765  2.0917  0.9965  1.3787
 2448TIP3   OH231538   5.888   4.568  15.315 -0.1293  0.1279 -0.3032
 2448TIP3    H131539   5.880   4.478  15.347  0.2451 -0.2524 -1.2487
 2448TIP3    H231540   5.938   4.613  15.383  1.3621 -0.8667 -0.6966
 2449TIP3   OH231541   3.271   3.598  15.092 -0.1013  0.2432 -0.0135
 2449TIP3    H131542   3.282   3.625  15.183 -0.2672  0.9808 -0.2039
 2449TIP3    H231543   3.190   3.641  15.065 -0.4889 -0.6308 -0.2681
 2450TIP3   OH231544   5.939   6.273  17.051  0.2645 -0.1268 -0.1174
 2450TIP3    H131545   5.870   6.318  17.100  2.3301  1.9834  1.0593
 2450TIP3    H231546   5.936   6.312  16.964 -0.3193 -0.3968 -0.2204
 2451TIP3   OH231547   6.027   6.595  14.063 -0.0645 -0.2801 -0.1519
 2451TIP3    H131548   5.982   6.512  14.045 -0.0327 -0.4991  0.7710
 2451TIP3    H231549   6.038   6.635  13.976 -3.0693  0.3156 -0.3851
 2452TIP3   OH231550   3.053   3.769  15.010  0.0519 -0.2042 -0.2949
 2452TIP3    H131551   2.995   3.833  15.052  1.0690  1.7452 -1.7003
 2452TIP3    H231552   3.032   3.775  14.917 -0.1290 -2.2997 -0.4295
 2453TIP3   OH231553   3.485   2.517  14.817  0.2487 -0.2563  0.3313
 2453TIP3    H131554   3.528   2.501  14.902 -2.2986 -1.4102  1.5342
 2453TIP3    H231555   3.485   2.431  14.774  0.4974  0.0688 -0.3269
 2454TIP3   OH231556   3.520   5.393  16.653  0.5796  0.0835 -0.2718
 2454TIP3    H131557   3.482   5.403  16.566  1.0323  1.1651 -0.3604
 2454TIP3    H231558   3.481   5.312  16.688 -1.4414  0.9028 -0.5303
 2455TIP3   OH231559   2.176   1.316  15.755 -0.2650 -0.0251 -0.1895
 2455TIP3    H131560   2.270   1.319  15.734 -0.1579  0.4704  0.3527
 2455TIP3    H231561   2.136   1.280  15.676  0.4292 -0.6708 -0.2693
 2456TIP3   OH231562   2.717   0.718  13.356  0.1428 -0.6536  0.0859
 2456TIP3    H131563   2.777   0.683  13.422  1.9496  1.4791 -0.2929
 2456TIP3    H231564   2.754   0.688  13.273  0.4750  0.3392 -0.1323
 2457TIP3   OH231565   1.491   2.122  16.153  0.1943 -0.3941 -0.4063
 2457TIP3    H131566   1.507   2.034  16.185 -3.5385 -1.4888 -1.1063
 2457TIP3    H231567   1.498   2.178  16.230  1.1322 -1.4842  0.3289
 2458TIP3   OH231568   4.293   4.305  15.166  0.6244  0.4471 -0.0908
 2458TIP3    H131569   4.239   4.247  15.220  0.4937  3.0762  2.9136
 2458TIP3    H231570   4.383   4.285  15.192  0.6583  0.7322  0.0105
 2459TIP3   OH231571   0.334   4.845  17.087 -0.0742  0.0633  0.5580
 2459TIP3    H131572   0.357   4.929  17.126 -0.4217  1.0982 -1.3180
 2459TIP3    H231573   0.404   4.828  17.024  0.7361 -1.8019  1.8778
 2460TIP3   OH231574   6.016   0.223  14.357  0.1816 -0.0138 -0.5917
 2460TIP3    H131575   6.003   0.259  14.445  2.4752 -0.5242  0.0300
 2460TIP3    H231576   5.936   0.175  14.338 -0.2394 -0.1517  1.3538
 2461TIP3   OH231577   5.972   4.398  15.050 -0.2019 -0.2013 -0.1245
 2461TIP3    H131578   5.954   4.341  14.975 -0.6418  1.0410 -0.9826
 2461TIP3    H231579   5.900   4.382  15.110  1.6124 -3.4101  1.4740
 2462TIP3   OH231580   6.118   1.041  16.705 -0.2458 -0.3109 -0.0027
 2462TIP3    H131581   6.043   1.098  16.685  0.7263  0.2633 -2.2944
 2462TIP3    H231582   6.156   1.020  16.620  0.8920 -2.4485  0.9444
 2463TIP3   OH231583   0.913   1.554  16.331  0.4393 -0.3784  0.5637
 2463TIP3    H131584   1.008   1.550  16.323  0.2822 -2.1336 -0.9590
 2463TIP3    H231585   0.888   1.633  16.282  1.1327  0.5162  1.6084
 2464TIP3   OH231586   6.640   4.677  15.648  0.0172 -0.1938 -0.5782
 2464TIP3    H131587   6.645   4.669  15.553 -0.4284 -1.4398 -0.5182
 2464TIP3    H231588   6.550   4.654  15.670  0.1595 -0.0855  0.1560
 2465TIP3   OH231589   3.323   1.346  17.110  0.5620 -0.0308  0.1304
 2465TIP3    H131590   3.295   1.277  17.050 -1.8088  0.0831  1.0159
 2465TIP3    H231591   3.419   1.347  17.102  0.3821  0.4690 -4.1164
 2466TIP3   OH231592   3.040   3.085  15.256  0.0324 -0.2710  0.1040
 2466TIP3    H131593   2.963   3.029  15.258  1.0128 -1.6532 -0.0476
 2466TIP3    H231594   3.093   3.051  15.183  0.6102  0.9001 -0.0502
 2467TIP3   OH231595   2.405   0.991  16.922  0.1330  0.5356  0.5758
 2467TIP3    H131596   2.335   1.051  16.898  0.7780  0.9301 -0.3429
 2467TIP3    H231597   2.364   0.904  16.920  0.3485  0.3773 -3.0562
 2468TIP3   OH231598   5.302   3.179  13.955  0.0035  0.2689  0.3420
 2468TIP3    H131599   5.379   3.235  13.953 -0.8233  1.4489 -1.8349
 2468TIP3    H231600   5.291   3.150  13.865 -0.4604 -2.2858  1.1312
 2469TIP3   OH231601   5.444   5.310  15.623  0.5659  0.1896 -0.3199
 2469TIP3    H131602   5.362   5.292  15.670 -0.2148 -1.1021 -2.0617
 2469TIP3    H231603   5.503   5.240  15.652  0.4357  0.0173 -0.4699
 2470TIP3   OH231604   4.147   4.209  14.195 -0.3643  0.4444 -0.2114
 2470TIP3    H131605   4.120   4.235  14.107  2.8180  0.6511 -1.2384
 2470TIP3    H231606   4.212   4.274  14.221  0.5904 -1.0056  1.2213
 2471TIP3   OH231607   4.202   3.655  15.940 -0.3208  0.3989 -0.1974
 2471TIP3    H131608   4.216   3.570  15.982 -1.0274  1.2874  2.0171
 2471TIP3    H231609   4.148   3.635  15.864 -0.2781 -1.1603  0.1359
 2472TIP3   OH231610   4.019   5.467  16.412 -0.3733 -0.9011  0.1492
 2472TIP3    H131611   4.036   5.386  16.365  1.3277 -1.0428  0.9360
 2472TIP3    H231612   4.042   5.536  16.350 -0.8434 -1.0161 -0.1639
 2473TIP3   OH231613   3.462   3.186  14.490  0.1448  0.2739 -0.2546
 2473TIP3    H131614   3.528   3.222  14.431  1.0826  0.6226  0.9804
 2473TIP3    H231615   3.425   3.263  14.534  0.2808 -0.0625  0.4559
 2474TIP3   OH231616   1.612   3.917  17.218  0.0442 -0.3892 -0.3400
 2474TIP3    H131617   1.644   3.991  17.166 -1.3707  0.6066  0.1482
 2474TIP3    H231618   1.517   3.927  17.218 -0.2144 -2.3999 -0.4981
 2475TIP3   OH231619   1.406   4.348  14.728  0.0327  0.9084 -0.2740
 2475TIP3    H131620   1.418   4.357  14.633  0.5009  2.9831 -0.0563
 2475TIP3    H231621   1.420   4.436  14.763  0.7740  0.0184  1.8398
 2476TIP3   OH231622   6.179   5.692  16.997  0.4972 -0.2991  0.5491
 2476TIP3    H131623   6.198   5.740  17.078 -1.4635 -0.1525  0.9726
 2476TIP3    H231624   6.204   5.602  17.016 -0.7732 -0.4526  1.6957
 2477TIP3   OH231625   1.012   4.907  15.339 -0.5052  0.1039 -0.3032
 2477TIP3    H131626   0.976   4.952  15.415 -0.6567 -1.5111  0.6239
 2477TIP3    H231627   0.970   4.949  15.264 -0.4289  1.6613  0.4871
 2478TIP3   OH231628   5.269   4.214  14.656  0.2455  0.2321  0.4182
 2478TIP3    H131629   5.283   4.299  14.614 -1.2746  0.4356  0.2767
 2478TIP3    H231630   5.217   4.234  14.733 -3.5361 -0.8794 -1.5973
 2479TIP3   OH231631   4.037   5.101  16.714 -0.5782 -0.3460 -0.0102
 2479TIP3    H131632   4.019   5.086  16.621 -2.1295 -1.1690  0.3827
 2479TIP3    H231633   4.032   5.196  16.725  0.0700 -0.2021 -0.8383
 2480TIP3   OH231634   6.577   2.259  15.171  0.0802 -0.3258 -0.3423
 2480TIP3    H131635   6.563   2.227  15.082 -0.6854  3.0920 -1.6182
 2480TIP3    H231636   6.655   2.314  15.165 -0.9974  1.4124  0.5968
 2481TIP3   OH231637   1.008   5.020  16.333  0.4894  0.3239 -0.2633
 2481TIP3    H131638   1.098   5.048  16.345  0.5960 -0.2421  0.2709
 2481TIP3    H231639   0.956   5.080  16.387  0.5414  0.6306 -0.5484
 2482TIP3   OH231640   2.758   5.039  13.523  0.0625  0.4164 -0.2647
 2482TIP3    H131641   2.795   4.986  13.453 -0.7345 -1.9942  1.0302
 2482TIP3    H231642   2.832   5.090  13.556  0.9489 -0.1335 -1.3390
 2483TIP3   OH231643   1.764   5.093  14.047  0.3126  0.3850 -0.6101
 2483TIP3    H131644   1.708   5.151  13.995 -0.8417 -0.7574 -0.6998
 2483TIP3    H231645   1.842   5.145  14.065 -1.0566  2.2914  0.1142
 2484TIP3   OH231646   4.230   5.760  14.023 -0.3097 -0.6232 -0.0494
 2484TIP3    H131647   4.264   5.749  14.112 -0.0744  1.0751  0.0961
 2484TIP3    H231648   4.286   5.703  13.969  1.5061  0.5978  0.4793
 2485TIP3   OH231649   4.783   2.975  16.886 -0.3285  0.6873  0.6229
 2485TIP3    H131650   4.873   3.006  16.871 -0.3829  0.4236 -0.3176
 2485TIP3    H231651   4.761   3.006  16.974  0.7718  0.5558  0.9612
 2486TIP3   OH231652   2.182   0.191  15.568 -0.0218 -0.0943  0.0726
 2486TIP3    H131653   2.086   0.190  15.572 -0.1011 -1.5131 -1.2733
 2486TIP3    H231654   2.207   0.262  15.627 -1.9148  0.6839  0.0338
 2487TIP3   OH231655   2.802   0.411  15.022 -0.1618  0.2954 -0.2077
 2487TIP3    H131656   2.844   0.343  14.969 -1.2696 -0.1961 -0.5024
 2487TIP3    H231657   2.718   0.372  15.047 -0.5340  1.3140  0.1796
 2488TIP3   OH231658   1.249   6.042  16.023 -0.5056 -0.3536 -0.5434
 2488TIP3    H131659   1.287   5.957  16.001 -0.8989 -1.3266  2.2486
 2488TIP3    H231660   1.159   6.023  16.049 -0.7392  0.9786 -0.3022
 2489TIP3   OH231661   2.340   4.266  15.619  0.0400  0.2468  0.1673
 2489TIP3    H131662   2.423   4.296  15.583  0.0714  0.3287  0.3064
 2489TIP3    H231663   2.362   4.185  15.665  0.0163  0.1916  0.0814
 2490TIP3   OH231664   5.032   1.213  14.342 -0.7235 -0.4604 -0.8719
 2490TIP3    H131665   5.070   1.143  14.394 -3.8000  0.5038  3.2357
 2490TIP3    H231666   5.093   1.287  14.353 -0.3362 -0.8568 -0.3064
 2491TIP3   OH231667   5.501   4.816  16.237  0.3641 -0.1926  0.2093
 2491TIP3    H131668   5.555   4.738  16.252  1.1149  0.3478  0.4040
 2491TIP3    H231669   5.467   4.805  16.149  0.6220 -0.6502  0.1623
 2492TIP3   OH231670   0.487   2.291  15.240  0.0009  0.4021  0.1600
 2492TIP3    H131671   0.392   2.294  15.231  0.0693 -0.6206 -1.0486
 2492TIP3    H231672   0.515   2.217  15.187  1.3237 -0.4876  1.9906
 2493TIP3   OH231673   0.976   4.053  14.320  0.1310 -0.5878  0.6671
 2493TIP3    H131674   1.062   4.074  14.358  0.4890  2.4487 -1.4398
 2493TIP3    H231675   0.913   4.092  14.380  0.6005  2.1517 -0.4308
 2494TIP3   OH231676   4.387   0.387  13.223 -0.1492  0.5492 -0.1408
 2494TIP3    H131677   4.481   0.396  13.213 -0.3164  2.0958 -0.6306
 2494TIP3    H231678   4.351   0.466  13.182 -1.5712  0.7865  1.4612
 2495TIP3   OH231679   1.304   4.430  15.837  1.0027 -0.3944  0.5190
 2495TIP3    H131680   1.331   4.476  15.917  4.1033  0.9450 -1.1417
 2495TIP3    H231681   1.374   4.366  15.822 -0.1706 -1.4803 -0.4863
 2496TIP3   OH231682   3.611   4.257  16.690  0.6037 -0.0833  0.1964
 2496TIP3    H131683   3.677   4.320  16.660 -0.2025  1.0106  0.6863
 2496TIP3    H231684   3.619   4.184  16.628  2.2729  0.0066  0.2442
 2497TIP3   OH231685   6.339   4.402  16.494  0.1924  0.3922 -0.1287
 2497TIP3    H131686   6.268   4.467  16.491 -0.5729 -0.4413 -0.4660
 2497TIP3    H231687   6.398   4.435  16.562  0.0421  1.6583 -0.5733
 2498TIP3   OH231688   4.601   1.552  17.027 -0.0751 -0.0192 -0.3610
 2498TIP3    H131689   4.512   1.571  17.056 -0.2874  0.2457 -1.1649
 2498TIP3    H231690   4.624   1.470  17.072 -0.4887  0.2297  0.3187
 2499TIP3   OH231691   1.193   2.788  14.483 -0.1648  0.2464  0.0878
 2499TIP3    H131692   1.216   2.701  14.450 -1.7089  0.4123 -1.5415
 2499TIP3    H231693   1.204   2.846  14.408  0.2650  1.3832  0.9977
 2500TIP3   OH231694   5.303   6.137  16.400  0.2163 -0.2024 -0.2522
 2500TIP3    H131695   5.301   6.053  16.445  3.1131 -0.3556 -0.2022
 2500TIP3    H231696   5.313   6.202  16.469  0.3888 -0.0506 -0.4164
 2501TIP3   OH231697   4.657   0.428  13.252  0.1765 -0.1511  0.6309
 2501TIP3    H131698   4.689   0.501  13.305  1.0911  0.2669 -0.4407
 2501TIP3    H231699   4.674   0.350  13.305 -1.6722  0.4355  2.1911
 2502TIP3   OH231700   5.722   3.926  15.145 -0.0301  0.4613 -0.3292
 2502TIP3    H131701   5.786   3.996  15.157 -0.3095  0.4980  1.1523
 2502TIP3    H231702   5.737   3.895  15.056  1.3677  1.1399 -0.3609
 2503TIP3   OH231703   5.291   5.277  16.921 -0.0051  0.1290  0.3656
 2503TIP3    H131704   5.364   5.306  16.866  0.9284  0.6519  1.8175
 2503TIP3    H231705   5.318   5.192  16.954 -0.3611  0.0116  0.3557
 2504TIP3   OH231706   0.559   0.276  16.589  0.6997  0.6798  0.6292
 2504TIP3    H131707   0.482   0.225  16.614  0.8819  0.6010  1.0328
 2504TIP3    H231708   0.537   0.366  16.613 -0.2907  1.0923 -1.5797
 2505TIP3   OH231709   2.784   5.544  15.368  0.4118  0.2931  0.3605
 2505TIP3    H131710   2.818   5.585  15.288 -4.1839  0.5483 -1.7975
 2505TIP3    H231711   2.756   5.617  15.423 -1.8743  0.2307 -0.6064
 2506TIP3   OH231712   0.559   3.226  16.810 -0.1653  0.1823  0.0993
 2506TIP3    H131713   0.619   3.301  16.805 -0.3227  0.2632 -1.1176
 2506TIP3    H231714   0.486   3.258  16.863  1.1323 -0.1422  2.1712
 2507TIP3   OH231715   5.954   6.087  14.345 -0.4275 -0.4058  0.0061
 2507TIP3    H131716   5.859   6.092  14.338 -0.6105 -2.3719  0.4857
 2507TIP3    H231717   5.970   6.072  14.438  0.2557 -1.4720 -0.2776
 2508TIP3   OH231718   2.461   1.483  16.699 -0.0945 -0.2014  0.3835
 2508TIP3    H131719   2.421   1.570  16.691 -0.8227 -0.4521  1.1197
 2508TIP3    H231720   2.505   1.469  16.615  0.6664  1.1780  0.5156
 2509TIP3   OH231721   6.111   0.727  14.887 -0.3788 -0.0195  0.3585
 2509TIP3    H131722   6.186   0.673  14.912 -0.3067 -0.7285 -1.2750
 2509TIP3    H231723   6.103   0.714  14.793 -1.8567  0.9533  0.3267
 2510TIP3   OH231724   3.249   5.210  15.916 -0.8540 -0.0529  0.5567
 2510TIP3    H131725   3.287   5.266  15.984 -0.5071  1.8584 -1.0951
 2510TIP3    H231726   3.155   5.215  15.930 -0.7422 -0.5808  1.5472
 2511TIP3   OH231727   1.996   1.230  16.859  0.1238  0.4820  0.5024
 2511TIP3    H131728   2.042   1.150  16.835  0.3812  0.1532  1.9559
 2511TIP3    H231729   1.904   1.213  16.836  0.3402  0.1972 -0.1750
 2512TIP3   OH231730   3.353   6.666  17.079 -0.6183  0.0816  0.2302
 2512TIP3    H131731   3.263   6.669  17.112 -0.4589  0.2206  0.6629
 2512TIP3    H231732   3.391   6.750  17.105  0.1213 -0.5984  1.4730
 2513TIP3   OH231733   4.029   1.664  15.021 -0.8981  0.3183  1.1903
 2513TIP3    H131734   4.021   1.702  15.108  0.2408 -0.2574  1.5639
 2513TIP3    H231735   4.053   1.738  14.965 -1.2118  0.6147  1.4491
 2514TIP3   OH231736   5.933   3.725  15.330  0.5991  0.0518 -0.0446
 2514TIP3    H131737   6.016   3.681  15.352  0.4636  0.6009  1.7185
 2514TIP3    H231738   5.946   3.758  15.241  1.9990 -0.5194 -0.0762
 2515TIP3   OH231739   4.591   0.346  13.598 -0.1886  0.2191  0.3773
 2515TIP3    H131740   4.630   0.283  13.537 -1.3652  0.0278 -0.2101
 2515TIP3    H231741   4.601   0.431  13.553 -1.1339  0.0676 -0.1619
 2516TIP3   OH231742   2.314   5.353  16.238  0.0535 -0.0488 -0.2688
 2516TIP3    H131743   2.326   5.387  16.326 -1.2855 -1.5150  0.5464
 2516TIP3    H231744   2.382   5.287  16.228  0.1227  0.0252 -0.2866
 2517TIP3   OH231745   5.647   6.400  15.132 -0.0420  0.1644  0.1042
 2517TIP3    H131746   5.632   6.425  15.040 -1.5828 -0.6893  0.0912
 2517TIP3    H231747   5.714   6.332  15.128 -0.3708 -0.1367 -0.4294
 2518TIP3   OH231748   2.047   0.892  14.430 -0.0159  0.1835 -0.0793
 2518TIP3    H131749   2.036   0.803  14.464 -0.3950  0.6268  1.0144
 2518TIP3    H231750   1.964   0.936  14.452 -0.2258  0.5311 -1.5019
 2519TIP3   OH231751   2.905   3.142  14.355 -0.0235 -0.5094 -0.3136
 2519TIP3    H131752   2.857   3.153  14.437  1.0618  0.5683  0.2131
 2519TIP3    H231753   2.975   3.080  14.377  2.6024  2.5323  0.7406
 2520TIP3   OH231754   4.277   3.875  15.142 -0.4708 -0.4237 -0.0220
 2520TIP3    H131755   4.339   3.936  15.184 -1.0960 -0.3482  0.8063
 2520TIP3    H231756   4.210   3.932  15.104 -0.2016 -0.5225 -0.6574
 2521TIP3   OH231757   0.190   6.461  14.914 -0.0506 -0.2736 -0.1612
 2521TIP3    H131758   0.097   6.466  14.936  0.4211 -1.8915  2.6945
 2521TIP3    H231759   0.218   6.376  14.948  2.4021 -0.0694 -1.4176
 2522TIP3   OH231760   6.185   4.072  14.933  0.2895 -0.0282  0.0361
 2522TIP3    H131761   6.253   4.138  14.928 -1.7848  2.2894  0.4704
 2522TIP3    H231762   6.204   4.012  14.861  3.0270  0.1868  0.4792
 2523TIP3   OH231763   4.111   5.920  14.568  0.0866 -0.0194  0.2305
 2523TIP3    H131764   4.146   5.990  14.622 -0.2761  1.0811 -0.9154
 2523TIP3    H231765   4.034   5.889  14.616  1.1379 -0.7436  1.5154
 2524TIP3   OH231766   5.962   4.394  15.847  0.4843 -0.0598  0.2063
 2524TIP3    H131767   6.048   4.383  15.888  1.9123  0.3137 -2.4799
 2524TIP3    H231768   5.936   4.306  15.821  0.9223  0.0355 -0.5751
 2525TIP3   OH231769   0.349   1.354  14.201 -0.2615  0.2356  0.0836
 2525TIP3    H131770   0.261   1.320  14.183 -0.9532  1.7765  0.3486
 2525TIP3    H231771   0.358   1.428  14.140  1.7214 -1.1702 -1.4465
 2526TIP3   OH231772   2.537   0.653  16.170  0.8316 -0.2563 -0.0806
 2526TIP3    H131773   2.521   0.730  16.114 -1.5248 -0.9464 -0.4916
 2526TIP3    H231774   2.605   0.604  16.124 -1.7350 -1.3419 -3.1040
 2527TIP3   OH231775   4.414   0.496  16.670  0.5624  0.3395  0.5582
 2527TIP3    H131776   4.509   0.499  16.661  0.4521 -1.0959 -2.0038
 2527TIP3    H231777   4.395   0.403  16.681 -0.6167  0.4719 -0.2690
 2528TIP3   OH231778   0.287   3.122  15.789 -0.2934  0.1925  0.1662
 2528TIP3    H131779   0.225   3.193  15.770 -1.0061 -0.3406  0.4564
 2528TIP3    H231780   0.326   3.146  15.873  1.1813  1.3949 -0.8075
 2529TIP3   OH231781   3.557   1.563  15.287  0.7691  0.3861  0.1666
 2529TIP3    H131782   3.513   1.478  15.281 -2.1320  1.7459  0.2068
 2529TIP3    H231783   3.543   1.591  15.378 -0.4142  1.8561 -0.4207
 2530TIP3   OH231784   6.705   5.001  15.142 -0.1547 -0.8354  0.0660
 2530TIP3    H131785   6.652   5.078  15.122  1.5465  0.2263 -0.5517
 2530TIP3    H231786   6.642   4.928  15.144 -1.7115  0.4624  0.1082
 2531TIP3   OH231787   2.772   2.216  16.077 -0.8951 -0.2547  0.2305
 2531TIP3    H131788   2.709   2.167  16.024 -1.8477  0.5968  0.5335
 2531TIP3    H231789   2.832   2.256  16.014 -0.2082 -1.6340 -0.0293
 2532TIP3   OH231790   3.833   0.301  15.701 -0.1218 -0.5920 -0.0276
 2532TIP3    H131791   3.891   0.317  15.775  0.9144  1.8606 -1.2455
 2532TIP3    H231792   3.745   0.318  15.735  0.4383  1.8198  0.4041
 2533TIP3   OH231793   3.629   4.755  16.498 -0.2780 -0.0876 -0.1802
 2533TIP3    H131794   3.659   4.822  16.559 -1.4919 -0.3161  0.7084
 2533TIP3    H231795   3.664   4.782  16.413 -1.2928  2.0880  0.0168
 2534TIP3   OH231796   5.875   6.432  16.751 -0.4116  0.2561 -0.0643
 2534TIP3    H131797   5.812   6.377  16.705 -0.6060 -0.2160  0.7429
 2534TIP3    H231798   5.823   6.484  16.812  0.0826 -2.0401  2.5783
 2535TIP3   OH231799   0.233   6.199  14.963  0.6740 -0.2213  0.3435
 2535TIP3    H131800   0.186   6.126  14.923  0.7754  0.0792 -0.3446
 2535TIP3    H231801   0.256   6.168  15.051 -0.3092 -0.5864  0.4907
 2536TIP3   OH231802   4.639   3.847  16.653  0.2178 -0.2775 -0.6679
 2536TIP3    H131803   4.605   3.909  16.589  0.6804  0.8250  0.1282
 2536TIP3    H231804   4.575   3.850  16.725  0.4982 -0.3670 -0.4125
 2537TIP3   OH231805   6.303   2.412  15.367 -0.0346  0.3785  0.4943
 2537TIP3    H131806   6.369   2.343  15.362  0.9109  1.3417 -2.3774
 2537TIP3    H231807   6.347   2.491  15.336 -2.7337  0.8126 -2.8498
 2538TIP3   OH231808   2.265   4.171  16.972 -0.4856  0.4228  0.0304
 2538TIP3    H131809   2.299   4.085  16.949 -1.7762  0.1812 -1.1194
 2538TIP3    H231810   2.176   4.154  17.002 -0.6002  1.3162  0.2166
 2539TIP3   OH231811   3.101   0.359  15.184 -0.0898 -0.3257 -0.0629
 2539TIP3    H131812   3.105   0.390  15.093 -0.7181  0.2959  0.1150
 2539TIP3    H231813   3.137   0.270  15.180  0.3242 -0.1351 -0.8404
 2540TIP3   OH231814   3.028   0.133  17.009  0.1953  0.5769  0.0900
 2540TIP3    H131815   2.987   0.072  16.948  0.0205  0.3093  0.4711
 2540TIP3    H231816   3.060   0.078  17.080 -1.7372  1.0867  1.4473
 2541TIP3   OH231817   2.229   1.645  14.710  0.3093  0.1008  0.2702
 2541TIP3    H131818   2.210   1.586  14.637  1.0551  0.8922 -0.5925
 2541TIP3    H231819   2.175   1.612  14.782 -0.8997 -0.3538 -0.7970
 2542TIP3   OH231820   3.697   2.047  15.701  0.1693 -0.0341  0.0829
 2542TIP3    H131821   3.652   2.080  15.779 -1.0960 -1.4328 -0.0167
 2542TIP3    H231822   3.641   1.977  15.669  1.7828 -0.9693 -0.8221
 2543TIP3   OH231823   1.275   4.139  15.461  0.1779  0.1394  0.1257
 2543TIP3    H131824   1.204   4.180  15.510 -0.6587  0.2965 -1.1819
 2543TIP3    H231825   1.324   4.089  15.527 -1.0688  0.1054  1.0625
 2544TIP3   OH231826   6.419   3.495  14.626  0.3549 -0.3362  0.1272
 2544TIP3    H131827   6.349   3.457  14.677 -0.2469 -0.8951 -1.0729
 2544TIP3    H231828   6.466   3.552  14.687 -1.8552  1.0066  0.6927
 2545TIP3   OH231829   5.051   0.803  15.049  0.2493 -0.2704  0.2688
 2545TIP3    H131830   4.988   0.749  15.001  0.2597 -1.1845  1.2668
 2545TIP3    H231831   5.036   0.892  15.015 -1.1073 -0.5761  0.0069
 2546TIP3   OH231832   4.405   0.417  13.820 -0.1435 -0.0695 -0.4943
 2546TIP3    H131833   4.446   0.374  13.745 -3.0346 -1.2419 -1.5721
 2546TIP3    H231834   4.350   0.486  13.781  0.0186  0.8041  0.7654
 2547TIP3   OH231835   4.817   2.219  16.221  0.3512 -0.2805 -0.4718
 2547TIP3    H131836   4.762   2.291  16.191 -0.6232 -0.2019  1.3622
 2547TIP3    H231837   4.763   2.140  16.207  0.6763 -0.4593 -0.7421
 2548TIP3   OH231838   4.292   4.683  15.558 -0.3854  0.1104 -0.0792
 2548TIP3    H131839   4.298   4.650  15.647  0.0722 -0.0548 -0.1649
 2548TIP3    H231840   4.309   4.607  15.503  0.9911  0.5283 -0.2733
 2549TIP3   OH231841   1.961   3.550  15.002  0.1344  0.4986  0.2595
 2549TIP3    H131842   1.867   3.553  14.985  0.2917  2.2591 -0.4813
 2549TIP3    H231843   1.997   3.625  14.955  2.0380 -0.5981 -0.1353
 2550TIP3   OH231844   5.984   6.511  16.515  0.2701 -0.4223  0.4608
 2550TIP3    H131845   5.979   6.607  16.519 -0.4086 -0.4222 -0.2887
 2550TIP3    H231846   5.940   6.482  16.595  1.6087 -0.0994  1.3513
 2551TIP3   OH231847   0.593   3.818  16.877  0.3821 -0.4002 -0.8661
 2551TIP3    H131848   0.631   3.873  16.809  1.6346  0.2674  0.3118
 2551TIP3    H231849   0.655   3.824  16.950 -1.1222 -0.7334  0.5028
 2552TIP3   OH231850   2.959   2.895  16.553 -0.4993  0.2276 -0.5453
 2552TIP3    H131851   3.050   2.921  16.540 -1.4568  3.4738 -1.7687
 2552TIP3    H231852   2.942   2.913  16.645 -0.1771  0.7083 -0.5751
 2553TIP3   OH231853   4.084   6.259  16.737  0.4050 -0.1109 -0.2538
 2553TIP3    H131854   4.120   6.207  16.809 -0.4823  0.0965  0.3603
 2553TIP3    H231855   4.002   6.215  16.714 -0.5378  1.1722  0.5080
 2554TIP3   OH231856   4.672   4.070  15.064 -0.5604  0.1404 -0.6020
 2554TIP3    H131857   4.674   3.995  15.005 -2.3198 -1.9007  1.6764
 2554TIP3    H231858   4.592   4.117  15.041 -0.7132 -0.0753 -0.5177
 2555TIP3   OH231859   3.844   5.964  16.307 -0.0142 -0.2808 -0.1698
 2555TIP3    H131860   3.777   5.940  16.244 -1.8032  1.0697  1.1105
 2555TIP3    H231861   3.847   5.891  16.368  1.3805 -1.3741 -1.4774
 2556TIP3   OH231862   4.292   2.406  15.768 -0.4749  0.3543 -0.8381
 2556TIP3    H131863   4.382   2.422  15.794  0.2481 -1.7497 -1.8030
 2556TIP3    H231864   4.265   2.487  15.724  0.3314  1.6228  0.8851
 2557TIP3   OH231865   2.065   3.572  13.982 -0.4996 -0.1842  0.2124
 2557TIP3    H131866   2.008   3.648  13.973  0.8864  0.8903  0.0982
 2557TIP3    H231867   2.029   3.507  13.922 -1.2866  0.6560 -0.2520
 2558TIP3   OH231868   0.217   6.745  16.074  0.0984 -0.3143  0.3503
 2558TIP3    H131869   0.228   6.696  16.156  0.0843 -0.2088  0.4154
 2558TIP3    H231870   0.147   6.699  16.027  1.1137 -1.2816 -0.2725
 2559TIP3   OH231871   3.165   0.117  15.120  0.4309  0.1048 -0.1371
 2559TIP3    H131872   3.147   0.165  15.039 -0.1717  0.7060  0.3409
 2559TIP3    H231873   3.139   0.027  15.100  0.1870  0.2694 -0.5801
 2560TIP3   OH231874   3.110   0.287  14.880 -0.1719 -0.0038  0.3164
 2560TIP3    H131875   3.065   0.212  14.841 -0.3782  0.1514  0.2551
 2560TIP3    H231876   3.159   0.325  14.807 -0.8321  0.4923  0.1251
 2561TIP3   OH231877   1.825   1.999  16.146 -0.1605 -0.1621 -1.0372
 2561TIP3    H131878   1.772   1.960  16.216 -0.8777  1.5628 -0.5799
 2561TIP3    H231879   1.871   1.924  16.107 -2.4818 -1.6726 -1.0990
 2562TIP3   OH231880   6.206   4.989  14.375 -0.1946 -0.3074  0.4864
 2562TIP3    H131881   6.286   5.041  14.360  1.1978 -2.1590  1.1163
 2562TIP3    H231882   6.181   5.008  14.465  1.2967 -1.8713  1.3055
 2563TIP3   OH231883   2.992   2.688  15.191  0.5518  0.0722 -0.2114
 2563TIP3    H131884   3.058   2.696  15.260  2.0416  1.2418 -1.6935
 2563TIP3    H231885   2.966   2.778  15.173 -1.6626 -0.3671  0.4553
 2564TIP3   OH231886   1.307   3.034  15.946 -0.1855  0.2288  0.8284
 2564TIP3    H131887   1.237   3.067  15.891  0.9330  0.2688 -0.6376
 2564TIP3    H231888   1.295   3.078  16.030 -1.9682  0.1281  0.6581
 2565TIP3   OH231889   0.581   0.835  15.307 -0.4203  0.7414 -0.1136
 2565TIP3    H131890   0.571   0.749  15.347  0.6947  1.2238  1.3029
 2565TIP3    H231891   0.673   0.838  15.280 -0.2427  1.7250  0.5289
 2566TIP3   OH231892   5.903   5.216  15.438 -0.0820 -0.0721 -0.4581
 2566TIP3    H131893   5.930   5.246  15.351 -0.2786  1.4280 -0.0365
 2566TIP3    H231894   5.837   5.149  15.421  0.3503 -0.2557 -1.4655
 2567TIP3   OH231895   2.311   0.833  15.893 -0.0657 -0.0015  0.3473
 2567TIP3    H131896   2.397   0.862  15.923 -0.3918  0.8059  0.5045
 2567TIP3    H231897   2.249   0.877  15.951 -0.6267  0.1353 -0.3447
 2568TIP3   OH231898   2.107   3.348  15.652 -0.3861 -0.5370 -0.6063
 2568TIP3    H131899   2.038   3.288  15.680  0.2590 -1.0267 -0.0377
 2568TIP3    H231900   2.062   3.432  15.640 -0.7802 -0.4221  1.4290
 2569TIP3   OH231901   4.638   3.999  16.213 -0.4878 -0.1904  0.2825
 2569TIP3    H131902   4.721   3.969  16.174 -2.1901 -2.3691 -1.9733
 2569TIP3    H231903   4.578   4.006  16.139 -2.2152  1.9387  1.7703
 2570TIP3   OH231904   2.546   1.283  17.202 -0.2494  0.2460  0.0168
 2570TIP3    H131905   2.475   1.292  17.138  0.3696 -0.1030 -0.7430
 2570TIP3    H231906   2.515   1.330  17.279 -0.4938  1.7972 -0.9751
 2571TIP3   OH231907   1.446   3.284  17.150 -0.2265  0.0822  0.6703
 2571TIP3    H131908   1.521   3.342  17.143 -0.4558  0.3389  0.3451
 2571TIP3    H231909   1.451   3.249  17.240 -0.1881  0.7294  0.9251
 2572TIP3   OH231910   1.178   5.077  16.099  0.3463  0.0212 -0.4202
 2572TIP3    H131911   1.095   5.033  16.080 -0.4442  1.5206 -0.5590
 2572TIP3    H231912   1.201   5.122  16.017  1.2994 -0.3690 -0.3798
 2573TIP3   OH231913   5.860   0.188  14.806 -0.3289  0.1191  0.3048
 2573TIP3    H131914   5.843   0.097  14.785  2.0113 -0.0166 -1.4098
 2573TIP3    H231915   5.803   0.207  14.881  1.1967 -3.6189  2.7091
 2574TIP3   OH231916   1.434   3.298  13.992  0.6270  0.5058  0.5811
 2574TIP3    H131917   1.453   3.316  14.084 -0.9990  0.0585  1.0370
 2574TIP3    H231918   1.359   3.354  13.971  0.9832  0.6073 -0.4769
 2575TIP3   OH231919   0.846   0.793  15.214 -0.1709 -0.2113 -0.5388
 2575TIP3    H131920   0.925   0.747  15.242 -0.2520 -1.8375 -2.7752
 2575TIP3    H231921   0.834   0.768  15.123 -2.6750  0.8769 -0.5934
 2576TIP3   OH231922   3.881   2.488  14.820  0.6919 -0.1120 -0.1496
 2576TIP3    H131923   3.875   2.487  14.724 -0.3718  0.4312 -0.1036
 2576TIP3    H231924   3.820   2.420  14.848 -0.1096  0.7304  0.1777
 2577TIP3   OH231925   1.703   2.192  15.540  0.0799  0.0489 -0.6278
 2577TIP3    H131926   1.610   2.205  15.519 -0.9581 -0.3509  2.9483
 2577TIP3    H231927   1.722   2.260  15.604  0.7932 -2.5394  2.1741
 2578TIP3   OH231928   6.382   6.702  16.100 -0.4088  0.4368 -0.0846
 2578TIP3    H131929   6.434   6.660  16.032 -0.8533 -0.8127  0.3130
 2578TIP3    H231930   6.440   6.707  16.176 -0.5578 -0.0594  0.0637
 2579TIP3   OH231931   3.724   0.113  14.496 -0.1979  0.8172 -1.0061
 2579TIP3    H131932   3.797   0.154  14.449 -1.0139  1.6675 -1.5653
 2579TIP3    H231933   3.676   0.187  14.535  0.0076  0.1868  0.5342
 2580TIP3   OH231934   1.029   0.249  16.559 -0.0895 -0.3037  0.4140
 2580TIP3    H131935   1.066   0.161  16.548 -0.8711 -0.4641 -1.2651
 2580TIP3    H231936   1.004   0.276  16.470  0.3410  1.7196  0.8480
 2581TIP3   OH231937   6.087   3.321  15.538 -0.3649  0.3326  0.3652
 2581TIP3    H131938   6.100   3.237  15.583  0.8835 -0.0595 -0.6377
 2581TIP3    H231939   6.051   3.379  15.605 -2.4104 -1.3120  0.7763
 2582TIP3   OH231940   6.470   4.672  14.656 -0.6554  1.0136 -0.1464
 2582TIP3    H131941   6.443   4.645  14.568 -0.5519 -0.0529  0.1417
 2582TIP3    H231942   6.412   4.745  14.677 -0.6027  1.3535 -1.1452
 2583TIP3   OH231943   6.744   3.775  14.965 -0.0437  0.1340 -0.0092
 2583TIP3    H131944   6.685   3.762  15.039  0.7082 -0.8457  0.4370
 2583TIP3    H231945   6.831   3.753  14.998  0.5558  1.2809 -0.7325
 2584TIP3   OH231946   4.357   2.110  15.719  0.1289 -0.1953  0.3343
 2584TIP3    H131947   4.348   2.144  15.630  2.1043  0.1151  0.2074
 2584TIP3    H231948   4.313   2.175  15.774 -0.0793  0.2195 -0.3095
 2585TIP3   OH231949   2.801   5.835  16.787  0.3908 -0.3917  0.5567
 2585TIP3    H131950   2.855   5.853  16.864  0.8669 -0.7997  0.3224
 2585TIP3    H231951   2.856   5.780  16.731 -0.2216 -0.7173  0.2592
 2586TIP3   OH231952   0.822   3.265  14.467 -0.8606 -0.5918 -0.9186
 2586TIP3    H131953   0.857   3.277  14.555  0.2431 -0.6701 -1.3317
 2586TIP3    H231954   0.779   3.180  14.469  0.5904 -1.3504 -0.8876
 2587TIP3   OH231955   1.145   2.683  17.017  0.2233  0.2197  0.0212
 2587TIP3    H131956   1.168   2.593  16.997  0.4433  0.8661 -3.0146
 2587TIP3    H231957   1.227   2.732  17.010 -0.3125  1.0181 -0.8469
 2588TIP3   OH231958   5.174   3.542  16.805  0.4424  0.1701  0.6181
 2588TIP3    H131959   5.259   3.500  16.791 -0.1318 -1.0536  0.6646
 2588TIP3    H231960   5.120   3.474  16.846 -0.5672  0.9206  0.5735
 2589TIP3   OH231961   2.363   1.022  16.306  0.3367 -0.2509  0.0931
 2589TIP3    H131962   2.359   0.963  16.382 -0.2243 -0.0683  0.2089
 2589TIP3    H231963   2.446   1.068  16.316  0.1980 -0.1216  0.6747
 2590TIP3   OH231964   5.740   5.294  16.125  0.3093 -0.5345  0.5975
 2590TIP3    H131965   5.718   5.201  16.129 -0.2499 -0.3804  1.2621
 2590TIP3    H231966   5.823   5.301  16.173  0.1896 -0.6456  0.8224
 2591TIP3   OH231967   5.603   1.551  15.987  0.3525 -0.2523  0.2620
 2591TIP3    H131968   5.604   1.524  15.895  1.2603 -1.0329  0.4791
 2591TIP3    H231969   5.695   1.569  16.008  0.1053  0.3038  0.9114
 2592TIP3   OH231970   5.859   0.644  15.770 -0.0689 -0.5885  0.1569
 2592TIP3    H131971   5.863   0.697  15.690  1.5353 -0.8210  0.0461
 2592TIP3    H231972   5.787   0.584  15.756 -0.4103  0.0061 -0.7145
 2593TIP3   OH231973   0.951   0.829  16.775 -0.1054  0.2280  0.2468
 2593TIP3    H131974   0.880   0.788  16.725  0.5195  0.6778 -1.0260
 2593TIP3    H231975   0.978   0.761  16.837 -0.5142 -0.5322 -0.3906
 2594TIP3   OH231976   0.546   3.402  14.515  0.2933  0.3173  0.2443
 2594TIP3    H131977   0.536   3.353  14.434 -0.3307 -0.1477  0.5899
 2594TIP3    H231978   0.640   3.419  14.522  0.3984  0.0021 -0.3667
 2595TIP3   OH231979   5.589   3.212  16.359 -0.3696  0.2400  0.2186
 2595TIP3    H131980   5.595   3.167  16.442 -1.4496 -0.7287 -0.2041
 2595TIP3    H231981   5.538   3.291  16.378 -0.0199  0.3766  0.6023
 2596TIP3   OH231982   5.266   2.725  14.239 -0.0365 -0.0036 -0.2075
 2596TIP3    H131983   5.230   2.657  14.183  0.7846 -0.0524 -0.6902
 2596TIP3    H231984   5.238   2.807  14.199  0.6774 -0.0356 -0.7920
 2597TIP3   OH231985   1.799   4.570  14.299 -0.0471 -0.3797 -0.2898
 2597TIP3    H131986   1.767   4.634  14.362  0.3868  0.1946 -0.6440
 2597TIP3    H231987   1.829   4.496  14.353  0.5793  0.2191  0.2013
 2598TIP3   OH231988   6.475   3.475  14.302  0.1780 -0.2937  0.1353
 2598TIP3    H131989   6.497   3.388  14.333  2.0864  0.6159  1.5550
 2598TIP3    H231990   6.549   3.500  14.246 -0.8229  0.0588 -1.0737
 2599TIP3   OH231991   5.198   1.722  14.357 -0.0513  0.0487 -0.1691
 2599TIP3    H131992   5.103   1.708  14.359  0.2966 -2.5849  1.2430
 2599TIP3    H231993   5.208   1.806  14.311 -3.0244  0.3197 -0.5365
 2600TIP3   OH231994   5.979   6.688  14.316 -0.3311 -0.1529 -0.3626
 2600TIP3    H131995   5.896   6.735  14.304  0.0090  0.6225  0.2484
 2600TIP3    H231996   6.004   6.662  14.228 -1.1112 -0.1999 -0.5813
 2601TIP3   OH231997   5.945   6.715  16.134 -0.2996 -0.2924 -0.4639
 2601TIP3    H131998   6.010   6.660  16.091  1.4095  3.0765 -2.6009
 2601TIP3    H231999   5.902   6.657  16.196  3.4598 -3.2138 -0.2344
 2602TIP3   OH232000   6.270   1.480  14.262  0.7574  0.7189 -0.4385
 2602TIP3    H132001   6.251   1.392  14.228  0.1418  0.5241  0.3942
 2602TIP3    H232002   6.248   1.538  14.189 -1.1824  0.3537 -0.2004
 2603TIP3   OH232003   3.048   0.373  16.114 -0.3598 -0.2739  0.1638
 2603TIP3    H132004   3.088   0.460  16.120 -0.0011 -0.2626 -1.7393
 2603TIP3    H232005   2.956   0.389  16.093  0.0761 -0.3210 -1.9627
 2604TIP3   OH232006   1.177   2.255  17.074  0.3547  0.1901  0.5243
 2604TIP3    H132007   1.214   2.309  17.004  0.1604 -0.2226  0.0997
 2604TIP3    H232008   1.230   2.277  17.151  2.0201 -0.9618 -0.2383
 2605TIP3   OH232009   4.167   4.538  16.786 -0.2229  0.2427  0.0202
 2605TIP3    H132010   4.185   4.625  16.750  2.9875  0.2591  1.2934
 2605TIP3    H232011   4.230   4.481  16.741  1.3297 -0.3895  2.7735
 2606TIP3   OH232012   4.319   4.333  16.659  0.3779  0.0844  0.0084
 2606TIP3    H132013   4.308   4.242  16.688  0.9124  0.6655  2.1577
 2606TIP3    H232014   4.253   4.344  16.590  0.1672 -1.8570 -0.1500
 2607TIP3   OH232015   2.832   0.877  16.606 -0.0886 -0.2791  0.1843
 2607TIP3    H132016   2.832   0.782  16.601 -2.3099 -0.3525  0.6398
 2607TIP3    H232017   2.761   0.899  16.667  0.0451  1.6761 -0.2761
 2608TIP3   OH232018   1.410   5.254  13.602 -0.1367  0.1052 -0.3848
 2608TIP3    H132019   1.362   5.174  13.583 -0.1203  0.0073 -0.0127
 2608TIP3    H232020   1.350   5.324  13.577  0.6180  0.0034 -2.7169
 2609TIP3   OH232021   1.501   6.746  14.272 -0.2263 -0.6340 -0.2245
 2609TIP3    H132022   1.449   6.791  14.206 -1.0179 -0.1853  0.6764
 2609TIP3    H232023   1.470   6.655  14.269 -0.2319 -0.6235 -0.4927
 2610TIP3   OH232024   4.208   4.055  16.717  0.2121  0.4977 -0.1833
 2610TIP3    H132025   4.120   4.086  16.694  0.1461 -0.9404 -2.1709
 2610TIP3    H232026   4.199   4.025  16.807 -1.7682 -0.8948 -0.7584
 2611TIP3   OH232027   3.290   5.058  14.537  0.7502 -0.2841 -0.3850
 2611TIP3    H132028   3.247   4.976  14.562  0.5018  0.0551  0.3428
 2611TIP3    H232029   3.362   5.067  14.600  0.7219  0.0930 -0.4066
 2612TIP3   OH232030   1.084   0.465  15.580  0.9178  0.0815  0.3226
 2612TIP3    H132031   1.026   0.506  15.644 -1.4772 -0.9704 -1.0562
 2612TIP3    H232032   1.169   0.507  15.594  0.1750  0.7894  3.2743
 2613TIP3   OH232033   1.373   4.199  16.398  0.4200  0.1062 -0.9602
 2613TIP3    H132034   1.445   4.145  16.365  0.9577  0.1456  0.1073
 2613TIP3    H232035   1.302   4.137  16.415  1.4250 -0.5134  1.3919
 2614TIP3   OH232036   4.218   0.760  15.204 -0.2426 -0.5294  0.3126
 2614TIP3    H132037   4.222   0.736  15.111 -0.6812 -0.4989  0.2843
 2614TIP3    H232038   4.224   0.676  15.250  0.5498 -0.4988  0.2747
 2615TIP3   OH232039   5.644   1.153  16.203  0.3399  0.2562 -0.5054
 2615TIP3    H132040   5.675   1.062  16.205 -2.1004 -0.6235 -0.4209
 2615TIP3    H232041   5.619   1.167  16.111  0.3866  0.7428 -0.4447
 2616TIP3   OH232042   0.024   6.362  17.254  0.3858  0.1469  0.1627
 2616TIP3    H132043   0.030   6.450  17.218  1.6564 -0.3454 -0.9551
 2616TIP3    H232044   0.106   6.320  17.226 -1.3460 -2.2444 -1.6965
 2617TIP3   OH232045   4.128   2.392  14.913 -0.4310 -0.0715  0.3218
 2617TIP3    H132046   4.058   2.449  14.880  0.3292  1.7875  1.7542
 2617TIP3    H232047   4.200   2.451  14.935  0.8088 -1.7068  0.8934
 2618TIP3   OH232048   4.770   1.167  16.447 -0.0290  0.1907 -0.3005
 2618TIP3    H132049   4.777   1.083  16.492  1.8836  1.0980  1.2841
 2618TIP3    H232050   4.684   1.165  16.406 -0.7898 -1.8137  1.1882
 2619TIP3   OH232051   5.694   2.295  13.203 -0.2018 -0.1079 -0.3458
 2619TIP3    H132052   5.762   2.228  13.200  0.2712  0.3669 -0.4486
 2619TIP3    H232053   5.707   2.345  13.122 -0.1499  0.4871  0.0235
 2620TIP3   OH232054   6.733   6.273  15.247 -0.5216 -0.5557  0.0527
 2620TIP3    H132055   6.699   6.252  15.334 -0.2296 -2.5643 -0.2543
 2620TIP3    H232056   6.828   6.280  15.260 -0.3943 -1.6059 -0.1968
 2621TIP3   OH232057   4.061   2.760  16.289  0.6089  0.5665  0.5947
 2621TIP3    H132058   4.050   2.673  16.250 -0.0033  0.6042  0.6661
 2621TIP3    H232059   4.155   2.778  16.283  1.0092 -0.8220  2.1559
 2622TIP3   OH232060   5.621   1.197  13.312  0.6210  0.2744  0.0566
 2622TIP3    H132061   5.532   1.169  13.295  0.7590 -0.9856  1.1957
 2622TIP3    H232062   5.672   1.115  13.315  1.9016  0.9871 -1.0156
 2623TIP3   OH232063   5.576   6.011  14.414 -0.1670 -0.2160  0.6658
 2623TIP3    H132064   5.640   5.959  14.461 -0.2031 -0.0155  0.9344
 2623TIP3    H232065   5.618   6.032  14.331 -0.3135 -1.0449  0.3691
 2624TIP3   OH232066   6.267   5.663  14.521  0.1762  0.0571  0.0412
 2624TIP3    H132067   6.318   5.582  14.529  1.0733  0.4619 -1.3236
 2624TIP3    H232068   6.317   5.717  14.461 -1.9113  0.4256 -1.4551
 2625TIP3   OH232069   1.248   4.830  16.388  0.0874  0.6170 -0.2484
 2625TIP3    H132070   1.180   4.835  16.320  0.1368  3.7796 -0.1690
 2625TIP3    H232071   1.237   4.742  16.425 -2.4798  0.2104 -1.7214
 2626TIP3   OH232072   1.501   6.375  16.790  0.2525  0.2960  0.1001
 2626TIP3    H132073   1.435   6.379  16.721 -1.8307 -1.3491  1.8260
 2626TIP3    H232074   1.452   6.348  16.868  3.1515 -2.0565  1.2959
 2627TIP3   OH232075   2.705   1.908  16.125  0.6595 -0.2690 -0.2561
 2627TIP3    H132076   2.646   1.836  16.148 -0.1928  0.8644  1.2598
 2627TIP3    H232077   2.646   1.978  16.096  1.3992  0.2814 -0.4570
 2628TIP3   OH232078   0.923   2.115  13.942  0.0038 -0.2621 -0.4406
 2628TIP3    H132079   0.845   2.064  13.922  0.8950 -1.3188 -1.2800
 2628TIP3    H232080   0.889   2.203  13.962 -1.3380 -0.4873 -1.5775
 2629TIP3   OH232081   2.823   0.161  15.856 -0.4149 -0.3490  0.5632
 2629TIP3    H132082   2.751   0.223  15.865  0.7802  1.0402  0.9997
 2629TIP3    H232083   2.860   0.178  15.769 -1.4120 -2.0034 -0.2380
 2630TIP3   OH232084   3.298   2.559  15.528 -0.1266 -0.2692  0.4940
 2630TIP3    H132085   3.365   2.498  15.497  0.1736  0.8679 -1.2503
 2630TIP3    H232086   3.217   2.508  15.530  0.0894 -0.7050 -1.0806
 2631TIP3   OH232087   3.257   3.822  16.110  0.2326 -0.5825  0.0695
 2631TIP3    H132088   3.266   3.814  16.205  0.0387 -1.0785  0.0467
 2631TIP3    H232089   3.347   3.825  16.078  0.3055 -1.0482  0.2208
 2632TIP3   OH232090   1.733   3.281  13.566 -0.0372 -0.7407 -0.1885
 2632TIP3    H132091   1.790   3.356  13.550 -1.0500 -0.0767 -0.7468
 2632TIP3    H232092   1.778   3.208  13.524  1.6024 -0.7494  1.4395
 2633TIP3   OH232093   1.932   0.293  14.119 -0.1173 -0.0809  0.2475
 2633TIP3    H132094   1.849   0.268  14.077  0.2611 -0.4850 -0.2807
 2633TIP3    H232095   1.976   0.210  14.136  0.2463  0.1395  0.3846
 2634TIP3   OH232096   2.047   4.928  13.376  0.5709 -0.0274  0.2684
 2634TIP3    H132097   2.128   4.878  13.369  1.1951  1.1085 -1.2875
 2634TIP3    H232098   2.076   5.017  13.397 -0.4260 -0.0213  1.7496
 2635TIP3   OH232099   1.273   4.980  16.951  0.0115  0.3670 -0.1254
 2635TIP3    H132100   1.341   4.945  16.894  0.5637  1.8249 -0.4055
 2635TIP3    H232101   1.213   4.907  16.966  2.2397 -1.2964  1.0812
 2636TIP3   OH232102   0.019   5.379  14.833  0.3702  0.2545  0.8368
 2636TIP3    H132103   0.096   5.361  14.887  0.4169  1.6925  1.2806
 2636TIP3    H232104   0.053   5.430  14.760 -0.2038  1.2622  1.2531
 2637TIP3   OH232105   5.709   4.023  16.532 -0.3776 -0.0360  0.0716
 2637TIP3    H132106   5.772   3.955  16.555 -0.7769 -0.5164 -0.2019
 2637TIP3    H232107   5.658   4.038  16.612 -1.1046 -0.9718 -0.1913
 2638TIP3   OH232108   2.016   5.719  16.141 -0.3427 -0.2148  0.8004
 2638TIP3    H132109   2.064   5.638  16.127 -1.0652 -0.9521  2.3577
 2638TIP3    H232110   2.018   5.764  16.056  0.9724 -1.3528  0.2090
 2639TIP3   OH232111   2.850   1.988  17.029  0.2193  0.3527  0.1392
 2639TIP3    H132112   2.861   1.989  16.934 -1.6330  2.1380 -0.1138
 2639TIP3    H232113   2.932   2.025  17.062  0.5270  0.5724 -0.8187
 2640TIP3   OH232114   1.081   1.697  16.786  0.0933  0.4842 -0.4758
 2640TIP3    H132115   1.028   1.633  16.739  1.2637  0.3121 -1.6288
 2640TIP3    H232116   1.075   1.670  16.878 -0.7787 -0.2802 -0.7448
 2641TIP3   OH232117   3.647   0.816  15.294  0.4531  0.3513  0.2805
 2641TIP3    H132118   3.742   0.810  15.283  0.3329  0.0560 -0.6605
 2641TIP3    H232119   3.625   0.904  15.262  0.3725  0.3056  0.2101
 2642TIP3   OH232120   4.177   2.565  16.456  0.4054 -0.2963  0.0316
 2642TIP3    H132121   4.225   2.583  16.537 -0.4526 -0.3736  0.5782
 2642TIP3    H232122   4.125   2.644  16.441  0.5120 -0.3091 -0.4076
 2643TIP3   OH232123   3.767   3.922  14.436  0.5294 -0.1874 -0.1297
 2643TIP3    H132124   3.750   3.831  14.461 -2.1309  0.3868  0.4968
 2643TIP3    H232125   3.849   3.944  14.480  0.8771 -2.0664  0.2700
 2644TIP3   OH232126   3.077   5.768  15.878  0.1670 -0.4387 -0.0954
 2644TIP3    H132127   3.004   5.743  15.934  0.3596  0.0678  0.3985
 2644TIP3    H232128   3.126   5.687  15.863 -1.3944 -1.1234 -1.7989
 2645TIP3   OH232129   4.858   5.281  14.970 -0.5250 -0.5097 -0.6992
 2645TIP3    H132130   4.892   5.362  14.933  1.7747 -1.1996 -0.2444
 2645TIP3    H232131   4.772   5.305  15.004  0.8274  2.2631  1.1486
 2646TIP3   OH232132   6.195   3.380  14.747 -0.4089  0.5782  0.3293
 2646TIP3    H132133   6.199   3.284  14.744 -1.1304  0.5659 -0.4164
 2646TIP3    H232134   6.123   3.403  14.689 -1.6084  1.4896  2.1087
 2647TIP3   OH232135   1.989   2.747  16.790 -0.1447 -0.1721 -0.6221
 2647TIP3    H132136   1.936   2.690  16.735 -1.2094 -0.1697  0.3710
 2647TIP3    H232137   1.927   2.809  16.828  0.5740 -0.0667  0.4556
 2648TIP3   OH232138   5.971   3.431  13.811 -0.0063 -0.6529  0.4745
 2648TIP3    H132139   5.929   3.395  13.733  2.0742 -0.0195 -1.0199
 2648TIP3    H232140   5.979   3.525  13.794  1.6947 -0.6951  0.7858
 2649TIP3   OH232141   5.638   4.968  16.428 -0.5169  0.0899  0.4868
 2649TIP3    H132142   5.624   5.060  16.450  0.2017  0.9251 -2.1418
 2649TIP3    H232143   5.583   4.953  16.351  0.4360 -1.2536  0.0284
 2650TIP3   OH232144   4.953   0.120  15.798 -0.1505 -0.1610 -0.0702
 2650TIP3    H132145   4.927   0.057  15.731  1.1290  1.3746 -2.1442
 2650TIP3    H232146   5.041   0.093  15.823  0.2898  0.5786 -0.7593
 2651TIP3   OH232147   5.339   4.193  15.158  0.4471  0.4059 -0.5998
 2651TIP3    H132148   5.252   4.163  15.132 -0.0568  2.6637 -1.8209
 2651TIP3    H232149   5.353   4.155  15.244 -2.7941  1.8145  0.7167
 2652TIP3   OH232150   3.407   6.681  14.950  0.4264 -0.2712 -0.1218
 2652TIP3    H132151   3.447   6.768  14.948  2.0387 -0.9689 -0.0179
 2652TIP3    H232152   3.414   6.650  14.860 -0.2328 -0.2703 -0.1784
 2653TIP3   OH232153   3.492   2.272  14.708 -0.2057 -0.2802  0.2131
 2653TIP3    H132154   3.559   2.242  14.647 -1.1437 -0.7122 -0.6348
 2653TIP3    H232155   3.461   2.193  14.751 -0.3748 -0.1228  0.3856
 2654TIP3   OH232156   0.041   5.950  17.177  0.0662 -0.1278  0.5335
 2654TIP3    H132157  -0.006   6.033  17.189  0.4499  0.1841 -0.0816
 2654TIP3    H232158  -0.013   5.886  17.222 -1.5474  0.0346 -1.0300
 2655TIP3   OH232159   5.501   5.309  14.196 -0.6553  0.3385  0.8764
 2655TIP3    H132160   5.485   5.376  14.129  0.8929  2.5392  2.5594
 2655TIP3    H232161   5.562   5.248  14.156  0.6340  1.8896  0.4068
 2656TIP3   OH232162   3.004   3.889  16.859  0.2192  0.1381 -0.2818
 2656TIP3    H132163   2.967   3.822  16.917 -0.2771 -0.4538 -1.2485
 2656TIP3    H232164   2.931   3.913  16.801  0.1278  2.1780  0.5903
 2657TIP3   OH232165   2.938   6.481  14.639 -0.1549  0.2552 -0.5156
 2657TIP3    H132166   2.967   6.523  14.720 -2.1110  0.6480  0.0553
 2657TIP3    H232167   2.872   6.417  14.668  2.2587 -2.8691 -1.4341
 2658TIP3   OH232168   2.079   5.558  15.006 -0.9943 -0.0124  0.3088
 2658TIP3    H132169   2.153   5.554  15.067 -1.6629 -1.5509  1.0704
 2658TIP3    H232170   2.117   5.592  14.925  0.1339  1.0728  1.2477
 2659TIP3   OH232171   4.744   3.773  14.638 -0.5881 -0.2670 -0.3621
 2659TIP3    H132172   4.814   3.838  14.624 -0.2504 -0.6119 -0.3015
 2659TIP3    H232173   4.733   3.770  14.733 -1.0095  0.1240 -0.3983
 2660TIP3   OH232174   5.490   4.521  15.371 -0.1861  0.0775 -0.1620
 2660TIP3    H132175   5.540   4.541  15.291 -1.0201  0.6814 -0.5445
 2660TIP3    H232176   5.402   4.502  15.340 -0.1875 -1.0776  0.5015
 2661TIP3   OH232177   6.723   3.535  15.486 -0.1851  0.0342 -0.0532
 2661TIP3    H132178   6.814   3.545  15.460 -0.7156  0.3149 -1.9271
 2661TIP3    H232179   6.703   3.443  15.468 -0.4360  0.1153 -0.1901
 2662TIP3   OH232180   5.147   0.653  16.621  0.3880 -0.5266 -0.1987
 2662TIP3    H132181   5.103   0.737  16.632 -0.2427 -0.8127 -0.5116
 2662TIP3    H232182   5.233   0.666  16.662  1.0775  0.9069 -1.9292
 2663TIP3   OH232183   2.928   2.055  15.422  0.0268 -0.2577  0.4817
 2663TIP3    H132184   2.952   2.008  15.342  1.4714  0.3983  0.5019
 2663TIP3    H232185   2.847   2.012  15.451 -0.0027 -1.1383 -0.7919
 2664TIP3   OH232186   0.387   0.911  15.962 -0.0132  0.4246 -0.2914
 2664TIP3    H132187   0.353   0.998  15.987 -0.3132  0.2482 -0.0804
 2664TIP3    H232188   0.474   0.908  16.001  0.5539  1.1707 -1.4540
 2665TIP3   OH232189   1.592   2.457  14.303  1.1392 -0.5966  0.1065
 2665TIP3    H132190   1.666   2.455  14.363  1.4388 -2.2371 -0.2632
 2665TIP3    H232191   1.627   2.423  14.220  0.7107  1.5123 -1.0058
 2666TIP3   OH232192   6.462   4.008  16.011 -0.2486 -0.5471  0.0937
 2666TIP3    H132193   6.425   3.924  15.982 -0.4625 -0.8222  1.1075
 2666TIP3    H232194   6.509   3.986  16.092 -0.8813  0.4123  0.7465
 2667TIP3   OH232195   4.533   1.409  16.773 -0.6618  0.2261  0.1995
 2667TIP3    H132196   4.526   1.314  16.767  1.5748 -0.1043  1.4992
 2667TIP3    H232197   4.502   1.430  16.861  0.7275  0.4031  0.6758
 2668TIP3   OH232198   2.562   5.520  17.159 -0.1671 -0.1355  0.4018
 2668TIP3    H132199   2.580   5.550  17.248 -0.7706 -0.4038  0.6217
 2668TIP3    H232200   2.645   5.528  17.113  0.0941  0.2146  0.9327
 2669TIP3   OH232201   3.390   3.456  16.992  0.0865 -0.7774  0.0244
 2669TIP3    H132202   3.406   3.392  17.061 -1.5126 -0.1175  1.0645
 2669TIP3    H232203   3.397   3.541  17.036 -0.1817 -0.3229 -0.7929
 2670TIP3   OH232204   2.079   4.388  13.848  0.0112  0.0179 -0.5709
 2670TIP3    H132205   2.166   4.379  13.808 -0.0847 -0.4947 -0.6662
 2670TIP3    H232206   2.096   4.387  13.942 -0.0493 -2.0210 -0.5341
 2671TIP3   OH232207   0.519   3.427  15.739 -0.0776 -0.2229  0.3663
 2671TIP3    H132208   0.519   3.522  15.748 -0.7966  0.1881 -2.7934
 2671TIP3    H232209   0.443   3.398  15.788 -0.4839  0.9469  0.4557
 2672TIP3   OH232210   1.575   5.085  15.937 -0.3608 -0.3900 -0.0589
 2672TIP3    H132211   1.594   4.995  15.963 -2.1101 -0.1511  2.4567
 2672TIP3    H232212   1.503   5.077  15.874  1.1426 -0.7963 -1.8094
 2673TIP3   OH232213   5.073   4.796  14.332  0.5376  0.4759 -0.3080
 2673TIP3    H132214   5.096   4.761  14.246 -0.6862  2.2286 -1.3937
 2673TIP3    H232215   4.978   4.802  14.331  0.2369 -1.6832  2.1140
 2674TIP3   OH232216   3.482   3.172  16.447 -0.3710  0.4026  0.3471
 2674TIP3    H132217   3.440   3.246  16.492  0.1693 -0.1493  1.8440
 2674TIP3    H232218   3.517   3.118  16.518  3.9836  1.4298 -0.7151
 2675TIP3   OH232219   3.864   0.532  17.210 -0.7852 -0.1834 -0.1164
 2675TIP3    H132220   3.886   0.560  17.121  0.3208 -2.7251 -0.7580
 2675TIP3    H232221   3.790   0.473  17.199 -1.6801  0.7335  0.8733
 2676TIP3   OH232222   3.018   5.940  15.639 -0.0211  0.0731  0.1779
 2676TIP3    H132223   2.953   6.004  15.669  0.1008 -0.0111  0.6300
 2676TIP3    H232224   3.034   5.884  15.715 -0.7398 -1.0247 -0.4509
 2677TIP3   OH232225   5.122   5.788  15.660  0.0409 -0.1463  0.3219
 2677TIP3    H132226   5.078   5.761  15.741 -2.4205  1.8913 -0.1847
 2677TIP3    H232227   5.055   5.780  15.593  2.0508 -1.8726 -1.6219
 2678TIP3   OH232228   1.111   0.777  14.480  0.5488  0.1774 -0.3012
 2678TIP3    H132229   1.147   0.856  14.438 -0.2316  0.4405 -0.4955
 2678TIP3    H232230   1.032   0.758  14.430 -0.2868  0.3654  0.9075
 2679TIP3   OH232231   0.327   5.747  14.265  0.1990 -0.8330  0.3431
 2679TIP3    H132232   0.235   5.770  14.279  0.4796 -0.6565  2.0702
 2679TIP3    H232233   0.366   5.826  14.226  0.2146  0.1766  2.2759
 2680TIP3   OH232234   0.476   1.538  14.370 -0.4295  0.0967  0.8067
 2680TIP3    H132235   0.407   1.554  14.435  0.2284  0.2065  1.4888
 2680TIP3    H232236   0.434   1.483  14.304 -0.8799 -0.7268  1.7472
 2681TIP3   OH232237   4.495   5.073  17.122 -0.4418  0.0045 -0.1221
 2681TIP3    H132238   4.453   5.087  17.037  0.8763  3.9386 -0.3458
 2681TIP3    H232239   4.424   5.083  17.186 -1.5352 -3.4443 -0.5824
 2682TIP3   OH232240   0.757   4.561  15.851 -0.4152 -0.1464 -0.1895
 2682TIP3    H132241   0.755   4.635  15.911  0.4782 -0.4571  0.2408
 2682TIP3    H232242   0.812   4.496  15.895 -1.5394 -1.2585 -0.3356
 2683TIP3   OH232243   1.370   6.184  16.363 -0.2707  0.0302  0.4446
 2683TIP3    H132244   1.430   6.174  16.436  0.2999 -1.5561 -0.2089
 2683TIP3    H232245   1.363   6.097  16.325 -2.0014  0.4377 -0.2746
 2684TIP3   OH232246   1.437   0.556  14.147 -0.0118 -0.6748 -0.1693
 2684TIP3    H132247   1.371   0.554  14.078 -0.6136  0.1512  0.3586
 2684TIP3    H232248   1.506   0.612  14.111 -0.9453  0.9258  0.3854
 2685TIP3   OH232249   6.366   2.759  16.225  0.0811  0.6080  0.3675
 2685TIP3    H132250   6.444   2.740  16.278  1.2158  1.9196 -0.7424
 2685TIP3    H232251   6.305   2.801  16.285  0.5980  0.3855  1.0531
 2686TIP3   OH232252   4.432   6.075  15.479  0.0498 -0.8531 -0.5206
 2686TIP3    H132253   4.511   6.123  15.505  1.0308 -1.5936 -1.9722
 2686TIP3    H232254   4.421   6.009  15.548 -0.8112  0.8143  1.0299
 2687TIP3   OH232255   3.253   4.479  16.489  0.5008 -0.2670  0.3817
 2687TIP3    H132256   3.314   4.446  16.423 -0.0483 -0.1054 -0.2160
 2687TIP3    H232257   3.197   4.540  16.441  0.3976  0.2199  1.1056
 2688TIP3   OH232258   2.578   5.485  16.739  0.1028  0.5379 -0.3609
 2688TIP3    H132259   2.643   5.427  16.780  0.8458  1.2179 -0.5528
 2688TIP3    H232260   2.494   5.453  16.772  0.6485  0.8451  1.4392
 2689TIP3   OH232261   4.460   2.111  16.996  0.1499  0.4786 -0.0026
 2689TIP3    H132262   4.414   2.036  17.033  0.5911 -0.2238 -0.8684
 2689TIP3    H232263   4.404   2.186  17.017 -1.1584 -0.2960 -0.6080
 2690TIP3   OH232264   4.083   1.415  14.908 -0.3294 -0.3085 -0.0869
 2690TIP3    H132265   4.051   1.492  14.956  1.3690  2.0190 -2.3892
 2690TIP3    H232266   4.119   1.357  14.976 -2.7176  0.3123  1.8407
 2691TIP3   OH232267   3.789   1.537  14.836  0.1660  0.0667 -0.3597
 2691TIP3    H132268   3.815   1.519  14.926  1.4370 -0.4904 -0.8053
 2691TIP3    H232269   3.779   1.450  14.796 -3.3773  0.1815 -0.0236
 2692TIP3   OH232270   3.989   0.264  15.354  0.0738 -0.0870 -0.0662
 2692TIP3    H132271   3.894   0.253  15.347 -0.1393 -0.3541  2.4200
 2692TIP3    H232272   4.018   0.188  15.404  1.5384  0.2143 -0.4288
 2693TIP3   OH232273   0.316   4.941  16.120  0.0822 -0.3657 -0.1551
 2693TIP3    H132274   0.371   4.862  16.126  1.3005  0.4635  0.1758
 2693TIP3    H232275   0.275   4.948  16.206 -1.2012 -1.4269 -0.6607
 2694TIP3   OH232276   3.166   0.625  16.065 -0.1634 -0.5062  0.2538
 2694TIP3    H132277   3.222   0.604  16.140  0.6226  0.4135 -0.0523
 2694TIP3    H232278   3.210   0.699  16.023 -1.6040  0.2230 -0.0198
 2695TIP3   OH232279   6.575   2.250  15.447  0.2444 -0.2702  0.1956
 2695TIP3    H132280   6.538   2.167  15.478  2.5692 -1.3179  0.4503
 2695TIP3    H232281   6.601   2.232  15.357 -2.3951  1.3673 -1.0088
 2696TIP3   OH232282   5.187   0.299  15.712 -0.3792 -0.4320 -0.3009
 2696TIP3    H132283   5.154   0.243  15.782 -0.7116 -0.3963 -0.4267
 2696TIP3    H232284   5.114   0.357  15.691 -0.3402 -0.5502 -0.7876
 2697TIP3   OH232285   1.290   5.143  15.398 -0.2666 -0.2670 -0.7396
 2697TIP3    H132286   1.356   5.176  15.459  1.2493 -1.1552 -1.8113
 2697TIP3    H232287   1.238   5.082  15.450  1.0164 -1.0347 -0.3163
 2698TIP3   OH232288   3.764   3.116  15.802  0.0200  0.1463  0.2198
 2698TIP3    H132289   3.807   3.067  15.731  1.3939 -0.4040  1.4013
 2698TIP3    H232290   3.800   3.080  15.882  0.1195  2.2365  1.1866
 2699TIP3   OH232291   5.628   3.898  15.625  0.7373  0.1611 -0.5085
 2699TIP3    H132292   5.638   3.832  15.556 -0.2171  0.5839 -1.0804
 2699TIP3    H232293   5.538   3.930  15.615  0.1434 -0.6365  1.7350
 2700TIP3   OH232294   6.733   5.218  15.481  0.1502 -0.0355  0.3916
 2700TIP3    H132295   6.771   5.245  15.565 -0.2302 -0.4670  0.7081
 2700TIP3    H232296   6.706   5.127  15.495 -1.0812  0.2855  0.2128
 2701TIP3   OH232297   5.343   1.498  16.114  0.4593 -0.6835  0.1281
 2701TIP3    H132298   5.311   1.415  16.078 -0.4276  0.9768 -3.3537
 2701TIP3    H232299   5.419   1.519  16.060  0.8957  0.6066  1.2029
 2702TIP3   OH232300   6.099   3.195  14.253  0.1304 -0.7657 -0.2619
 2702TIP3    H132301   6.034   3.130  14.277 -0.6976  0.6158  1.4150
 2702TIP3    H232302   6.063   3.237  14.175 -1.1516  0.1309  0.7711
 2703TIP3   OH232303   1.913   1.466  15.554 -0.1845 -0.6873 -0.2092
 2703TIP3    H132304   1.990   1.523  15.550 -0.5552 -0.2389 -2.2884
 2703TIP3    H232305   1.945   1.380  15.531 -0.3463 -0.4054 -1.5711
 2704TIP3   OH232306   2.162   3.106  14.345  0.6385  0.3302 -0.8758
 2704TIP3    H132307   2.174   3.022  14.301 -0.3772 -0.7873  0.8820
 2704TIP3    H232308   2.068   3.110  14.362  0.7837  1.4891 -0.2716
 2705TIP3   OH232309   5.639   2.726  15.377 -0.2223 -0.0142  0.3250
 2705TIP3    H132310   5.632   2.648  15.431 -0.3335 -0.7634 -0.7314
 2705TIP3    H232311   5.569   2.783  15.409 -0.6883 -0.6974  0.5624
 2706TIP3   OH232312   4.951   3.869  15.727 -0.4178  0.1473  0.0365
 2706TIP3    H132313   5.014   3.854  15.798 -0.1357 -0.3340 -0.3102
 2706TIP3    H232314   4.886   3.801  15.739 -0.4675  0.1790 -0.0573
 2707TIP3   OH232315   5.066   4.270  15.267  0.2619 -0.2117 -0.0369
 2707TIP3    H132316   5.076   4.224  15.184  0.7767  0.2274 -0.2212
 2707TIP3    H232317   4.982   4.315  15.260  0.3401 -0.1133 -0.3566
 2708TIP3   OH232318   2.763   3.440  16.294 -0.6828 -0.1086  0.0801
 2708TIP3    H132319   2.685   3.440  16.238 -0.8783 -1.2065  0.3213
 2708TIP3    H232320   2.732   3.468  16.380 -0.9091 -0.9697  0.2858
 2709TIP3   OH232321   6.605   0.501  16.956 -0.1452  0.0303 -0.4585
 2709TIP3    H132322   6.548   0.452  17.015 -1.8495  1.9214 -0.4140
 2709TIP3    H232323   6.545   0.541  16.893  1.0360  2.5307 -0.1250
 2710TIP3   OH232324   1.657   4.063  15.449  0.7747 -0.6371 -0.0958
 2710TIP3    H132325   1.733   4.080  15.394  0.3159  0.5430 -0.4031
 2710TIP3    H232326   1.653   4.139  15.507 -1.2380  0.2826 -1.3434
 2711TIP3   OH232327   1.664   5.330  14.865  0.3019  0.3195  0.1148
 2711TIP3    H132328   1.613   5.254  14.893 -0.6097  0.7841 -0.2608
 2711TIP3    H232329   1.702   5.303  14.781 -0.1170  0.3169 -0.0777
 2712TIP3   OH232330   6.222   2.753  15.076  0.3453  0.8488  0.0581
 2712TIP3    H132331   6.171   2.738  14.997  1.1126  0.5469 -0.3876
 2712TIP3    H232332   6.307   2.782  15.044  0.0908  2.5461  0.8102
 2713TIP3   OH232333   1.079   4.709  15.547  0.2591  0.5718 -0.0094
 2713TIP3    H132334   1.140   4.768  15.502 -0.2385  0.5848 -0.6768
 2713TIP3    H232335   1.080   4.629  15.494  0.7856  0.0360  0.7825
 2714TIP3   OH232336   3.186   0.702  13.792  0.9635 -0.0386  0.6344
 2714TIP3    H132337   3.137   0.784  13.803 -1.6074 -1.4006  0.1531
 2714TIP3    H232338   3.218   0.704  13.702 -0.7900 -0.3452 -0.0418
 2715TIP3   OH232339   4.505   6.170  15.031  0.5596 -0.0551 -0.1338
 2715TIP3    H132340   4.545   6.083  15.031 -1.6516 -1.1349 -0.3500
 2715TIP3    H232341   4.418   6.156  15.069 -0.3097  1.8405 -1.3117
 2716TIP3   OH232342   3.622   4.368  13.676  0.5859  0.3974 -0.2010
 2716TIP3    H132343   3.533   4.404  13.680  0.7587  0.7820  0.2817
 2716TIP3    H232344   3.677   4.443  13.656  0.9308  0.3864  0.6637
 2717TIP3   OH232345   0.733   4.514  16.272 -0.0680 -0.4782  0.2143
 2717TIP3    H132346   0.802   4.570  16.309 -0.2020 -0.6116  0.6653
 2717TIP3    H232347   0.703   4.563  16.195 -0.8553  0.5498  1.1502
 2718TIP3   OH232348   0.434   2.826  14.697 -0.7038  0.0567  0.8611
 2718TIP3    H132349   0.453   2.918  14.714 -1.6544 -0.0068  2.4968
 2718TIP3    H232350   0.384   2.797  14.773 -0.0217 -1.9566  0.6052
 2719TIP3   OH232351   2.186   0.332  14.521  0.4856 -0.4911  0.0560
 2719TIP3    H132352   2.096   0.331  14.552 -0.4337  0.2716 -2.3262
 2719TIP3    H232353   2.200   0.243  14.487  1.3725 -1.2226  2.2060
 2720TIP3   OH232354   5.515   0.847  16.567 -0.0795 -0.6847 -0.3112
 2720TIP3    H132355   5.430   0.820  16.603  0.7661 -3.4588 -0.1303
 2720TIP3    H232356   5.574   0.846  16.643  0.4269 -0.3465 -0.6948
 2721TIP3   OH232357   3.201   2.852  13.811  0.4677  0.1238  0.8326
 2721TIP3    H132358   3.138   2.780  13.809  0.4349  0.1434 -0.9955
 2721TIP3    H232359   3.150   2.927  13.843  0.0676 -0.2860  1.1775
 2722TIP3   OH232360   1.360   1.216  16.300  0.2698  0.4985  0.4251
 2722TIP3    H132361   1.311   1.225  16.219  2.2465 -0.0476 -0.9132
 2722TIP3    H232362   1.363   1.121  16.316  0.6775  0.5402  0.6156
 2723TIP3   OH232363   3.132   0.688  15.092 -0.3206 -0.5326 -0.2001
 2723TIP3    H132364   3.154   0.642  15.173  1.2474  1.4494  0.5640
 2723TIP3    H232365   3.210   0.677  15.037  0.2429  1.4081  0.1368
 2724TIP3   OH232366   5.101   3.296  16.917  0.7935  0.2231 -0.1794
 2724TIP3    H132367   5.179   3.245  16.939  1.1776  1.3232  1.1159
 2724TIP3    H232368   5.078   3.268  16.829  1.3615 -1.7116  0.2529
 2725TIP3   OH232369   1.931   5.002  16.132  0.5063  0.1588  0.8808
 2725TIP3    H132370   1.926   4.924  16.076 -0.2677 -0.4496  1.7707
 2725TIP3    H232371   1.939   4.967  16.221  1.3649  1.1093  1.1934
 2726TIP3   OH232372   4.234   3.040  16.963  0.0606  0.5771 -0.2402
 2726TIP3    H132373   4.252   2.948  16.947  1.4371  0.4538  1.7491
 2726TIP3    H232374   4.151   3.041  17.010  1.0128  0.1468  1.5263
 2727TIP3   OH232375   2.854   0.395  15.343 -0.7440  0.1589 -0.0715
 2727TIP3    H132376   2.906   0.342  15.282 -0.2351 -1.4990  1.6915
 2727TIP3    H232377   2.846   0.480  15.300  1.0906 -0.3853 -1.6543
 2728TIP3   OH232378   1.561   3.158  13.771 -0.0227 -0.7982 -0.2870
 2728TIP3    H132379   1.634   3.201  13.726 -0.4209 -0.7955 -0.9445
 2728TIP3    H232380   1.536   3.220  13.840 -0.8837  0.2664 -1.5005
 2729TIP3   OH232381   4.196   1.149  16.712  0.1010 -0.0561  0.1267
 2729TIP3    H132382   4.254   1.135  16.637 -0.9090 -0.0370 -0.6823
 2729TIP3    H232383   4.255   1.165  16.785  1.1260 -0.5395 -0.5648
 2730TIP3   OH232384   4.016   1.930  13.455  0.7151  0.6897  0.8161
 2730TIP3    H132385   4.020   1.881  13.373 -0.1071  3.1469 -0.8205
 2730TIP3    H232386   4.097   1.909  13.500  0.2760 -2.3546  0.4283
 2731TIP3   OH232387   0.512   3.753  15.765  0.3326  0.3416 -0.4814
 2731TIP3    H132388   0.553   3.758  15.679 -1.1902  0.0743 -1.2629
 2731TIP3    H232389   0.418   3.747  15.746 -0.0492  0.5311  1.2084
 2732TIP3   OH232390   3.125   1.224  14.657  0.2727  0.4909 -0.3730
 2732TIP3    H132391   3.085   1.264  14.580 -0.2576  0.8642  0.0910
 2732TIP3    H232392   3.217   1.212  14.632 -0.3485 -1.5410 -1.9067
 2733TIP3   OH232393   1.502   3.442  15.974 -0.6664  0.5590  0.3201
 2733TIP3    H132394   1.513   3.526  16.019  0.5080  0.5560  0.0636
 2733TIP3    H232395   1.445   3.463  15.900  2.1469  1.9090 -1.6508
 2734TIP3   OH232396   0.881   2.037  15.979 -0.1347  0.2364  0.5066
 2734TIP3    H132397   0.858   2.103  16.045  1.2112  2.1635 -0.8548
 2734TIP3    H232398   0.974   2.051  15.962  0.4939 -2.8402  0.9792
 2735TIP3   OH232399   1.831   6.053  15.715 -0.4446 -0.0632  0.6820
 2735TIP3    H132400   1.772   5.983  15.743 -1.9662  0.7680 -0.2461
 2735TIP3    H232401   1.917   6.012  15.708 -1.3221 -1.8780  0.0166
 2736TIP3   OH232402   1.406   6.674  16.226 -0.0904 -0.7031  0.1173
 2736TIP3    H132403   1.425   6.682  16.320 -0.0867  0.2688  0.0413
 2736TIP3    H232404   1.451   6.749  16.186 -0.0186 -1.1578 -0.6786
 2737TIP3   OH232405   1.039   6.084  14.983  0.0379 -0.2655  0.2312
 2737TIP3    H132406   0.986   6.039  14.917 -1.2501 -0.7890  1.5599
 2737TIP3    H232407   0.992   6.068  15.065 -1.1879  4.4188  0.7010
 2738TIP3   OH232408   2.640   5.676  14.461 -0.7041  0.1012  0.0917
 2738TIP3    H132409   2.613   5.631  14.381  0.8394 -0.3861 -0.1779
 2738TIP3    H232410   2.699   5.615  14.505 -0.8614  0.7081  1.1899
 2739TIP3   OH232411   3.084   5.494  16.420  0.1738 -0.5984 -0.3418
 2739TIP3    H132412   3.158   5.434  16.408 -0.2775 -0.9276 -1.6498
 2739TIP3    H232413   3.082   5.546  16.339 -1.3324 -0.9427 -0.5534
 2740TIP3   OH232414   2.081   0.480  15.536 -0.0194  0.1001 -0.0373
 2740TIP3    H132415   2.013   0.420  15.568  0.8947 -0.3579  1.1064
 2740TIP3    H232416   2.085   0.548  15.603  1.7676 -0.7483  0.7700
 2741TIP3   OH232417   5.796   3.641  16.030  0.4376 -0.1286 -0.4243
 2741TIP3    H132418   5.758   3.583  15.964 -0.1940  1.3868 -1.4402
 2741TIP3    H232419   5.782   3.729  15.996  0.0667  0.7184  1.7550
 2742TIP3   OH232420   2.295   3.236  15.870 -0.0273 -0.1958  0.1614
 2742TIP3    H132421   2.263   3.262  15.784  0.8543  1.6131  0.3431
 2742TIP3    H232422   2.262   3.303  15.930  0.9102 -0.3968  0.9280
 2743TIP3   OH232423   1.508   2.998  14.905  0.2410 -0.1279  0.0607
 2743TIP3    H132424   1.546   3.020  14.820  1.2547  0.3070  0.6150
 2743TIP3    H232425   1.515   2.902  14.910  0.2341 -0.1500 -0.3149
 2744TIP3   OH232426   1.183   1.214  16.771  0.0618  0.4088  0.7181
 2744TIP3    H132427   1.099   1.238  16.811  0.5854  2.4187  0.7390
 2744TIP3    H232428   1.170   1.228  16.678  0.3051  0.5022  0.6980
 2745TIP3   OH232429   0.801   4.648  16.577 -0.0135 -0.0405 -0.3402
 2745TIP3    H132430   0.796   4.706  16.654 -0.4401 -0.4679 -0.0368
 2745TIP3    H232431   0.734   4.682  16.518 -0.7674 -0.6360  0.1401
 2746TIP3   OH232432   1.466   4.910  14.756 -0.3484  0.2481  0.4130
 2746TIP3    H132433   1.457   4.982  14.693 -0.6560 -0.7546 -0.7113
 2746TIP3    H232434   1.376   4.890  14.782 -0.3240 -0.2091  0.1569
 2747TIP3   OH232435   4.362   6.025  13.946 -0.4315  0.0056  0.2423
 2747TIP3    H132436   4.451   5.990  13.941 -0.5693 -0.4690  0.9799
 2747TIP3    H232437   4.306   5.947  13.951 -0.6536  0.2326  3.4561
 2748TIP3   OH232438   5.669   0.485  15.650 -0.2734 -0.3789  0.1405
 2748TIP3    H132439   5.621   0.557  15.690  1.5556 -0.6589  3.1663
 2748TIP3    H232440   5.677   0.509  15.558 -3.0811  1.3102  0.2449
 2749TIP3   OH232441   4.825   2.369  17.098  0.6099 -0.2928 -0.0483
 2749TIP3    H132442   4.886   2.394  17.029  0.1173 -1.8465 -1.1135
 2749TIP3    H232443   4.881   2.338  17.169  1.0932 -0.0054 -0.2972
 2750TIP3   OH232444   3.270   5.096  16.259  0.3762  0.1765  0.2829
 2750TIP3    H132445   3.192   5.055  16.296  1.9564 -4.4098 -0.7125
 2750TIP3    H232446   3.252   5.103  16.165  0.5324  0.8670  0.2955
 2751TIP3   OH232447   1.821   2.916  15.249  0.2793  0.4768  0.2084
 2751TIP3    H132448   1.780   2.969  15.181 -1.7251 -0.5923  0.5256
 2751TIP3    H232449   1.832   2.830  15.210 -1.1891 -0.2330  1.3141
 2752TIP3   OH232450   2.675   5.633  17.403  0.2843  0.5971  0.0141
 2752TIP3    H132451   2.735   5.704  17.381 -0.6212  0.7969 -2.0528
 2752TIP3    H232452   2.611   5.673  17.461  0.7084  1.0394  0.1841
 2753TIP3   OH232453   3.346   6.478  16.018  0.6853  0.4086  0.0542
 2753TIP3    H132454   3.282   6.440  16.078 -1.0637  2.9017 -0.0744
 2753TIP3    H232455   3.424   6.424  16.029 -0.6765 -1.3335  1.9717
 2754TIP3   OH232456   0.883   3.109  16.283  0.0058 -0.2014 -0.2807
 2754TIP3    H132457   0.917   3.021  16.265  2.1788 -0.1682  2.8430
 2754TIP3    H232458   0.929   3.165  16.220  2.7976 -0.7325  1.1196
 2755TIP3   OH232459   1.146   4.292  16.871 -0.6287  0.2532  0.0315
 2755TIP3    H132460   1.183   4.234  16.937 -3.0658 -1.9100 -0.3547
 2755TIP3    H232461   1.199   4.277  16.793  0.5364  0.7663  0.6894
 2756TIP3   OH232462   6.165   4.172  15.318 -0.0077 -0.6326  0.6780
 2756TIP3    H132463   6.109   4.141  15.247  0.5599 -2.1223  0.8455
 2756TIP3    H232464   6.253   4.142  15.294  0.8074  1.8708  0.3026
 2757TIP3   OH232465   2.516   1.387  15.612 -0.0833 -0.2665 -0.1390
 2757TIP3    H132466   2.611   1.390  15.610 -0.0864  0.3762  0.3490
 2757TIP3    H232467   2.494   1.297  15.634  0.3597 -1.0523 -2.6119
 2758TIP3   OH232468   3.194   0.998  15.042 -0.6736 -0.5839  0.4305
 2758TIP3    H132469   3.235   0.951  14.969  1.3665  1.8087 -0.0985
 2758TIP3    H232470   3.163   1.079  15.003 -1.2513 -0.0713  1.9038
 2759TIP3   OH232471   2.396   4.206  14.667 -0.0807 -0.1411  0.4786
 2759TIP3    H132472   2.340   4.205  14.744  0.3456 -1.1580  0.7946
 2759TIP3    H232473   2.485   4.216  14.702  0.1136 -0.5901  0.1303
 2760TIP3   OH232474   2.040   3.236  16.613 -0.0727 -0.0047  0.3257
 2760TIP3    H132475   2.118   3.291  16.610  1.4158 -1.8829  1.5957
 2760TIP3    H232476   2.023   3.212  16.522  0.8697  0.3985  0.0347
 2761TIP3   OH232477   0.375   6.058  16.013 -0.4769 -0.0468 -0.4948
 2761TIP3    H132478   0.344   6.016  15.933 -0.7962 -0.1993 -0.2935
 2761TIP3    H232479   0.449   6.004  16.041  1.6417  1.7005 -2.3249
 2762TIP3   OH232480   3.243   0.693  14.657 -0.2238 -0.2084  0.5001
 2762TIP3    H132481   3.197   0.624  14.706  0.6310 -0.9469  0.2876
 2762TIP3    H232482   3.287   0.647  14.586  0.2685  0.5788  0.2801
 2763TIP3   OH232483   1.795   5.084  15.109  0.2422  0.1916 -0.7863
 2763TIP3    H132484   1.788   5.044  15.022  1.0888  0.6713 -1.0859
 2763TIP3    H232485   1.848   5.162  15.095  2.1028 -0.7685  0.5106
 2764TIP3   OH232486   3.154   3.329  15.087  0.4232 -0.1155 -0.2006
 2764TIP3    H132487   3.221   3.378  15.135  0.1498 -0.9739  1.1131
 2764TIP3    H232488   3.166   3.238  15.114 -0.2123 -0.5261 -1.2280
 2765TIP3   OH232489   6.493   1.648  14.999 -0.1460 -0.1105  0.2942
 2765TIP3    H132490   6.404   1.615  15.013  0.0501 -0.6596  0.2669
 2765TIP3    H232491   6.536   1.581  14.946  0.2570  0.1987  0.2224
 2766TIP3   OH232492   2.529   0.518  15.272  0.2352  0.8275  0.2567
 2766TIP3    H132493   2.555   0.462  15.200 -2.8677  0.3076 -0.5733
 2766TIP3    H232494   2.454   0.474  15.312 -0.1654  2.7080  1.7403
 2767TIP3   OH232495   0.474   2.248  15.575 -0.0569  0.1816 -0.2095
 2767TIP3    H132496   0.429   2.182  15.522  0.6834  0.6484 -1.4627
 2767TIP3    H232497   0.567   2.236  15.555  0.1440  1.1051  0.1374
 2768TIP3   OH232498   2.077   2.006  16.333  0.4105 -0.0850  0.4811
 2768TIP3    H132499   2.092   2.098  16.354 -1.8814  1.2808 -2.9929
 2768TIP3    H232500   2.114   1.995  16.245  0.1024 -2.3539  0.5776
 2769TIP3   OH232501   1.333   4.540  15.315  0.2451  0.0951  0.1853
 2769TIP3    H132502   1.324   4.633  15.333 -1.3680 -0.4024  2.3512
 2769TIP3    H232503   1.312   4.532  15.222 -1.0829  1.7361  0.2898
 2770TIP3   OH232504   5.549   3.993  15.356 -0.6122  0.4976 -0.9592
 2770TIP3    H132505   5.588   3.906  15.369  0.8133  1.4128  1.4354
 2770TIP3    H232506   5.593   4.027  15.278  0.6826  0.0326 -0.4595
 2771TIP3   OH232507   3.247   0.910  16.939  0.0660 -0.3833  0.8112
 2771TIP3    H132508   3.151   0.912  16.941 -0.0927 -2.3568 -1.0462
 2771TIP3    H232509   3.273   0.893  17.029 -1.3509 -0.4445  1.2267
 2772TIP3   OH232510   0.829   6.386  14.934  0.2167 -0.4667 -0.3467
 2772TIP3    H132511   0.853   6.407  15.024 -0.7357  2.3582 -0.6508
 2772TIP3    H232512   0.775   6.307  14.941 -0.3661  0.0650  1.6098
 2773TIP3   OH232513   5.334   6.734  14.611  0.4279 -0.0072 -0.1252
 2773TIP3    H132514   5.337   6.804  14.547 -1.0090  0.0893 -0.1121
 2773TIP3    H232515   5.390   6.764  14.683 -0.0984  1.0761 -0.1626
 2774TIP3   OH232516   0.842   1.110  14.348  0.5632  0.5624  0.0072
 2774TIP3    H132517   0.917   1.114  14.288  0.6368  0.8193  0.1118
 2774TIP3    H232518   0.843   1.021  14.381 -1.0509 -0.3971 -2.3445
 2775TIP3   OH232519   4.368   1.863  17.016  0.0922  0.1694 -0.0347
 2775TIP3    H132520   4.390   1.776  17.046 -0.2013  0.6581  1.6941
 2775TIP3    H232521   4.284   1.852  16.970 -0.7132 -0.2615  1.4671
 2776TIP3   OH232522   5.170   4.131  13.728  0.3071 -0.2284  0.2114
 2776TIP3    H132523   5.241   4.190  13.702  0.8173 -0.4112  1.1470
 2776TIP3    H232524   5.174   4.060  13.663  0.8089 -0.1013  0.0949
 2777TIP3   OH232525   6.744   5.664  14.765 -0.2675  0.2039 -0.6548
 2777TIP3    H132526   6.836   5.686  14.782 -0.2624  0.5157 -1.0507
 2777TIP3    H232527   6.695   5.725  14.820 -0.2399 -1.0214  0.7787
 2778TIP3   OH232528   4.675   3.588  13.908  0.2927  0.2215  0.1933
 2778TIP3    H132529   4.591   3.588  13.862  0.7006  0.4686 -0.5662
 2778TIP3    H232530   4.683   3.678  13.942  0.5276  0.3777 -0.2651
 2779TIP3   OH232531   3.818   4.583  15.929 -0.2331  0.0272  0.1905
 2779TIP3    H132532   3.835   4.603  16.022  1.6990  1.9618 -0.4970
 2779TIP3    H232533   3.777   4.663  15.896 -2.5684 -1.2907 -0.2961
 2780TIP3   OH232534   2.298   1.868  14.440 -0.3956  0.1371 -0.4237
 2780TIP3    H132535   2.241   1.879  14.516 -0.7137 -0.9016 -0.4955
 2780TIP3    H232536   2.248   1.901  14.366  0.5380  2.7166  0.0008
 2781TIP3   OH232537   0.293   0.942  16.777 -0.2030 -0.6650 -0.2561
 2781TIP3    H132538   0.268   1.030  16.803  1.0117 -0.6195  0.8367
 2781TIP3    H232539   0.357   0.955  16.706  0.6476 -0.6231  0.5037
 2782TIP3   OH232540   5.107   4.715  16.262 -0.0729 -0.9375  0.8904
 2782TIP3    H132541   5.093   4.773  16.336  1.9265 -0.3221  0.8460
 2782TIP3    H232542   5.139   4.772  16.192  0.2404 -1.8309  0.2815
 2783TIP3   OH232543   1.273   2.132  16.616 -0.5606 -0.3686  0.4013
 2783TIP3    H132544   1.248   2.086  16.536 -1.6441  1.7545 -0.5712
 2783TIP3    H232545   1.236   2.081  16.687 -2.2897 -0.6724 -0.6645
 2784TIP3   OH232546   1.072   2.795  15.605 -0.1557  0.3254  0.3164
 2784TIP3    H132547   1.033   2.881  15.618  0.4300  0.3875  2.0329
 2784TIP3    H232548   1.155   2.812  15.560 -1.2097  0.3723 -1.6714
 2785TIP3   OH232549   1.253   1.963  13.527  0.2387  0.5047 -0.3641
 2785TIP3    H132550   1.281   2.019  13.599 -0.3212 -0.5593  0.7209
 2785TIP3    H232551   1.181   2.010  13.486  0.3946  1.0116 -0.0662
 2786TIP3   OH232552   2.368   6.724  13.855 -0.0950 -0.3277 -0.1459
 2786TIP3    H132553   2.423   6.791  13.895 -1.7605  0.4271  0.9670
 2786TIP3    H232554   2.279   6.757  13.863 -0.7417 -1.4150 -2.0890
 2787TIP3   OH232555   0.252   2.656  16.162  0.2645 -0.1754 -0.1445
 2787TIP3    H132556   0.339   2.692  16.146  0.6133 -0.4847  0.9816
 2787TIP3    H232557   0.241   2.589  16.095  0.6062  0.3367 -0.7214
 2788TIP3   OH232558   5.637   0.266  14.576 -0.0910  0.2188 -0.2606
 2788TIP3    H132559   5.706   0.319  14.535  0.7159 -1.0895 -0.6544
 2788TIP3    H232560   5.640   0.292  14.668  0.0678  1.0902 -0.5005
 2789TIP3   OH232561   0.834   2.185  14.609  0.0263 -0.0173 -0.0804
 2789TIP3    H132562   0.868   2.135  14.683 -0.0787  2.1734  1.5836
 2789TIP3    H232563   0.897   2.257  14.598 -0.4709  0.2287 -1.5153
 2790TIP3   OH232564   3.541   4.385  14.566  0.4115 -0.9236 -0.0727
 2790TIP3    H132565   3.555   4.480  14.564 -0.5576 -0.7486  0.7652
 2790TIP3    H232566   3.608   4.350  14.507 -0.2456  0.4072 -1.7064
 2791TIP3   OH232567   3.828   2.638  15.461 -0.1388 -0.2349 -0.1427
 2791TIP3    H132568   3.804   2.724  15.496 -0.7172 -0.6473  0.4890
 2791TIP3    H232569   3.785   2.575  15.519 -0.3012 -0.9470 -1.0087
 2792TIP3   OH232570   1.993   0.044  16.794  0.3666 -0.4634  0.2140
 2792TIP3    H132571   2.027  -0.031  16.843 -2.9243 -1.5877  1.0281
 2792TIP3    H232572   1.985   0.013  16.704  1.6742 -0.0924 -0.0439
 2793TIP3   OH232573   0.697   4.024  15.728  0.0945  0.9618  0.5213
 2793TIP3    H132574   0.740   3.949  15.771  0.1646  0.9239  0.3842
 2793TIP3    H232575   0.662   3.988  15.647  0.9747  1.2885 -0.0252
 2794TIP3   OH232576   4.987   2.464  16.872  0.0418 -0.1295  0.0149
 2794TIP3    H132577   4.967   2.557  16.883  0.6247 -0.0460  0.4751
 2794TIP3    H232578   4.962   2.444  16.782  0.1341  0.5357 -0.1643
 2795TIP3   OH232579   3.057   0.548  16.913 -0.4410  0.4150  0.1819
 2795TIP3    H132580   2.996   0.568  16.984  1.0138 -0.3079  1.7048
 2795TIP3    H232581   3.024   0.468  16.873  0.2489 -0.8144  1.9609
 2796TIP3   OH232582   4.597   1.940  15.343 -0.0025 -0.0284  0.5971
 2796TIP3    H132583   4.654   1.883  15.291 -1.0802  0.8491 -1.7044
 2796TIP3    H232584   4.612   2.027  15.306 -2.4384  0.2904  0.2187
 2797TIP3   OH232585   6.675   6.172  16.943  0.2456  0.6361 -0.4054
 2797TIP3    H132586   6.675   6.263  16.973 -1.9484  0.7413 -0.5661
 2797TIP3    H232587   6.655   6.121  17.022 -0.0916  0.4508 -0.6029
 2798TIP3   OH232588   4.831   4.288  15.109  0.4894 -0.3231 -0.0856
 2798TIP3    H132589   4.795   4.200  15.118 -0.8101  0.2359  0.4353
 2798TIP3    H232590   4.805   4.316  15.021  1.3458 -0.6467 -0.4463
 2799TIP3   OH232591   0.255   5.678  14.622  0.6677  0.3074  0.4781
 2799TIP3    H132592   0.345   5.672  14.589  0.1508  1.5727 -1.2348
 2799TIP3    H232593   0.214   5.597  14.593  0.2544  1.3424 -2.0170
 2800TIP3   OH232594   5.190   3.829  16.860 -0.3825 -0.1601  0.9709
 2800TIP3    H132595   5.186   3.738  16.831 -1.0404 -0.2919  1.4494
 2800TIP3    H232596   5.104   3.865  16.839 -0.0547  0.4180  0.5872
 2801TIP3   OH232597   1.288   1.596  14.945  0.0367  0.5794  0.7226
 2801TIP3    H132598   1.234   1.670  14.973 -3.0096 -1.2449  0.1863
 2801TIP3    H232599   1.371   1.608  14.991 -1.6809  2.2659  3.7107
 2802TIP3   OH232600   3.537   5.411  14.240  0.3569  0.1599  0.4743
 2802TIP3    H132601   3.578   5.492  14.269 -1.3099  1.0362  0.5178
 2802TIP3    H232602   3.580   5.391  14.157 -0.2463  1.9780 -0.3376
 2803TIP3   OH232603   2.236   5.897  15.877  0.2009  0.8804  0.7651
 2803TIP3    H132604   2.174   5.887  15.805  1.0098  1.0699  0.0298
 2803TIP3    H232605   2.184   5.938  15.946 -1.2579 -1.5196  1.2358
 2804TIP3   OH232606   1.397   2.822  16.884  0.2421  0.3230  0.3654
 2804TIP3    H132607   1.438   2.736  16.884  0.4502  0.4178  1.1751
 2804TIP3    H232608   1.466   2.882  16.859  0.5666  0.4550  1.5088
 2805TIP3   OH232609   3.743   6.671  15.400 -0.0680  0.5117 -0.0440
 2805TIP3    H132610   3.802   6.746  15.412  0.3032  0.1008  0.8061
 2805TIP3    H232611   3.766   6.636  15.314  0.9064  0.3862  0.2539
 2806TIP3   OH232612   6.210   3.112  14.697  0.2866  0.0858 -0.3036
 2806TIP3    H132613   6.167   3.049  14.754 -0.3412  0.8992  0.1392
 2806TIP3    H232614   6.227   3.063  14.616 -0.1870 -0.6453  0.0275
 2807TIP3   OH232615   5.286   4.661  14.139  0.2575 -0.6369  0.3197
 2807TIP3    H132616   5.299   4.660  14.234 -0.8885 -0.4455  0.5009
 2807TIP3    H232617   5.364   4.705  14.104 -1.1061  3.1563  1.5192
 2808TIP3   OH232618   6.320   2.052  15.253 -0.4375 -0.0828  0.4637
 2808TIP3    H132619   6.391   2.011  15.203  0.0263 -0.8008  1.6614
 2808TIP3    H232620   6.358   2.069  15.339 -1.1573  1.3085  0.5334
 2809TIP3   OH232621   1.214   1.613  15.337  0.3146  1.1334 -0.2918
 2809TIP3    H132622   1.210   1.703  15.368 -1.9352  0.5960  1.1875
 2809TIP3    H232623   1.193   1.560  15.414  1.9630 -0.7138 -1.0242
 2810TIP3   OH232624   1.870   2.042  15.353 -0.3273 -0.2035  0.3387
 2810TIP3    H132625   1.809   2.100  15.398 -1.0251 -0.4319 -0.2925
 2810TIP3    H232626   1.857   1.957  15.395  2.1611  0.4333  2.6987
 2811TIP3   OH232627   3.225   3.433  14.841  0.4651  0.8565  0.5300
 2811TIP3    H132628   3.228   3.386  14.925  1.4713  1.0134  0.5903
 2811TIP3    H232629   3.244   3.524  14.863 -0.9351  1.2217  0.3360
 2812TIP3   OH232630   5.819   5.867  14.489  0.8503  0.0049 -0.4094
 2812TIP3    H132631   5.889   5.905  14.542 -0.3573  1.1724  0.4317
 2812TIP3    H232632   5.813   5.776  14.519  0.2670  0.6099  1.4403
 2813TIP3   OH232633   4.465   1.121  16.410  0.5504 -0.2729 -0.2888
 2813TIP3    H132634   4.490   1.030  16.430 -1.4018 -0.5595  1.1116
 2813TIP3    H232635   4.381   1.113  16.365  0.3730  0.8571 -0.1689
 2814TIP3   OH232636   2.197   3.145  17.114  0.1109  0.2493 -0.2175
 2814TIP3    H132637   2.178   3.078  17.180  1.4831  1.1319  1.1473
 2814TIP3    H232638   2.124   3.139  17.052 -0.4433 -1.6359  0.5419
 2815TIP3   OH232639   2.795   1.246  13.930  0.2135 -0.3035 -0.1869
 2815TIP3    H132640   2.776   1.315  13.867  1.1902  0.0495 -0.1103
 2815TIP3    H232641   2.801   1.166  13.877 -1.4501 -0.4502 -0.2091
 2816TIP3   OH232642   4.710   3.218  13.718 -0.0992 -0.5815  0.3298
 2816TIP3    H132643   4.805   3.212  13.723  0.1378  0.6349 -1.5413
 2816TIP3    H232644   4.692   3.233  13.625 -2.1599 -1.2578  0.5718
 2817TIP3   OH232645   4.370   1.948  15.005  0.3143 -0.3673  0.3210
 2817TIP3    H132646   4.414   1.985  14.929 -1.4202 -0.3622 -0.7531
 2817TIP3    H232647   4.340   2.024  15.055 -0.5521 -0.3048 -0.2544
 2818TIP3   OH232648   4.556   2.352  17.152  0.1704  0.4281  0.1478
 2818TIP3    H132649   4.535   2.265  17.117 -0.6158  1.4396 -2.1023
 2818TIP3    H232650   4.651   2.359  17.143 -0.0214  0.7237 -2.1343
 2819TIP3   OH232651   5.835   2.636  14.291  0.0184  0.5885 -0.0040
 2819TIP3    H132652   5.830   2.541  14.291  1.0827  0.5220  0.5201
 2819TIP3    H232653   5.774   2.662  14.360  0.8687  0.1970  0.9205
 2820TIP3   OH232654   0.991   2.816  15.895 -0.2206  0.4996 -0.4294
 2820TIP3    H132655   0.987   2.783  15.806 -0.0379 -0.2347 -0.1665
 2820TIP3    H232656   0.953   2.904  15.889  0.9077  0.9344 -1.4439
 2821TIP3   OH232657   6.603   1.979  15.340 -0.2461  0.0628 -0.2918
 2821TIP3    H132658   6.677   1.926  15.370 -0.2487  1.2513  2.0944
 2821TIP3    H232659   6.615   1.987  15.246  3.0264  0.6972  0.0609
 2822TIP3   OH232660   3.427   2.606  14.371 -0.0090  0.3688  0.0295
 2822TIP3    H132661   3.395   2.522  14.401  1.6154 -0.4999 -0.5316
 2822TIP3    H232662   3.462   2.648  14.450  1.4563 -0.5893 -0.0729
 2823TIP3   OH232663   2.741   1.852  14.170  0.3434  0.1293 -0.1449
 2823TIP3    H132664   2.689   1.850  14.089 -0.7394  0.7798  0.5165
 2823TIP3    H232665   2.750   1.760  14.194  0.9371 -0.0953 -1.1539
 2824TIP3   OH232666   3.351   2.810  13.600 -0.3249  0.2350  0.2645
 2824TIP3    H132667   3.438   2.826  13.637  0.0746 -2.0058  0.4239
 2824TIP3    H232668   3.290   2.845  13.665  0.4353 -0.0253  1.1318
 2825TIP3   OH232669   2.052   0.744  16.081 -0.1103  0.8262  0.7337
 2825TIP3    H132670   1.966   0.779  16.057 -1.0424 -1.0990  1.0617
 2825TIP3    H232671   2.110   0.820  16.082 -2.0923  2.4264  1.8566
 2826TIP3   OH232672   0.339   2.733  14.944  0.4664 -0.3019 -0.5189
 2826TIP3    H132673   0.370   2.744  15.033  0.2406  0.1996 -0.4966
 2826TIP3    H232674   0.313   2.641  14.938  0.2550 -0.2763  0.0041
 2827TIP3   OH232675   2.900   2.922  16.820  0.0150  0.0328  0.3081
 2827TIP3    H132676   2.816   2.884  16.845 -0.4795  0.3985 -0.7422
 2827TIP3    H232677   2.912   2.995  16.881 -0.9838  0.6757 -0.2354
 2828TIP3   OH232678   5.822   5.445  17.027 -0.2843  0.7150 -0.2712
 2828TIP3    H132679   5.832   5.534  16.993 -0.0902  0.9767  0.4411
 2828TIP3    H232680   5.727   5.432  17.034 -0.3244  1.3988  0.9154
 2829TIP3   OH232681   5.828   1.582  14.306  0.1934  0.4012  0.2435
 2829TIP3    H132682   5.779   1.597  14.225  1.7470  1.0849 -0.6199
 2829TIP3    H232683   5.802   1.494  14.335  0.7829 -0.5114 -1.8647
 2830TIP3   OH232684   1.095   4.652  15.848 -0.2874  0.3542  0.0120
 2830TIP3    H132685   1.064   4.679  15.761  1.4734 -2.1507 -1.5265
 2830TIP3    H232686   1.189   4.672  15.847 -0.1111 -0.3522  1.0559
 2831TIP3   OH232687   6.342   5.817  16.654  0.2368 -0.1413 -0.1561
 2831TIP3    H132688   6.405   5.745  16.655 -0.0208 -0.3691 -0.5735
 2831TIP3    H232689   6.393   5.893  16.624  0.2224 -0.4099 -0.8727
 2832TIP3   OH232690   2.689   6.313  15.534  0.0688  0.1094 -0.3127
 2832TIP3    H132691   2.650   6.227  15.516  0.9866 -0.6788  1.2082
 2832TIP3    H232692   2.712   6.347  15.448 -2.1347 -0.2448 -1.1043
 2833TIP3   OH232693   3.791   4.935  16.369  0.3943  0.3419 -0.7710
 2833TIP3    H132694   3.834   4.877  16.305 -0.0467  0.1191 -0.8709
 2833TIP3    H232695   3.703   4.949  16.333  0.0254 -0.0530 -0.0509
 2834TIP3   OH232696   0.800   0.142  16.687  0.1205 -0.2712  0.0981
 2834TIP3    H132697   0.731   0.207  16.678  0.9838  1.0418  2.1696
 2834TIP3    H232698   0.869   0.171  16.629 -1.1070 -1.8100 -2.2947
 2835TIP3   OH232699   5.836   5.885  13.859 -0.4967  0.1986 -0.6876
 2835TIP3    H132700   5.864   5.974  13.836  1.1113 -0.3580 -1.0131
 2835TIP3    H232701   5.774   5.861  13.790 -0.3353  0.7870 -1.0479
 2836TIP3   OH232702   0.358   6.319  16.732 -0.1099  0.0228 -0.6985
 2836TIP3    H132703   0.306   6.238  16.736 -0.1726  0.0542 -0.8529
 2836TIP3    H232704   0.312   6.380  16.790  0.7973 -0.5300  0.6362
 2837TIP3   OH232705   4.747   5.406  14.542  0.2315  0.3092  0.0621
 2837TIP3    H132706   4.696   5.485  14.526 -1.0322 -0.6073 -0.6274
 2837TIP3    H232707   4.722   5.379  14.631 -1.8147 -1.0147 -0.8366
 2838TIP3   OH232708   5.182   5.404  16.149  0.2213  0.1608 -0.5494
 2838TIP3    H132709   5.272   5.412  16.178  0.1447  0.1331 -0.3030
 2838TIP3    H232710   5.145   5.334  16.202 -0.4362  1.3179  0.5715
 2839TIP3   OH232711   5.598   0.573  16.396 -0.2204 -0.0955 -0.0184
 2839TIP3    H132712   5.590   0.605  16.486  0.7057 -0.5770  0.2521
 2839TIP3    H232713   5.692   0.564  16.382 -0.3711 -0.4706 -0.8781
 2840TIP3   OH232714   2.737   6.636  15.893  0.1003  0.5492  0.1908
 2840TIP3    H132715   2.759   6.594  15.810  0.3442 -0.3225  0.6899
 2840TIP3    H232716   2.771   6.725  15.885  1.0284  0.1592 -0.2491
 2841TIP3   OH232717   0.594   3.202  16.401  0.1663 -0.1333 -0.1279
 2841TIP3    H132718   0.555   3.122  16.367  0.6190 -0.2935 -0.2767
 2841TIP3    H232719   0.685   3.179  16.420  0.5465  0.5550 -0.9918
 2842TIP3   OH232720   3.215   6.496  15.056  0.3382  0.4968 -0.5285
 2842TIP3    H132721   3.219   6.493  15.152 -0.3184  0.1528 -0.5063
 2842TIP3    H232722   3.287   6.554  15.031  2.0029 -1.1739  0.0563
 2843TIP3   OH232723   4.494   0.612  17.275  0.1607 -0.0989 -0.1205
 2843TIP3    H132724   4.450   0.558  17.210 -0.9615 -0.0435  0.5813
 2843TIP3    H232725   4.438   0.608  17.353 -0.6257  3.0155 -0.3967
 2844TIP3   OH232726   6.449   4.404  14.527 -1.0128 -0.0491  0.2938
 2844TIP3    H132727   6.360   4.416  14.560 -0.5647  0.1739  1.4971
 2844TIP3    H232728   6.495   4.362  14.600  0.3027  1.4185  0.3567
 2845TIP3   OH232729   1.227   0.831  13.877 -0.2710 -0.1064 -0.3094
 2845TIP3    H132730   1.295   0.880  13.832  0.4138  0.2378  1.0497
 2845TIP3    H232731   1.273   0.759  13.920 -0.7271  0.2149  0.7458
 2846TIP3   OH232732   5.232   5.973  17.119 -0.3388  0.2878 -0.1950
 2846TIP3    H132733   5.192   6.060  17.115 -0.9102  0.0352 -0.0052
 2846TIP3    H232734   5.278   5.971  17.203 -1.0860  0.0803  0.2123
 2847TIP3   OH232735   3.917   3.928  13.526 -0.1994 -0.1798 -0.7587
 2847TIP3    H132736   3.841   3.972  13.562  0.8083  0.6600  0.4167
 2847TIP3    H232737   3.885   3.842  13.499 -1.5902  0.2394 -0.5026
 2848TIP3   OH232738   5.511   4.218  15.523 -0.0558 -0.4815  0.2739
 2848TIP3    H132739   5.548   4.149  15.468 -0.9279  0.0451 -1.0291
 2848TIP3    H232740   5.431   4.244  15.478  0.3885  1.5658  0.5865
 2849TIP3   OH232741   2.876   6.239  16.548  0.0751  0.3789 -0.0952
 2849TIP3    H132742   2.929   6.160  16.560  1.5068  1.5490  1.7928
 2849TIP3    H232743   2.842   6.259  16.635  2.5189  3.6424  0.3094
 2850TIP3   OH232744   1.006   4.335  16.238 -0.0541 -0.5216  0.5511
 2850TIP3    H132745   0.934   4.383  16.196 -0.0161  0.3936  1.4831
 2850TIP3    H232746   0.964   4.261  16.280 -0.4428 -0.0939  0.9313
 2851TIP3   OH232747   4.644   2.206  15.326 -0.6623 -0.2648 -0.0572
 2851TIP3    H132748   4.602   2.253  15.398  0.6834 -0.9500  1.2003
 2851TIP3    H232749   4.704   2.270  15.287  1.0095 -0.8026  1.5198
 2852TIP3   OH232750   3.428   1.459  14.689  0.0669  0.3302 -0.5872
 2852TIP3    H132751   3.415   1.411  14.771  0.7045 -0.4412 -0.9217
 2852TIP3    H232752   3.363   1.422  14.629 -1.6964  2.1981  0.0698
 2853TIP3   OH232753   2.579   5.525  14.245  1.1353 -0.4413 -0.7827
 2853TIP3    H132754   2.515   5.497  14.179 -2.1285 -0.6101  2.1618
 2853TIP3    H232755   2.622   5.444  14.272  0.3508 -0.8278 -0.6551
 2854TIP3   OH232756   1.681   4.271  16.224 -0.1567  0.0369 -0.7675
 2854TIP3    H132757   1.735   4.286  16.302 -1.5312  0.1286  0.2193
 2854TIP3    H232758   1.690   4.177  16.207 -1.2848 -0.3811  0.6765
 2855TIP3   OH232759   5.494   4.858  15.037 -0.1750 -0.0471 -0.0629
 2855TIP3    H132760   5.471   4.794  15.104 -0.1405  0.8773  0.8414
 2855TIP3    H232761   5.490   4.808  14.955 -1.1461 -0.9509  0.5111
 2856TIP3   OH232762   3.619   3.913  15.457  0.4113  0.1362 -0.2079
 2856TIP3    H132763   3.539   3.867  15.432 -0.2510  1.3884 -0.4952
 2856TIP3    H232764   3.642   3.964  15.380  0.7916  0.7265  0.2840
 2857TIP3   OH232765   4.876   5.026  14.318  0.2498  0.2481  0.3791
 2857TIP3    H132766   4.846   4.936  14.306  2.3702 -0.4608 -0.1304
 2857TIP3    H232767   4.799   5.080  14.301 -0.3290 -1.3267 -2.7566
 2858TIP3   OH232768   0.023   1.485  15.108  0.8072 -0.2417 -0.4191
 2858TIP3    H132769  -0.011   1.568  15.075 -1.6378 -0.8887  0.2487
 2858TIP3    H232770  -0.039   1.460  15.177  0.5125 -3.3832 -1.6546
 2859TIP3   OH232771   3.534   5.184  16.388 -0.2284  0.3088 -0.5856
 2859TIP3    H132772   3.522   5.112  16.326 -0.9518  0.4187 -0.5906
 2859TIP3    H232773   3.619   5.168  16.429 -0.5926 -0.8063 -0.2450
 2860TIP3   OH232774   1.153   2.408  15.479  0.1757 -0.2235  0.3707
 2860TIP3    H132775   1.135   2.461  15.557  0.2007  0.4118 -0.0478
 2860TIP3    H232776   1.098   2.445  15.411  0.5751 -0.4086 -0.0635
 2861TIP3   OH232777   5.621   5.879  13.661 -0.1690 -0.1246  0.4145
 2861TIP3    H132778   5.529   5.881  13.635  0.2233 -0.8443 -1.1283
 2861TIP3    H232779   5.651   5.969  13.648 -0.9194  0.4201  2.1037
 2862TIP3   OH232780   2.181   2.057  16.940  0.0013  0.3807  0.3613
 2862TIP3    H132781   2.187   1.971  16.898 -1.6779 -0.4350  1.6975
 2862TIP3    H232782   2.272   2.087  16.947  0.4659 -0.2102 -2.2025
 2863TIP3   OH232783   0.694   0.118  15.528  1.0891 -0.3818  0.2169
 2863TIP3    H132784   0.644   0.136  15.448 -0.1760  0.1233  1.0934
 2863TIP3    H232785   0.740   0.200  15.547  0.6070 -0.1850  0.5444
 2864TIP3   OH232786   0.064   3.066  16.188 -1.0887 -0.3010  0.0277
 2864TIP3    H132787   0.028   2.988  16.147  2.4028 -0.8968 -2.4120
 2864TIP3    H232788   0.025   3.139  16.140 -1.8540 -0.7036  0.0299
 2865TIP3   OH232789   1.915   3.085  16.044  0.0257 -0.1419  0.1367
 2865TIP3    H132790   1.919   3.003  16.094 -0.7464 -0.2983 -0.0466
 2865TIP3    H232791   2.005   3.118  16.046  0.3169 -0.9151  0.3428
 2866TIP3   OH232792   0.904   2.312  14.986 -0.0760  0.0471 -0.0076
 2866TIP3    H132793   0.823   2.354  14.957  1.2665  2.7634 -0.2040
 2866TIP3    H232794   0.955   2.300  14.906  0.0385 -0.9287  0.2015
 2867TIP3   OH232795   3.253   5.040  13.798 -0.1652  0.4453  0.0049
 2867TIP3    H132796   3.331   5.003  13.840 -0.2309 -1.3639 -1.3178
 2867TIP3    H232797   3.232   4.978  13.728 -2.2901  1.3463 -0.2428
 2868TIP3   OH232798   0.006   0.603  15.359 -0.4242  0.1522  0.1462
 2868TIP3    H132799   0.099   0.617  15.342 -0.4111 -1.1318 -1.0471
 2868TIP3    H232800  -0.037   0.631  15.279 -0.9594 -0.2914  0.2754
 2869TIP3   OH232801   5.016   5.435  14.504 -0.4883  0.0107  0.4439
 2869TIP3    H132802   4.930   5.452  14.543 -0.3923  0.1919  0.5746
 2869TIP3    H232803   5.043   5.352  14.541 -0.0428  0.5628  1.3758
 2870TIP3   OH232804   2.477   5.979  15.074 -0.6718 -0.0837 -1.1051
 2870TIP3    H132805   2.405   5.943  15.023 -0.5708 -0.6964 -0.8168
 2870TIP3    H232806   2.516   5.904  15.119 -0.1584  0.3086 -0.8756
 2871TIP3   OH232807   6.611   5.123  14.748  0.2034  0.5767 -1.3456
 2871TIP3    H132808   6.685   5.182  14.764  0.2067  0.3126 -0.3480
 2871TIP3    H232809   6.652   5.037  14.738  0.0818  0.5329 -1.4643
 2872TIP3   OH232810   4.600   5.631  16.588  0.0083  0.1961  0.0147
 2872TIP3    H132811   4.639   5.656  16.503  1.8994  0.3486  0.8637
 2872TIP3    H232812   4.547   5.554  16.569 -0.3947  0.8006 -1.4659
 2873TIP3   OH232813   0.784   0.835  15.558 -0.5368 -0.4666 -0.0642
 2873TIP3    H132814   0.703   0.885  15.548  0.4327  1.0958 -0.3917
 2873TIP3    H232815   0.755   0.743  15.557 -2.1080 -0.0559 -2.4125
 2874TIP3   OH232816   0.462   5.478  14.200  0.3351  0.2531 -0.4631
 2874TIP3    H132817   0.417   5.557  14.168  1.4769  0.6062 -1.2522
 2874TIP3    H232818   0.405   5.445  14.270 -0.1425  1.8144 -0.0628
 2875TIP3   OH232819   4.548   0.304  14.335  0.1437  0.1005  0.8917
 2875TIP3    H132820   4.610   0.238  14.305 -0.9557  0.0576 -1.4709
 2875TIP3    H232821   4.464   0.259  14.340 -0.4520  1.0778  0.0994
 2876TIP3   OH232822   2.859   4.417  15.533 -0.0951  0.0209 -0.5230
 2876TIP3    H132823   2.908   4.335  15.522 -2.1646 -1.1019 -2.3249
 2876TIP3    H232824   2.901   4.478  15.473 -0.3918 -0.7238 -1.5383
 2877TIP3   OH232825   3.748   1.302  13.221  0.0078 -0.0179 -0.0709
 2877TIP3    H132826   3.704   1.372  13.269 -1.4412 -0.9147 -0.0202
 2877TIP3    H232827   3.768   1.237  13.289  0.9314  0.1365 -0.1868
 2878TIP3   OH232828   1.069   1.884  14.445 -0.0560 -0.0792 -0.0528
 2878TIP3    H132829   1.137   1.835  14.397  0.6735  0.4564  0.4119
 2878TIP3    H232830   1.003   1.818  14.466 -0.2230 -0.4030 -1.4684
 2879TIP3   OH232831   3.064   6.263  15.462  0.0522  0.6907  0.0785
 2879TIP3    H132832   3.107   6.185  15.497  2.3278  1.4378 -0.8872
 2879TIP3    H232833   3.078   6.330  15.528 -0.9639  0.5727  0.4253
 2880TIP3   OH232834   6.012   3.491  16.008 -0.1717  0.0085 -0.3711
 2880TIP3    H132835   5.936   3.547  16.023 -0.9575 -0.5221 -2.0804
 2880TIP3    H232836   5.989   3.408  16.050 -0.4186 -0.0628 -0.6460
 2881TIP3   OH232837   3.761   3.385  14.444  0.4335  0.0429 -0.3080
 2881TIP3    H132838   3.830   3.320  14.429  0.3757 -0.5559  1.7293
 2881TIP3    H232839   3.713   3.352  14.519 -1.4515  1.0009 -1.0389
 2882TIP3   OH232840   3.578   3.700  14.236 -0.1497  0.3541  0.3231
 2882TIP3    H132841   3.640   3.661  14.174  0.1981  0.4941  0.5805
 2882TIP3    H232842   3.540   3.773  14.188 -1.0245 -0.4629 -0.2679
 2883TIP3   OH232843   5.761   4.855  14.717  0.0248  0.2082  0.0160
 2883TIP3    H132844   5.723   4.800  14.785  0.8211 -0.6082 -0.1808
 2883TIP3    H232845   5.798   4.930  14.764 -0.9173  0.5129  0.2970
 2884TIP3   OH232846   1.352   2.301  14.390 -0.3600  0.3022  0.6289
 2884TIP3    H132847   1.384   2.246  14.461 -3.8128 -0.9345  1.4280
 2884TIP3    H232848   1.322   2.381  14.433 -2.6590 -0.5340  0.7117
 2885TIP3   OH232849   2.763   4.680  14.088 -0.2439 -0.5184 -0.4143
 2885TIP3    H132850   2.748   4.587  14.069  1.7833 -1.0869  0.4696
 2885TIP3    H232851   2.857   4.686  14.104 -0.5086  1.4812  0.7214
 2886TIP3   OH232852   1.971   1.771  16.124 -0.3021  0.0549  0.1057
 2886TIP3    H132853   2.052   1.760  16.174  0.3769  1.7112 -0.5789
 2886TIP3    H232854   1.946   1.681  16.101  1.8309 -0.4643 -0.4597
 2887TIP3   OH232855   2.568   1.268  14.108 -0.1728  0.0364  0.1578
 2887TIP3    H132856   2.633   1.337  14.091  0.9157 -0.7894  0.8737
 2887TIP3    H232857   2.542   1.283  14.199  1.3446 -1.4975  0.8889
 2888TIP3   OH232858   3.292   2.632  15.929 -0.0263  0.7086 -0.4283
 2888TIP3    H132859   3.239   2.555  15.908  0.0815  1.0485 -2.0367
 2888TIP3    H232860   3.237   2.684  15.988 -0.7282  0.1758 -0.6021
 2889TIP3   OH232861   1.229   0.618  14.748  0.5928 -0.1580  0.0171
 2889TIP3    H132862   1.263   0.658  14.828  1.1469  0.2648 -0.4249
 2889TIP3    H232863   1.145   0.662  14.733 -0.1591 -1.1701  1.0843
 2890TIP3   OH232864   6.427   6.125  16.833  0.4718  0.2680  0.2878
 2890TIP3    H132865   6.504   6.145  16.886  0.7859 -2.2382  0.9263
 2890TIP3    H232866   6.463   6.100  16.748  0.1665  1.3895 -0.1888
 2891TIP3   OH232867   6.135   6.589  16.016  0.1378  0.5772  0.0660
 2891TIP3    H132868   6.227   6.598  16.043 -0.2100 -0.6903  1.8832
 2891TIP3    H232869   6.139   6.548  15.930  1.2849 -0.5864  0.6403
 2892TIP3   OH232870   0.974   4.672  15.207 -0.1757  0.3418 -0.0531
 2892TIP3    H132871   0.975   4.753  15.258  0.5269  0.2426  0.1015
 2892TIP3    H232872   1.026   4.693  15.129  2.9675 -0.9139  1.5295
 2893TIP3   OH232873   1.632   5.456  15.592  0.3474 -0.2584 -0.2089
 2893TIP3    H132874   1.673   5.373  15.618  1.2221  0.2721  0.1706
 2893TIP3    H232875   1.647   5.460  15.497  0.2226 -0.5742 -0.2454
 2894TIP3   OH232876   1.856   1.150  13.551 -0.0670  0.0740 -0.2481
 2894TIP3    H132877   1.761   1.152  13.537  0.0049  1.3087 -0.6185
 2894TIP3    H232878   1.882   1.063  13.520 -1.5351 -1.8137  3.1648
 2895TIP3   OH232879   2.092   1.998  14.938 -0.2831  0.1752 -0.1581
 2895TIP3    H132880   2.131   1.991  15.025  0.2641  0.3067 -0.3903
 2895TIP3    H232881   2.054   2.086  14.936 -0.8026 -0.0314  0.1459
 2896TIP3   OH232882   0.655   0.857  14.955 -0.6449  0.5021 -0.0740
 2896TIP3    H132883   0.708   0.883  14.880 -3.1586  0.1486 -2.0978
 2896TIP3    H232884   0.660   0.931  15.015  1.7240  0.6357 -0.3231
 2897TIP3   OH232885   4.908   3.988  14.609  0.0866 -0.4291  0.9055
 2897TIP3    H132886   4.901   4.075  14.649  1.6030  0.2285 -0.1559
 2897TIP3    H232887   4.913   4.006  14.515 -0.6994 -1.7605  0.5891
 2898TIP3   OH232888   4.655   0.436  16.475  0.1493 -0.1232 -0.1221
 2898TIP3    H132889   4.581   0.410  16.421 -0.3442 -1.9018  1.2884
 2898TIP3    H232890   4.729   0.385  16.443  0.4095  0.5109 -0.5489
 2899TIP3   OH232891   0.808   6.342  16.887 -0.4648 -0.3241 -0.2635
 2899TIP3    H132892   0.740   6.332  16.821 -0.1721  0.6870 -0.7485
 2899TIP3    H232893   0.818   6.437  16.896 -0.0677 -0.4518  0.7842
 2900TIP3   OH232894   1.479   4.284  15.303 -0.3791  0.0541 -0.4670
 2900TIP3    H132895   1.459   4.365  15.349 -0.2636  0.4665 -1.1336
 2900TIP3    H232896   1.451   4.215  15.363  2.1701  0.4850  1.3900
 2901TIP3   OH232897   0.502   3.971  15.534  0.3348  0.5496  0.2794
 2901TIP3    H132898   0.514   3.914  15.458 -1.1256 -0.4639  0.7508
 2901TIP3    H232899   0.422   4.020  15.516  1.3719  2.2426  0.0504
 2902TIP3   OH232900   2.319   5.561  16.849  0.3112 -0.0770 -0.0210
 2902TIP3    H132901   2.316   5.494  16.918 -2.2481 -0.1777 -0.1339
 2902TIP3    H232902   2.240   5.544  16.797  0.6002  1.8817 -1.1592
 2903TIP3   OH232903   0.202   3.187  14.562 -0.0616 -0.3647  0.0256
 2903TIP3    H132904   0.174   3.159  14.649 -1.6974 -1.8467 -0.9162
 2903TIP3    H232905   0.158   3.127  14.502  1.2084  0.4635 -1.8336
 2904TIP3   OH232906   6.338   2.132  15.544 -0.3199  0.1503  0.0489
 2904TIP3    H132907   6.346   2.043  15.579 -0.5184 -0.2935 -1.0090
 2904TIP3    H232908   6.264   2.170  15.592  0.2795  0.0485  1.0892
 2905TIP3   OH232909   2.033   0.229  16.557  0.1877  0.3849  0.3525
 2905TIP3    H132910   2.010   0.158  16.497  1.9160  1.3320 -1.5769
 2905TIP3    H232911   1.967   0.297  16.541  0.9851  0.8766 -0.9998
 2906TIP3   OH232912   5.437   3.207  14.669 -0.2646  0.0337  0.1410
 2906TIP3    H132913   5.395   3.231  14.752 -0.6521 -0.5153  0.1103
 2906TIP3    H232914   5.372   3.152  14.625 -0.1631  0.5347 -0.6454
 2907TIP3   OH232915   0.577   6.160  16.513 -0.1297  0.2465  1.2194
 2907TIP3    H132916   0.636   6.117  16.575 -1.2161 -0.3305  1.8770
 2907TIP3    H232917   0.489   6.144  16.548 -0.7493  0.1911 -0.2858
 2908TIP3   OH232918   3.810   4.184  15.372  0.9483  0.7090 -0.0837
 2908TIP3    H132919   3.858   4.179  15.455 -0.7124 -0.9508  0.8591
 2908TIP3    H232920   3.851   4.119  15.316  2.4360  2.2201 -0.8340
 2909TIP3   OH232921   1.262   3.500  16.271 -0.1415 -0.0624  0.1810
 2909TIP3    H132922   1.274   3.408  16.246 -1.3613 -0.4260  0.8617
 2909TIP3    H232923   1.256   3.498  16.366 -0.2623  0.7188  0.1934
 2910TIP3   OH232924   0.479   2.191  16.165  0.1348  0.1499 -0.0283
 2910TIP3    H132925   0.467   2.182  16.260 -2.1159  0.4313 -0.2230
 2910TIP3    H232926   0.483   2.285  16.150  0.6719  0.1005 -0.2040
 2911TIP3   OH232927   0.413   4.013  15.816 -0.0865 -0.5346 -0.4758
 2911TIP3    H132928   0.493   3.971  15.785 -1.1396 -2.5146 -0.6831
 2911TIP3    H232929   0.342   3.963  15.775 -1.4486  1.2515 -0.4152
 2912TIP3   OH232930   2.245   3.839  16.291 -0.0255 -0.6823 -0.0198
 2912TIP3    H132931   2.240   3.826  16.197 -0.9579  0.0076 -0.0836
 2912TIP3    H232932   2.163   3.802  16.325  0.1656 -0.6539  0.4845
 2913TIP3   OH232933   3.687   4.935  15.438 -0.4388 -0.2402  0.2660
 2913TIP3    H132934   3.707   4.841  15.442 -0.8561 -0.3290  0.3309
 2913TIP3    H232935   3.591   4.939  15.433 -0.5359  0.2230  1.9076
 2914TIP3   OH232936   4.696   6.634  15.205 -0.3288  0.4116 -0.0604
 2914TIP3    H132937   4.742   6.644  15.289  1.9099 -0.3895 -1.1067
 2914TIP3    H232938   4.633   6.563  15.221  0.5868 -0.2421  0.7549
 2915TIP3   OH232939   4.829   3.841  16.403 -0.3241  0.3760 -0.2289
 2915TIP3    H132940   4.864   3.752  16.401  0.3306  0.5816  1.0023
 2915TIP3    H232941   4.745   3.835  16.358  0.1994 -0.6348 -1.1183
 2916TIP3   OH232942   2.020   4.589  15.861 -0.1707  0.4797 -0.3518
 2916TIP3    H132943   2.102   4.562  15.819 -0.5370  0.2951 -0.9521
 2916TIP3    H232944   2.007   4.524  15.930 -0.4597 -0.2463 -1.0694
 2917TIP3   OH232945   0.210   1.220  16.337 -0.7225 -0.3204  0.4228
 2917TIP3    H132946   0.153   1.282  16.382 -1.4004 -0.1644 -0.6094
 2917TIP3    H232947   0.266   1.275  16.281 -0.5886 -0.5761  0.3034
 2918TIP3   OH232948   5.729   0.767  13.563 -0.0917 -0.5584 -0.2402
 2918TIP3    H132949   5.792   0.807  13.623 -0.8852  0.5289 -0.0844
 2918TIP3    H232950   5.764   0.680  13.546  0.8131 -0.4295  0.7961
 2919TIP3   OH232951   5.823   5.562  15.501 -0.2305  0.2006  0.2863
 2919TIP3    H132952   5.901   5.588  15.452  0.8067 -0.8553  1.3103
 2919TIP3    H232953   5.761   5.634  15.487  1.0487  1.2459 -0.2538
 2920TIP3   OH232954   0.797   1.387  15.263 -0.0008 -0.0983 -0.0180
 2920TIP3    H132955   0.804   1.292  15.253 -2.1032 -0.6250  2.4170
 2920TIP3    H232956   0.863   1.410  15.328  0.4330  0.1096 -0.5260
 2921TIP3   OH232957   0.436   3.966  13.793 -0.4836  0.7609 -0.1214
 2921TIP3    H132958   0.475   4.013  13.719 -1.2003  0.7474 -0.5214
 2921TIP3    H232959   0.403   3.885  13.754  0.2204  0.1846  0.4515
 2922TIP3   OH232960   4.547   1.700  16.792  0.0803 -0.1636  0.6196
 2922TIP3    H132961   4.566   1.662  16.878 -2.0769 -1.1987  0.7274
 2922TIP3    H232962   4.588   1.786  16.794  1.6877 -0.9032  1.9454
 2923TIP3   OH232963   3.866   6.651  15.133 -0.2523  0.1241 -0.3125
 2923TIP3    H132964   3.954   6.662  15.098  0.6837  0.9906  2.1311
 2923TIP3    H232965   3.824   6.737  15.123 -0.5804 -0.0835 -0.7853
 2924TIP3   OH232966   4.331   4.948  15.598  0.8273 -0.5055 -0.0477
 2924TIP3    H132967   4.307   4.855  15.602  1.3624 -0.6168  1.3021
 2924TIP3    H232968   4.254   4.994  15.633  0.1697 -0.3358 -1.6481
 2925TIP3   OH232969   4.744   6.451  14.305  0.2446  0.2891  0.1088
 2925TIP3    H132970   4.764   6.512  14.234 -0.1113  0.7047  0.3616
 2925TIP3    H232971   4.789   6.371  14.280  0.3862  0.5267 -0.4316
 2926TIP3   OH232972   0.077   2.767  14.854  0.2327 -0.6305  0.1485
 2926TIP3    H132973   0.164   2.753  14.892 -0.4813 -1.0066  1.7260
 2926TIP3    H232974   0.056   2.685  14.811  0.7852 -0.4292 -0.5129
 2927TIP3   OH232975   3.632   3.267  15.996 -0.1696 -0.1945  0.5476
 2927TIP3    H132976   3.701   3.316  16.041  0.6300 -0.8441  0.0447
 2927TIP3    H232977   3.672   3.238  15.914 -1.3258  0.1944 -0.1752
 2928TIP3   OH232978   1.973   1.226  14.876  0.3838 -0.4021 -0.2890
 2928TIP3    H132979   1.995   1.135  14.898  3.8610  0.8761  2.5699
 2928TIP3    H232980   2.005   1.237  14.787  2.0732 -1.4598  0.1385
 2929TIP3   OH232981   3.897   0.688  15.216  0.1896 -0.0725  0.1539
 2929TIP3    H132982   3.969   0.731  15.261  1.3836 -1.1278 -0.6576
 2929TIP3    H232983   3.915   0.702  15.123 -1.3562  0.7164 -0.0575
 2930TIP3   OH232984   4.995   4.674  14.598  0.1902  0.4071 -0.2424
 2930TIP3    H132985   4.962   4.603  14.544 -0.8657  0.5394  0.2135
 2930TIP3    H232986   5.059   4.718  14.542 -2.1222  1.6281 -2.1141
 2931TIP3   OH232987   5.113   0.144  14.261  0.4312  1.1143  0.5197
 2931TIP3    H132988   5.080   0.055  14.255 -0.1493  1.4295 -1.4427
 2931TIP3    H232989   5.035   0.198  14.273  0.4924  1.5794 -1.0249
 2932TIP3   OH232990   1.703   5.256  15.769 -0.0769  0.0145  0.7480
 2932TIP3    H132991   1.757   5.185  15.733 -2.4454 -0.8301 -1.4105
 2932TIP3    H232992   1.684   5.228  15.859  0.3093 -1.3365  0.4345
 2933TIP3   OH232993   5.609   2.767  16.892  0.0041  0.5226  0.1880
 2933TIP3    H132994   5.537   2.779  16.955 -1.5500  0.6731 -1.5245
 2933TIP3    H232995   5.606   2.674  16.869  0.4890  0.4898  0.2562
 2934TIP3   OH232996   0.312   3.487  14.268 -0.1093  0.0619  0.2101
 2934TIP3    H132997   0.244   3.440  14.316 -2.1066  2.6908  0.1821
 2934TIP3    H232998   0.264   3.554  14.218  2.5130  2.4715  0.6737
 2935TIP3   OH232999   2.885   2.019  16.489 -0.3551 -0.0676 -0.2963
 2935TIP3    H133000   2.922   2.056  16.409  0.5737  0.6260  0.4341
 2935TIP3    H233001   2.791   2.011  16.471 -0.2447  0.6237 -1.2418
 2936TIP3   OH233002   0.165   2.172  16.623 -0.1362  0.1015 -0.1609
 2936TIP3    H133003   0.119   2.203  16.545 -0.1073  0.6750  0.0439
 2936TIP3    H233004   0.131   2.227  16.694 -1.8107 -1.8485  0.6556
 2937TIP3   OH233005   5.970   4.242  14.835  0.4842 -0.2279 -0.1157
 2937TIP3    H133006   5.969   4.211  14.745  1.2110 -0.7426  0.0484
 2937TIP3    H233007   6.038   4.190  14.878 -0.6299 -0.7889  1.0179
 2938TIP3   OH233008   4.895   2.358  16.618  0.1979 -0.0646 -0.1975
 2938TIP3    H133009   4.812   2.310  16.625 -0.2370  0.6379 -0.4949
 2938TIP3    H233010   4.942   2.315  16.547  0.2896 -0.7503  0.2659
 2939TIP3   OH233011   5.653   4.459  13.400 -0.2562 -0.1933  0.4195
 2939TIP3    H133012   5.563   4.492  13.406 -0.4878 -0.6756 -0.2206
 2939TIP3    H233013   5.691   4.506  13.326 -0.4044 -0.9184 -0.1299
 2940TIP3   OH233014   5.971   2.655  13.850  0.2303 -0.2354 -0.0825
 2940TIP3    H133015   6.062   2.662  13.822  0.3309 -2.1138 -0.3752
 2940TIP3    H233016   5.950   2.562  13.839 -1.7512  0.1760 -0.1210
 2941TIP3   OH233017   4.184   1.050  14.404 -0.4318  0.1145 -0.0803
 2941TIP3    H133018   4.271   1.073  14.370  0.2473 -0.8686  0.9391
 2941TIP3    H233019   4.127   1.054  14.327  0.6792 -0.0611 -0.9421
 2942TIP3   OH233020   0.789   5.276  16.846 -0.2357  0.0610  0.1281
 2942TIP3    H133021   0.695   5.269  16.862 -0.6934  0.8115 -1.8481
 2942TIP3    H233022   0.822   5.187  16.857 -1.2477 -0.2894  0.4439
 2943TIP3   OH233023   4.745   3.048  13.423  1.0568 -0.1451  0.3617
 2943TIP3    H133024   4.756   3.143  13.421  1.5153 -0.1949 -1.0353
 2943TIP3    H233025   4.813   3.015  13.364 -0.0503 -1.2080 -0.3821
 2944TIP3   OH233026   5.452   1.956  16.409 -0.0016  0.4437  0.4499
 2944TIP3    H133027   5.453   1.869  16.370 -3.0388  0.5100 -0.0668
 2944TIP3    H233028   5.419   1.942  16.498 -2.5191  1.1601 -0.2938
 2945TIP3   OH233029   4.602   3.062  15.808 -0.4293  0.0552 -0.0712
 2945TIP3    H133030   4.601   3.149  15.769 -0.7860  0.0020 -0.1771
 2945TIP3    H233031   4.676   3.064  15.869  0.7159 -0.1473 -1.3924
 2946TIP3   OH233032   0.960   2.179  15.506 -0.2292  0.3869  0.4305
 2946TIP3    H133033   0.981   2.204  15.596  1.1197  0.9756 -0.0166
 2946TIP3    H233034   1.015   2.236  15.452 -1.0475  0.0726 -0.7707
 2947TIP3   OH233035   2.045   3.676  16.394 -0.2398  0.7766 -0.7275
 2947TIP3    H133036   2.001   3.619  16.456  0.5838  1.3745  0.4368
 2947TIP3    H233037   2.019   3.642  16.308 -1.8264  0.2729 -0.0802
 2948TIP3   OH233038   6.330   6.209  15.495  0.3277  0.0135  0.3977
 2948TIP3    H133039   6.303   6.145  15.561 -1.4897 -0.7865 -1.0135
 2948TIP3    H233040   6.355   6.156  15.419 -1.0884  0.9083 -0.7544
 2949TIP3   OH233041   4.995   5.243  15.211 -0.6610  0.0195 -0.3459
 2949TIP3    H133042   5.082   5.204  15.214 -0.4109  0.6546  1.1464
 2949TIP3    H233043   4.970   5.238  15.118  0.3581 -1.4446 -0.5794
 2950TIP3   OH233044   5.774   3.292  15.650 -0.4432  0.3282  0.2657
 2950TIP3    H133045   5.754   3.386  15.659 -1.5600  0.0858  0.4012
 2950TIP3    H233046   5.815   3.268  15.733  1.1710  0.9950 -0.2863
 2951TIP3   OH233047   1.713   1.955  15.013  0.0547 -0.3187  0.2448
 2951TIP3    H133048   1.638   1.982  15.065  1.4420 -0.1057  2.2581
 2951TIP3    H233049   1.755   2.037  14.986  0.1735 -0.4454  0.0357
 2952TIP3   OH233050   0.298   4.851  14.371  0.1281 -0.0209 -0.1752
 2952TIP3    H133051   0.241   4.837  14.447  0.4255 -0.1824  0.0187
 2952TIP3    H233052   0.312   4.945  14.369  0.1091 -0.0142 -0.0367
 2953TIP3   OH233053   3.970   4.984  16.034  0.6464 -0.6328  0.5733
 2953TIP3    H133054   3.954   4.938  16.116 -0.5849  0.5208  1.0229
 2953TIP3    H233055   3.943   4.922  15.966  2.2987 -1.8446  0.9705
 2954TIP3   OH233056   2.583   2.930  15.014 -0.7151 -0.4518 -0.7714
 2954TIP3    H133057   2.567   2.968  15.100 -0.0622 -0.7797 -0.4965
 2954TIP3    H233058   2.497   2.901  14.984 -0.8408 -0.9956  0.0886
 2955TIP3   OH233059   2.926   5.919  17.014 -0.3911  0.4981  0.2085
 2955TIP3    H133060   3.018   5.901  17.034 -0.2896 -2.8221 -2.4017
 2955TIP3    H233061   2.895   5.972  17.087  3.2326  0.6111  1.8422
 2956TIP3   OH233062   5.345   4.079  16.406  0.1860 -0.2888  0.2012
 2956TIP3    H133063   5.424   4.126  16.378  0.5561 -0.6724  0.5931
 2956TIP3    H233064   5.277   4.107  16.344  1.0090 -1.2244 -1.1819
 2957TIP3   OH233065   4.202   4.844  16.361  0.7577 -0.2608 -0.1236
 2957TIP3    H133066   4.154   4.777  16.314 -0.1091 -1.1118  1.8619
 2957TIP3    H233067   4.137   4.913  16.377  1.1950  0.2854 -0.6385
 2958TIP3   OH233068   0.740   3.755  14.636  0.6841 -0.5174  0.1346
 2958TIP3    H133069   0.824   3.785  14.669  1.0116 -2.0694  0.8096
 2958TIP3    H233070   0.760   3.672  14.593 -0.3905 -0.5395 -0.3494
 2959TIP3   OH233071   4.634   5.326  16.436  0.0936  0.4616  0.0996
 2959TIP3    H133072   4.704   5.270  16.470  0.2288  0.6733  0.1804
 2959TIP3    H233073   4.587   5.356  16.514  0.3203  0.8397  0.0983
 2960TIP3   OH233074   4.928   1.472  15.582 -0.3712 -0.0382  0.0429
 2960TIP3    H133075   5.013   1.478  15.538 -1.3821  0.4127 -1.9559
 2960TIP3    H233076   4.926   1.548  15.640  0.1840  0.5548 -0.6864
 2961TIP3   OH233077   1.494   6.693  13.760  0.0612  0.5504  0.3891
 2961TIP3    H133078   1.434   6.763  13.787 -1.7255 -0.4642 -0.7705
 2961TIP3    H233079   1.487   6.627  13.829  0.2479  0.6509  0.5054
 2962TIP3   OH233080   5.484   2.009  15.015 -0.5231  0.0405 -0.5050
 2962TIP3    H133081   5.568   1.970  15.039 -0.9209  0.5295  1.9053
 2962TIP3    H233082   5.475   1.991  14.921  0.3940 -3.5569 -0.0293
 2963TIP3   OH233083   6.719   5.591  13.555  0.3826  0.6328 -0.8575
 2963TIP3    H133084   6.683   5.584  13.643 -0.8263 -0.4629 -1.3990
 2963TIP3    H233085   6.811   5.568  13.564  0.2400  0.3976  0.0951
 2964TIP3   OH233086   4.361   1.315  14.726  0.0159 -0.4718 -0.2341
 2964TIP3    H133087   4.300   1.241  14.725  0.9439 -1.2589 -0.2094
 2964TIP3    H233088   4.319   1.381  14.671 -1.3921 -0.5421  0.6920
 2965TIP3   OH233089   3.653   5.970  14.776 -0.1289  0.4736  0.1441
 2965TIP3    H133090   3.695   6.055  14.768 -0.2941  0.5034 -0.5150
 2965TIP3    H233091   3.571   5.979  14.727 -0.0838 -0.0937 -0.0466
 2966TIP3   OH233092   1.175   4.647  14.383  0.1519 -0.1842 -0.5717
 2966TIP3    H133093   1.111   4.646  14.454 -2.7442  2.1733 -2.8865
 2966TIP3    H233094   1.257   4.674  14.426 -1.1924  0.0980  2.0323
 2967TIP3   OH233095   4.761   4.779  15.347  0.2450  0.0032  0.6904
 2967TIP3    H133096   4.826   4.730  15.296  0.1131 -0.2539  0.7717
 2967TIP3    H233097   4.760   4.866  15.306  2.4271  0.8198  2.2042
 2968TIP3   OH233098   0.761   3.198  14.108 -0.1063  0.0801 -0.2147
 2968TIP3    H133099   0.835   3.255  14.130 -1.1768  1.2418  0.4578
 2968TIP3    H233100   0.684   3.248  14.132 -1.1542 -0.9110 -1.3705
 2969TIP3   OH233101   2.157   4.088  13.956 -0.0026 -0.4960  0.2416
 2969TIP3    H133102   2.123   4.031  13.887  1.6937 -0.8882 -0.3389
 2969TIP3    H233103   2.212   4.152  13.909 -0.1723  0.2898  1.0829
 2970TIP3   OH233104   4.567   4.610  15.222  0.1527  0.3637  0.5527
 2970TIP3    H133105   4.633   4.641  15.285  0.9460 -0.1631 -0.0049
 2970TIP3    H233106   4.609   4.622  15.137 -1.0770  1.4712  0.0701
 2971TIP3   OH233107   1.963   2.157  15.615 -0.0994  0.0069 -0.2283
 2971TIP3    H133108   1.869   2.139  15.609  0.0158 -0.2171 -1.7685
 2971TIP3    H233109   1.982   2.214  15.541  1.1426 -0.6956 -0.4905
 2972TIP3   OH233110   2.812   4.827  15.434 -0.4848 -0.1939  0.5859
 2972TIP3    H133111   2.902   4.803  15.414 -1.1357 -0.6919 -2.1399
 2972TIP3    H233112   2.779   4.755  15.489  0.6565 -0.1741  1.3136
 2973TIP3   OH233113   4.372   3.260  14.078 -0.6733 -0.3254 -0.2941
 2973TIP3    H133114   4.395   3.170  14.103 -2.0595 -0.3094  1.1806
 2973TIP3    H233115   4.308   3.248  14.007  0.0535 -0.4578 -0.9419
 2974TIP3   OH233116   3.116   3.249  14.623  0.0769  0.1406 -0.0978
 2974TIP3    H133117   3.170   3.293  14.689  0.1377  0.2282 -0.2058
 2974TIP3    H233118   3.176   3.189  14.579  0.3252  0.9455 -0.8838
 2975TIP3   OH233119   5.976   5.895  16.175  0.3390 -0.0151  0.4036
 2975TIP3    H133120   6.008   5.894  16.265 -0.3228  0.1188  0.6502
 2975TIP3    H233121   5.947   5.986  16.161  0.2340 -0.0890  0.1333
 2976TIP3   OH233122   5.244   6.328  14.948  0.3989  0.5007  0.4516
 2976TIP3    H133123   5.265   6.312  15.040 -0.6168 -3.8081  0.0992
 2976TIP3    H233124   5.303   6.271  14.899 -0.0672  1.6309 -1.5580
 2977TIP3   OH233125   6.139   1.991  13.911 -0.1797 -0.4899  0.2771
 2977TIP3    H133126   6.156   2.002  14.005 -2.1770 -1.6293  0.8441
 2977TIP3    H233127   6.122   2.079  13.879 -1.2757 -0.2435  1.4292
 2978TIP3   OH233128   3.162   6.526  14.496 -0.0690 -1.2367  0.4502
 2978TIP3    H133129   3.165   6.479  14.412 -1.0775  0.8227 -0.8189
 2978TIP3    H233130   3.080   6.500  14.536  0.5646 -2.4808  1.0147
 2979TIP3   OH233131   5.545   6.297  14.543 -0.3896  0.0135  0.0231
 2979TIP3    H133132   5.480   6.367  14.531 -1.6865 -0.8844  1.4763
 2979TIP3    H233133   5.526   6.235  14.473 -1.5183 -0.5278  0.7870
 2980TIP3   OH233134   5.031   3.012  16.719  0.0625 -0.0458  0.1413
 2980TIP3    H133135   5.122   3.039  16.730  0.7821 -2.1038 -0.2134
 2980TIP3    H233136   5.025   2.983  16.628 -1.6772  2.3987 -0.6214
 2981TIP3   OH233137   2.741   5.447  14.585  0.2001 -0.0933 -0.3809
 2981TIP3    H133138   2.813   5.420  14.641 -1.2019 -0.9633  1.0825
 2981TIP3    H233139   2.739   5.382  14.514  0.8236 -0.0761 -0.4144
 2982TIP3   OH233140   4.676   0.153  14.687  0.0845  0.1675 -0.2355
 2982TIP3    H133141   4.642   0.064  14.683 -2.0594  0.9170 -0.2428
 2982TIP3    H233142   4.755   0.151  14.633 -0.6796 -1.4088 -1.3842
 2983TIP3   OH233143   3.564   0.947  16.371  0.4777  0.3929  0.1202
 2983TIP3    H133144   3.614   0.866  16.364 -0.4932 -0.4419  2.0048
 2983TIP3    H233145   3.472   0.920  16.368  0.0774  1.7334 -1.8040
 2984TIP3   OH233146   1.254   0.169  14.451 -0.1072 -0.0660  0.3078
 2984TIP3    H133147   1.185   0.134  14.507 -2.2518  2.3626 -0.6316
 2984TIP3    H233148   1.300   0.232  14.507  1.8859 -2.0877  1.1144
 2985TIP3   OH233149   2.844   4.640  16.687  0.0596 -0.0553  0.1031
 2985TIP3    H133150   2.793   4.692  16.625  0.4328  0.2676  0.0668
 2985TIP3    H233151   2.932   4.676  16.683 -0.1447  0.6754  1.6091
 2986TIP3   OH233152   1.482   6.250  14.723 -0.1119  0.1651 -0.2060
 2986TIP3    H133153   1.507   6.301  14.800 -0.4136  0.3892 -0.2562
 2986TIP3    H233154   1.414   6.190  14.755 -0.0470  0.0761 -0.2363
 2987TIP3   OH233155   4.431   2.745  16.812  0.0844 -0.2876 -0.2886
 2987TIP3    H133156   4.445   2.839  16.818 -0.5419 -0.2392  0.6445
 2987TIP3    H233157   4.500   2.714  16.753  2.5800  0.2712  2.1030
 2988TIP3   OH233158   5.231   2.426  16.592 -0.1920 -0.4390 -0.6258
 2988TIP3    H133159   5.222   2.515  16.627 -1.0058 -0.3048 -1.1473
 2988TIP3    H233160   5.166   2.375  16.639  0.0073 -0.6814 -0.6091
 2989TIP3   OH233161   3.082   3.035  15.652 -0.0973 -0.2077 -0.5616
 2989TIP3    H133162   2.998   3.022  15.697  0.2188  1.4729  0.6063
 2989TIP3    H233163   3.061   3.093  15.579  0.1022  0.5784 -0.0053
 2990TIP3   OH233164   1.878   1.851  14.771  0.4243 -0.1421 -0.0096
 2990TIP3    H133165   1.907   1.824  14.858  0.7545  2.3058  0.6973
 2990TIP3    H233166   1.804   1.793  14.751  1.5660 -2.0368  1.0256
 2991TIP3   OH233167   6.597   5.196  12.925 -0.1767  0.6194 -0.2309
 2991TIP3    H133168   6.594   5.264  12.993 -0.8054 -0.7549  1.2138
 2991TIP3    H233169   6.544   5.125  12.962 -0.6862 -0.1212 -2.2789
 2992TIP3   OH233170   2.650   2.860  16.640 -0.3582  0.5723  0.0825
 2992TIP3    H133171   2.635   2.854  16.734 -0.1102 -0.6447  0.0556
 2992TIP3    H233172   2.712   2.933  16.630 -0.2147  0.5614  0.8788
 2993TIP3   OH233173   6.574   4.490  13.917  0.6753  0.1368  0.2432
 2993TIP3    H133174   6.558   4.447  14.001 -0.3230 -1.0569 -0.5200
 2993TIP3    H233175   6.663   4.465  13.893  0.9105  0.3630  0.8637
 2994TIP3   OH233176   4.458   5.354  14.422 -0.2105  0.4924  0.2300
 2994TIP3    H133177   4.505   5.437  14.407  2.3911 -0.9872 -0.4683
 2994TIP3    H233178   4.514   5.306  14.483 -0.9798 -1.2638 -0.3963
 2995TIP3   OH233179   6.450   6.167  16.035  0.1108  0.1303 -0.2500
 2995TIP3    H133180   6.542   6.161  16.007  0.4562 -2.4912  1.1516
 2995TIP3    H233181   6.448   6.241  16.095  1.3312  0.2006 -0.2721
 2996TIP3   OH233182   3.211   5.829  17.041  0.2220 -0.1208  0.6639
 2996TIP3    H133183   3.256   5.879  17.109  2.4220 -0.8857 -0.1495
 2996TIP3    H233184   3.281   5.785  16.992 -1.1921  0.5895 -2.2773
 2997TIP3   OH233185   1.034   4.492  16.582 -0.0678  0.1663  0.5767
 2997TIP3    H133186   0.959   4.550  16.568 -0.7153 -0.6725  0.4486
 2997TIP3    H233187   1.083   4.533  16.653 -0.0111  1.3283 -0.1071
 2998TIP3   OH233188   6.558   1.377  14.858 -0.3828  0.0039 -0.1126
 2998TIP3    H133189   6.524   1.299  14.902  1.0745 -0.1223  0.8770
 2998TIP3    H233190   6.624   1.343  14.798 -0.0822  0.4332 -0.0257
 2999TIP3   OH233191   3.489   2.141  16.150  0.2126 -0.4760 -0.0329
 2999TIP3    H133192   3.399   2.128  16.120  0.8854 -0.3513 -2.2813
 2999TIP3    H233193   3.527   2.053  16.152  0.5978 -0.3380 -1.0271
 3000TIP3   OH233194   4.262   1.147  15.407 -0.2830 -0.1254  0.6010
 3000TIP3    H133195   4.305   1.064  15.387 -0.1238 -0.2447  1.4171
 3000TIP3    H233196   4.233   1.179  15.322 -1.9890 -1.9061  0.4359
 3001TIP3   OH233197   0.814   5.380  17.222 -0.0052  0.1720  0.1937
 3001TIP3    H133198   0.752   5.367  17.293 -0.8243 -0.2024 -0.5589
 3001TIP3    H233199   0.877   5.309  17.231  0.2475  0.4799  0.8893
 3002TIP3   OH233200   4.449   6.709  14.047 -0.8037 -0.1627 -0.0793
 3002TIP3    H133201   4.532   6.752  14.028 -1.2716 -0.1924 -2.5331
 3002TIP3    H233202   4.433   6.726  14.140  0.1470  2.9665 -0.3967
 3003TIP3   OH233203   1.167   1.361  15.188  0.2455  0.7021  0.0612
 3003TIP3    H133204   1.096   1.386  15.129 -1.6274  0.7207  2.1793
 3003TIP3    H233205   1.193   1.443  15.230 -0.0062  0.3945  0.8449
 3004TIP3   OH233206   3.029   5.123  14.812  0.2140  0.2630  0.3209
 3004TIP3    H133207   3.080   5.083  14.882 -0.6545  1.0073  1.4124
 3004TIP3    H233208   2.949   5.072  14.808 -0.1565  0.8147  0.5427
 3005TIP3   OH233209   1.462   5.905  15.042  0.0720 -0.3519 -0.1068
 3005TIP3    H133210   1.391   5.968  15.036  0.7205  0.2721 -2.3616
 3005TIP3    H233211   1.433   5.831  14.990 -1.1186 -2.5238  3.3165
 3006TIP3   OH233212   0.532   0.111  15.784  0.4141  0.1212 -0.4268
 3006TIP3    H133213   0.535   0.143  15.874  1.4361 -0.4081 -0.2560
 3006TIP3    H233214   0.589   0.171  15.735  1.6355 -0.8544 -0.2710
 3007TIP3   OH233215   5.515   3.249  16.799 -0.1225  0.1117 -0.4811
 3007TIP3    H133216   5.507   3.310  16.726 -0.9765  0.7500  0.1326
 3007TIP3    H233217   5.609   3.242  16.814  0.1026 -0.4787 -2.0055
 3008TIP3   OH233218   4.729   1.426  13.585 -0.0887  0.5426  0.5591
 3008TIP3    H133219   4.727   1.469  13.499 -3.5250  0.3603  0.4050
 3008TIP3    H233220   4.770   1.341  13.569 -0.4428  0.6232 -0.8761
 3009TIP3   OH233221   1.207   2.560  14.357  0.0803  0.4619 -0.0181
 3009TIP3    H133222   1.150   2.502  14.407  0.8441 -0.3258 -0.0457
 3009TIP3    H233223   1.183   2.545  14.266  0.8136 -0.4117 -0.0790
 3010TIP3   OH233224   1.201   2.967  14.261  0.1039  0.1567 -0.2250
 3010TIP3    H133225   1.138   3.038  14.277 -0.9160 -0.2706 -1.9717
 3010TIP3    H233226   1.219   2.973  14.167  0.6588 -1.3537 -0.2381
 3011TIP3   OH233227   5.061   2.593  15.930 -0.2823  0.0371  0.5566
 3011TIP3    H133228   5.017   2.676  15.912  0.6720  0.5820  0.6533
 3011TIP3    H233229   5.124   2.614  16.000  2.6525  0.1717 -1.9343
 3012TIP3   OH233230   4.981   4.829  15.063  0.0993 -0.2826 -0.2384
 3012TIP3    H133231   5.068   4.857  15.092 -0.3883  1.3016 -0.2103
 3012TIP3    H233232   4.998   4.760  14.999  1.3907  0.1750 -0.4166
 3013TIP3   OH233233   0.032   1.078  16.172  0.2808 -0.3328 -0.2221
 3013TIP3    H133234  -0.042   1.138  16.186 -0.2023 -1.3786  2.0344
 3013TIP3    H233235   0.102   1.113  16.226  1.0011 -0.1825 -1.2176
 3014TIP3   OH233236   5.131   3.382  16.361 -0.7952 -0.3159 -0.2647
 3014TIP3    H133237   5.077   3.460  16.353  1.6037  1.3485 -1.7070
 3014TIP3    H233238   5.214   3.407  16.321  0.4358 -3.3004  0.1874
 3015TIP3   OH233239   3.505   2.819  15.871  0.4335  0.3329 -0.1857
 3015TIP3    H133240   3.489   2.822  15.776 -0.4910  1.4970 -0.0096
 3015TIP3    H233241   3.438   2.759  15.904 -1.1730  2.1762  0.0610
 3016TIP3   OH233242   2.569   5.914  16.566  0.7415 -0.2915  0.3518
 3016TIP3    H133243   2.572   5.848  16.635 -0.7328  0.1227  0.8550
 3016TIP3    H233244   2.595   5.995  16.608  2.0486 -0.4311 -0.1443
 3017TIP3   OH233245   5.511   5.634  14.462  0.3620  0.1796  0.3927
 3017TIP3    H133246   5.547   5.679  14.385 -0.1453  1.0033  0.6269
 3017TIP3    H233247   5.508   5.701  14.530 -1.8917  0.2505  0.2974
 3018TIP3   OH233248   6.129   5.230  16.511  0.1179  0.1737 -0.3484
 3018TIP3    H133249   6.187   5.154  16.506  1.0592  0.8799 -0.5025
 3018TIP3    H233250   6.041   5.193  16.518  0.6296 -0.9365  0.5275
 3019TIP3   OH233251   6.271   2.138  15.001 -0.6074 -0.0751 -0.3779
 3019TIP3    H133252   6.267   2.233  14.991 -0.0876  0.0331  0.3393
 3019TIP3    H233253   6.279   2.124  15.095 -0.4556 -0.8190 -0.4911
 3020TIP3   OH233254   0.070   6.687  14.534 -0.5054 -0.2156  0.4812
 3020TIP3    H133255   0.094   6.739  14.457  0.0123  0.0944  0.8441
 3020TIP3    H233256   0.010   6.742  14.583 -0.7735 -0.3818  0.3416
 3021TIP3   OH233257   5.883   1.900  13.688 -0.1541  0.5002 -0.0072
 3021TIP3    H133258   5.792   1.872  13.674  0.1420 -0.0498 -0.8921
 3021TIP3    H233259   5.876   1.994  13.706 -0.8323  0.6365 -0.9128
 3022TIP3   OH233260   5.917   4.578  14.207  0.1034  0.8854  0.0144
 3022TIP3    H133261   5.927   4.484  14.189  3.2732  1.2374 -0.6922
 3022TIP3    H233262   5.841   4.604  14.156 -0.0360 -1.0419 -0.8790
 3023TIP3   OH233263   4.333   4.641  15.828  0.3127 -0.2147  0.2557
 3023TIP3    H133264   4.251   4.641  15.876  0.1106 -0.6228 -0.0916
 3023TIP3    H233265   4.380   4.718  15.862 -1.4443  1.8605 -1.6431
 3024TIP3   OH233266   3.212   4.785  14.539  0.5920  0.0341 -0.2004
 3024TIP3    H133267   3.249   4.699  14.520 -0.1084 -0.1752 -0.6430
 3024TIP3    H233268   3.199   4.786  14.634  2.2281  0.3245  0.0508
 3025TIP3   OH233269   6.095   2.101  16.280 -0.3621  0.5327 -0.0431
 3025TIP3    H133270   6.138   2.177  16.239 -0.0276  0.1674 -0.3848
 3025TIP3    H233271   6.057   2.136  16.361 -1.7786  1.4539 -1.0716
 3026TIP3   OH233272   1.490   1.336  16.690 -0.1053  0.2586 -0.3780
 3026TIP3    H133273   1.421   1.287  16.735 -0.8365  0.4584 -1.2574
 3026TIP3    H233274   1.559   1.272  16.675 -0.1365  0.0257  0.4073
 3027TIP3   OH233275   3.235   5.560  15.806  0.4524 -0.2464  0.5053
 3027TIP3    H133276   3.239   5.468  15.778  0.8567 -0.1224  0.1399
 3027TIP3    H233277   3.318   5.597  15.776 -0.3142  0.6039 -0.6079
 3028TIP3   OH233278   5.428   2.887  16.725  0.3444 -0.1218  0.0704
 3028TIP3    H133279   5.479   2.902  16.645  1.6202  0.4089  0.9520
 3028TIP3    H233280   5.475   2.818  16.771 -1.9711 -2.5207 -0.9202
 3029TIP3   OH233281   2.303   3.575  14.530 -0.3950  0.2925  0.4571
 3029TIP3    H133282   2.321   3.489  14.493 -1.2084 -0.8150  2.4993
 3029TIP3    H233283   2.389   3.612  14.548 -0.0302 -0.9555  1.3984
 3030TIP3   OH233284   3.446   0.159  17.088 -0.0235  0.5484  0.0576
 3030TIP3    H133285   3.467   0.158  16.994 -0.8952 -2.3790 -0.2204
 3030TIP3    H233286   3.367   0.213  17.094  0.7106  1.7651 -0.6534
 3031TIP3   OH233287   6.628   1.310  16.152 -0.4091  0.8022  0.3234
 3031TIP3    H133288   6.673   1.372  16.094 -0.7207  1.4549  0.7578
 3031TIP3    H233289   6.572   1.366  16.206  0.1529  0.2478  1.5088
 3032TIP3   OH233290   3.219   3.107  14.411 -0.0086 -0.0686 -0.0903
 3032TIP3    H133291   3.304   3.132  14.448  0.0657 -0.8934  0.3168
 3032TIP3    H233292   3.219   3.147  14.324  1.6876 -1.7581 -0.9407
 3033TIP3   OH233293   0.646   5.986  15.981 -0.6052 -0.0244  0.0234
 3033TIP3    H133294   0.683   6.052  15.923 -2.4942  0.2171 -0.9806
 3033TIP3    H233295   0.655   6.023  16.069  1.0416  0.2109 -0.2039
 3034TIP3   OH233296   3.572   6.272  16.718  0.2735  0.2652  0.2500
 3034TIP3    H133297   3.610   6.329  16.785  1.1751 -0.2148  0.1546
 3034TIP3    H233298   3.605   6.185  16.739  0.7260  0.1348 -0.9408
 3035TIP3   OH233299   6.541   2.670  15.828  0.1500  0.3588  0.4799
 3035TIP3    H133300   6.467   2.655  15.770 -0.1337 -0.6515  1.0863
 3035TIP3    H233301   6.588   2.743  15.788  0.0514 -0.4052 -1.1094
 3036TIP3   OH233302   4.193   3.933  16.971 -0.4419 -0.1739  0.4259
 3036TIP3    H133303   4.190   3.843  17.003 -1.2211 -1.2904 -2.3857
 3036TIP3    H233304   4.136   3.982  17.030  1.5092 -1.0259  3.1738
 3037TIP3   OH233305   2.932   2.322  15.895  0.4048 -0.6549  0.1480
 3037TIP3    H133306   2.902   2.368  15.817 -1.2823 -1.1514  0.4522
 3037TIP3    H233307   3.013   2.367  15.921 -1.4112  2.5526  0.7674
 3038TIP3   OH233308   1.837   0.514  15.345 -0.2642 -0.0363  0.5293
 3038TIP3    H133309   1.904   0.466  15.297 -0.9643 -0.0910 -0.4356
 3038TIP3    H233310   1.880   0.542  15.426 -0.1703 -3.4296  1.8252
 3039TIP3   OH233311   6.703   2.729  15.100 -0.2907  0.0979 -0.8168
 3039TIP3    H133312   6.653   2.804  15.133  2.1798  1.2096  0.7325
 3039TIP3    H233313   6.768   2.767  15.041 -1.1375 -1.2856 -2.7367
 3040TIP3   OH233314   2.564   0.559  15.707 -0.4992 -0.1485 -0.0554
 3040TIP3    H133315   2.490   0.569  15.767 -0.5110 -1.3480  0.1473
 3040TIP3    H233316   2.529   0.586  15.622 -1.0901 -0.4354  0.0894
 3041TIP3   OH233317   1.426   2.568  16.503  0.1958  0.1442 -1.0361
 3041TIP3    H133318   1.517   2.579  16.476  1.4531 -2.1543  1.7384
 3041TIP3    H233319   1.385   2.520  16.431  2.0085 -1.3528 -1.1411
 3042TIP3   OH233320   2.569   3.918  14.303 -0.1785  0.2289 -0.2770
 3042TIP3    H133321   2.610   3.832  14.301 -1.5625 -0.4570 -0.8502
 3042TIP3    H233322   2.620   3.968  14.366  0.2172 -1.2308  0.6087
 3043TIP3   OH233323   1.152   2.659  16.257  0.4611 -1.3345 -0.4386
 3043TIP3    H133324   1.058   2.643  16.247 -0.1685  0.6585  1.4049
 3043TIP3    H233325   1.186   2.580  16.299 -0.1417 -2.5061 -2.0670
 3044TIP3   OH233326   2.041   6.554  16.981  0.0008  0.0912 -0.1235
 3044TIP3    H133327   2.071   6.633  17.026  0.4827 -0.3865  0.4175
 3044TIP3    H233328   1.951   6.541  17.011  0.6503 -0.8098  1.5687
 3045TIP3   OH233329   1.677   4.542  14.904 -0.0088  0.6875  0.0569
 3045TIP3    H133330   1.662   4.477  14.972 -1.1578  2.6503  1.7683
 3045TIP3    H233331   1.592   4.554  14.863 -0.0345  1.7876  0.4119
 3046TIP3   OH233332   1.360   5.784  15.710 -0.0102  0.4739 -0.2466
 3046TIP3    H133333   1.387   5.712  15.653  0.4603 -0.1951  0.7919
 3046TIP3    H233334   1.378   5.863  15.658 -0.5396 -0.1443 -1.3960
 3047TIP3   OH233335   1.180   0.098  15.501 -0.0564  0.2550  0.3556
 3047TIP3    H133336   1.149   0.015  15.537 -0.6698  0.0502 -0.6090
 3047TIP3    H233337   1.261   0.116  15.549 -1.1869  0.3645  2.3076
 3048TIP3   OH233338   1.621   2.347  16.017  0.1611 -0.0761  0.0044
 3048TIP3    H133339   1.587   2.263  16.049 -0.2727  0.9423  2.4443
 3048TIP3    H233340   1.574   2.362  15.936  1.3000 -2.8347 -1.3069
 3049TIP3   OH233341   3.301   0.216  15.709  0.4650 -0.5037 -0.4476
 3049TIP3    H133342   3.277   0.151  15.776 -2.1406  0.4933 -0.2892
 3049TIP3    H233343   3.251   0.189  15.631 -0.1954  0.9428 -0.5485
 3050TIP3   OH233344   6.751   4.397  15.338  0.1703 -0.4510  0.1166
 3050TIP3    H133345   6.656   4.383  15.343  0.3883 -1.9156  0.7782
 3050TIP3    H233346   6.788   4.330  15.396  1.5647  0.8699  0.8131
 3051TIP3   OH233347   3.276   0.560  16.313 -0.1328 -0.1771  0.4517
 3051TIP3    H133348   3.342   0.492  16.297 -0.3082 -0.2085 -0.1675
 3051TIP3    H233349   3.242   0.540  16.400  0.4055 -0.3871  0.6219
 3052TIP3   OH233350   5.423   0.891  14.875 -0.2964 -0.0704 -0.1266
 3052TIP3    H133351   5.479   0.956  14.832 -1.8908  0.4388 -1.5606
 3052TIP3    H233352   5.479   0.814  14.886  0.9147  0.6976 -0.7362
 3053TIP3   OH233353   4.270   2.412  16.246 -0.4480  0.2928  0.2849
 3053TIP3    H133354   4.260   2.450  16.333  0.1837  1.1254  0.0138
 3053TIP3    H233355   4.184   2.422  16.205 -0.7002  0.0482  0.7515
 3054TIP3   OH233356   6.085   1.863  15.927  0.0577  0.3704  0.5874
 3054TIP3    H133357   6.089   1.881  15.833 -0.7639  0.2934  0.5252
 3054TIP3    H233358   6.139   1.931  15.967 -0.2233  0.8809  0.1133
 3055TIP3   OH233359   2.597   3.395  14.317  0.0646 -0.3586  0.2225
 3055TIP3    H133360   2.530   3.370  14.381 -0.3209  0.4896  0.1623
 3055TIP3    H233361   2.550   3.400  14.234 -0.0549  1.2828  0.3551
 3056TIP3   OH233362   3.978   6.464  15.415  0.4572  0.0955 -0.3595
 3056TIP3    H133363   3.942   6.436  15.330  0.8769  0.4516 -0.6581
 3056TIP3    H233364   4.048   6.402  15.433 -0.4768 -0.7785  0.3640
 3057TIP3   OH233365   6.451   2.426  16.689 -0.2046  0.1266 -0.0444
 3057TIP3    H133366   6.397   2.399  16.763  0.3150  0.3413  0.4224
 3057TIP3    H233367   6.510   2.492  16.725  1.0956 -0.8568 -0.2672
 3058TIP3   OH233368   2.974   0.913  16.932 -0.5821 -0.2246  0.3739
 3058TIP3    H133369   2.923   0.848  16.884 -1.9465 -0.7265  2.3748
 3058TIP3    H233370   2.910   0.959  16.985  0.7795  0.7053  1.2741
 3059TIP3   OH233371   4.103   1.791  14.337  0.3675  0.3206  0.0927
 3059TIP3    H133372   4.175   1.772  14.278  1.1087  1.3878  0.6178
 3059TIP3    H233373   4.144   1.821  14.417 -0.6197  2.6790 -0.1882
 3060TIP3   OH233374   2.030   0.963  15.304 -0.0486  0.0342  0.0115
 3060TIP3    H133375   2.089   0.887  15.306  0.6796  0.5832 -0.0528
 3060TIP3    H233376   1.950   0.933  15.347 -0.0390 -0.9901 -0.6334
 3061TIP3   OH233377   2.269   5.029  16.494 -0.0541 -0.0601  0.2900
 3061TIP3    H133378   2.357   5.012  16.460 -0.1751 -0.9774  0.3895
 3061TIP3    H233379   2.215   5.040  16.416  0.1825  0.6891  0.2306
 3062TIP3   OH233380   6.406   2.103  15.895  0.3640  0.2262  0.3735
 3062TIP3    H133381   6.353   2.052  15.956 -0.9248  1.8919  0.7225
 3062TIP3    H233382   6.395   2.060  15.811 -0.6070 -0.1227  0.6708
 3063TIP3   OH233383   2.476   1.801  14.767  0.0817  0.0225  0.1546
 3063TIP3    H133384   2.410   1.741  14.731 -1.9388  2.4775 -0.5223
 3063TIP3    H233385   2.442   1.824  14.854 -0.0831  1.4116 -0.2525
 3064TIP3   OH233386   5.797   6.056  15.782 -0.2821 -0.3382 -0.3444
 3064TIP3    H133387   5.705   6.080  15.775 -0.2317 -0.2303 -0.7202
 3064TIP3    H233388   5.800   5.963  15.760 -0.3290 -0.3967 -0.1048
 3065TIP3   OH233389   0.733   0.098  16.092  1.3049 -0.1435  0.2321
 3065TIP3    H133390   0.756   0.052  16.011 -0.8154 -0.3807 -0.3013
 3065TIP3    H233391   0.679   0.036  16.140  0.1633  1.0099  0.4826
 3066TIP3   OH233392   5.876   5.111  16.492  0.2194 -0.0196  0.0087
 3066TIP3    H133393   5.861   5.080  16.581  2.3071 -0.4881  0.2457
 3066TIP3    H233394   5.821   5.055  16.437 -2.3441  1.2786  1.0264
 3067TIP3   OH233395   3.158   2.557  17.124 -0.3928  0.2619  0.3870
 3067TIP3    H133396   3.132   2.645  17.095 -0.7106  0.6868  1.8594
 3067TIP3    H233397   3.245   2.571  17.162 -0.8453  0.1478  1.5003
 3068TIP3   OH233398   3.807   1.515  15.186  0.2582  0.3659 -0.2002
 3068TIP3    H133399   3.712   1.512  15.180  0.3038  0.5956 -1.1498
 3068TIP3    H233400   3.826   1.604  15.218  0.0572 -0.5876  2.9489
 3069TIP3   OH233401   6.487   0.649  14.211  0.5963 -0.0024  0.4977
 3069TIP3    H133402   6.522   0.577  14.158  0.6525 -0.4978  1.1877
 3069TIP3    H233403   6.396   0.655  14.184  0.9062  0.5182 -0.4735
 3070TIP3   OH233404   0.935   0.609  14.361 -0.9822 -0.1593 -0.4228
 3070TIP3    H133405   0.935   0.639  14.270  0.2038 -0.1034 -0.4233
 3070TIP3    H233406   0.981   0.525  14.359 -2.0341 -0.7612 -0.0421
 3071TIP3   OH233407   5.222   5.527  16.977  0.1079 -0.2234  0.2336
 3071TIP3    H133408   5.315   5.550  16.975  0.9582 -3.2319 -0.1237
 3071TIP3    H233409   5.220   5.437  17.011 -2.6275 -0.5075 -0.4128
 3072TIP3   OH233410   6.377   5.338  15.227 -0.4177  0.4326  0.3424
 3072TIP3    H133411   6.349   5.347  15.135 -4.6424 -1.7816  1.1229
 3072TIP3    H233412   6.314   5.390  15.276  0.9450  0.5025  2.1026
 3073TIP3   OH233413   3.722   5.816  13.839  0.2625  0.2201  0.4148
 3073TIP3    H133414   3.807   5.799  13.880  0.1808 -1.2713  0.0336
 3073TIP3    H233415   3.692   5.898  13.878  2.3142  1.3197 -0.1526
 3074TIP3   OH233416   3.639   5.884  16.147 -0.4927 -0.1093  0.0802
 3074TIP3    H133417   3.581   5.959  16.148 -1.1970 -0.5340  3.1832
 3074TIP3    H233418   3.586   5.812  16.182  1.3498 -0.9152  1.4337
 3075TIP3   OH233419   6.055   1.450  14.522  0.4795 -0.0439 -0.2936
 3075TIP3    H133420   6.112   1.405  14.460  1.7009 -0.6597  1.2146
 3075TIP3    H233421   5.972   1.402  14.519  0.4580  0.0405 -1.5374
 3076TIP3   OH233422   4.807   1.161  14.765  0.1702 -0.3390  0.1011
 3076TIP3    H133423   4.742   1.110  14.813 -0.3314  0.7553  0.6184
 3076TIP3    H233424   4.758   1.237  14.734  0.7536 -0.4741 -1.2061
 3077TIP3   OH233425   2.822   5.524  16.327  0.3987 -0.3896 -0.4666
 3077TIP3    H133426   2.792   5.444  16.283  0.0775 -1.6807  1.8968
 3077TIP3    H233427   2.904   5.499  16.368 -0.2925  0.0751  1.3090
 3078TIP3   OH233428   4.909   3.564  16.325  0.7969  0.3723  0.3357
 3078TIP3    H133429   4.948   3.605  16.248 -0.0893 -2.1435 -1.5811
 3078TIP3    H233430   4.830   3.521  16.293  0.5611 -1.0641  2.5849
 3079TIP3   OH233431   3.619   1.284  14.560 -0.9005  0.1397  0.4473
 3079TIP3    H133432   3.631   1.322  14.473 -1.2646 -0.5352  0.0951
 3079TIP3    H233433   3.571   1.351  14.609 -2.5299 -0.2807 -0.4985
 3080TIP3   OH233434   1.157   6.663  14.628 -0.4019 -0.6444 -0.1743
 3080TIP3    H133435   1.228   6.711  14.671 -1.5559  2.4219 -1.4578
 3080TIP3    H233436   1.108   6.623  14.700  2.0287 -2.1304  0.7858
 3081TIP3   OH233437   5.819   6.094  16.078  0.1167 -0.2201 -0.9169
 3081TIP3    H133438   5.730   6.102  16.043 -0.5352 -1.8177  0.2185
 3081TIP3    H233439   5.865   6.039  16.016 -1.3335 -3.9296  0.9687
 3082TIP3   OH233440   0.961   3.346  14.679 -0.0319  0.2180  0.2932
 3082TIP3    H133441   1.042   3.313  14.718  1.7429  1.1364 -2.3301
 3082TIP3    H233442   0.921   3.399  14.747  0.7351 -1.4748  2.1680
 3083TIP3   OH233443   4.707   4.631  14.996 -0.1358 -0.3314  0.1030
 3083TIP3    H133444   4.711   4.643  14.901  0.8530 -0.7703  0.0771
 3083TIP3    H233445   4.761   4.703  15.031 -0.7211 -0.0062  0.3540
 3084TIP3   OH233446   3.132   4.777  16.372 -0.3748  0.3332 -0.1103
 3084TIP3    H133447   3.121   4.871  16.357  0.3896  0.4524  0.0185
 3084TIP3    H233448   3.188   4.747  16.300 -0.2458  0.0681  0.0952
 3085TIP3   OH233449   3.310   5.818  16.607 -0.4593 -0.9091  0.5382
 3085TIP3    H133450   3.402   5.835  16.584  0.3118  0.8995  4.1945
 3085TIP3    H233451   3.262   5.891  16.567  0.3206  0.3000  1.7253
 3086TIP3   OH233452   2.476   4.919  15.509 -0.2794 -0.2076 -0.3986
 3086TIP3    H133453   2.470   4.975  15.432  0.1786  2.4885  1.3821
 3086TIP3    H233454   2.393   4.871  15.511 -1.0137  0.9590 -1.6202
 3087TIP3   OH233455   5.717   0.862  16.198  0.1987  0.0835 -0.0979
 3087TIP3    H133456   5.636   0.817  16.174  0.5490  0.1113 -1.4518
 3087TIP3    H233457   5.783   0.826  16.138  1.7635 -1.6712  2.5092
 3088TIP3   OH233458   0.397   2.531  13.538 -0.2120  0.5801 -0.1053
 3088TIP3    H133459   0.389   2.614  13.491 -2.6902  1.3917  1.5690
 3088TIP3    H233460   0.397   2.556  13.630  1.8260 -1.1440  0.4302
 3089TIP3   OH233461   5.836   5.781  15.709 -0.8020  0.0474  0.1620
 3089TIP3    H133462   5.772   5.721  15.671  0.2658 -0.7791 -0.4033
 3089TIP3    H233463   5.896   5.723  15.757 -0.3714  0.7844  0.5248
 3090TIP3   OH233464   0.126   2.705  14.143 -0.3723  0.3890 -0.2977
 3090TIP3    H133465   0.100   2.795  14.123 -3.5693 -0.0064  1.3710
 3090TIP3    H233466   0.093   2.690  14.232 -0.7051 -2.6670 -0.8232
 3091TIP3   OH233467   3.713   6.220  15.353  0.3896 -0.3392  0.0109
 3091TIP3    H133468   3.690   6.162  15.280 -0.3706 -1.7012  1.2633
 3091TIP3    H233469   3.733   6.160  15.425  0.9303  0.9645  0.9723
 3092TIP3   OH233470   5.274   0.631  15.971  0.2071 -0.1511 -0.2735
 3092TIP3    H133471   5.222   0.625  15.891  0.0761  0.6742 -0.2549
 3092TIP3    H233472   5.330   0.708  15.957 -1.4389  1.4451  1.3610
 3093TIP3   OH233473   4.125   1.796  16.908 -0.3692  0.0466  0.8077
 3093TIP3    H133474   4.128   1.702  16.893 -0.6934 -0.0849  1.5246
 3093TIP3    H233475   4.068   1.807  16.985 -2.1935  0.9848 -0.5834
 3094TIP3   OH233476   1.036   4.235  15.111 -0.7374 -0.3942 -0.1810
 3094TIP3    H133477   1.116   4.253  15.062  0.1075 -1.3874  0.7896
 3094TIP3    H233478   0.970   4.289  15.068  0.7783  1.7910  0.0394
 3095TIP3   OH233479   4.247   6.509  16.296  0.8655  0.3691  0.6091
 3095TIP3    H133480   4.332   6.473  16.322  1.1864  0.3044 -0.4862
 3095TIP3    H233481   4.217   6.451  16.225  0.9906  1.7224 -0.5915
 3096TIP3   OH233482   1.775   5.909  14.977  0.3045 -0.5003  0.2263
 3096TIP3    H133483   1.739   5.891  14.890  1.1573 -0.0505 -0.2426
 3096TIP3    H233484   1.767   6.003  14.988  1.0171 -0.4308  0.2413
 3097TIP3   OH233485   2.682   3.820  15.367 -0.0073  0.5380 -0.0337
 3097TIP3    H133486   2.603   3.873  15.378  0.4389  1.0890  0.5338
 3097TIP3    H233487   2.699   3.782  15.453 -0.0770 -0.1952 -0.3323
 3098TIP3   OH233488   0.825   2.844  15.384  0.2242  0.5003  0.4219
 3098TIP3    H133489   0.766   2.879  15.317 -0.5836 -0.9501  0.3171
 3098TIP3    H233490   0.781   2.764  15.414  2.5090 -1.1480 -0.2929
 3099TIP3   OH233491   3.754   0.745  16.120 -0.3226 -0.0541  0.2228
 3099TIP3    H133492   3.703   0.824  16.104  1.7548  1.0344 -1.6354
 3099TIP3    H233493   3.763   0.704  16.034  2.4200  0.1964  0.2948
 3100TIP3   OH233494   4.343   1.205  14.192 -0.6605 -0.0010 -0.4722
 3100TIP3    H133495   4.348   1.145  14.118 -0.0286 -1.1862  0.4945
 3100TIP3    H233496   4.429   1.247  14.195 -0.0779 -1.2249  0.5973
 3101TIP3   OH233497   4.282   4.447  15.425 -0.3238  0.0357 -0.0578
 3101TIP3    H133498   4.213   4.484  15.371 -2.4019 -2.2946  0.8010
 3101TIP3    H233499   4.334   4.394  15.365  0.3292  1.2077 -0.5662
 3102TIP3   OH233500   5.424   2.657  16.440  0.1895  0.0620 -0.0325
 3102TIP3    H133501   5.376   2.735  16.413 -0.2007  0.2713  1.2366
 3102TIP3    H233502   5.356   2.596  16.471  0.4966 -0.7431 -0.8820
 3103TIP3   OH233503   2.038   5.573  13.729  0.0849  0.3759  0.5229
 3103TIP3    H133504   2.058   5.635  13.659  0.1305 -0.7285 -0.4636
 3103TIP3    H233505   2.006   5.495  13.684 -1.2741  0.1405  1.8025
 3104TIP3   OH233506   6.651   6.378  14.841 -0.1305  0.0409 -0.0681
 3104TIP3    H133507   6.584   6.447  14.835  1.1358  1.3099 -0.1706
 3104TIP3    H233508   6.703   6.390  14.761  0.6643 -0.4394  0.3794
 3105TIP3   OH233509   2.405   3.947  15.429  0.3719  0.1594 -0.5954
 3105TIP3    H133510   2.421   3.883  15.499  0.0402 -0.7622 -1.3335
 3105TIP3    H233511   2.477   4.009  15.435  0.7725 -0.3646  0.0645
 3106TIP3   OH233512   6.709   5.833  14.507  0.2067  0.3812 -0.4372
 3106TIP3    H133513   6.736   5.785  14.429 -1.2603  1.7659 -1.8778
 3106TIP3    H233514   6.740   5.779  14.580  1.3403 -1.1327 -1.9489
 3107TIP3   OH233515   4.107   5.462  15.206  0.0121 -0.1785 -0.0396
 3107TIP3    H133516   4.051   5.422  15.272 -0.2761 -0.2477 -0.3262
 3107TIP3    H233517   4.180   5.500  15.256  0.1319 -0.7942  0.2577
 3108TIP3   OH233518   5.286   2.608  13.406  0.1267 -0.0171  0.1683
 3108TIP3    H133519   5.347   2.680  13.394 -0.9874  0.9790  0.2467
 3108TIP3    H233520   5.274   2.571  13.318 -0.4822  0.9205 -0.1617
 3109TIP3   OH233521   0.746   1.139  15.734  0.1726 -0.1271  0.3560
 3109TIP3    H133522   0.781   1.063  15.782 -1.5175 -0.7904  0.6162
 3109TIP3    H233523   0.694   1.101  15.664 -1.5444  0.7423  1.0963
 3110TIP3   OH233524   4.696   2.450  14.684  0.1851  0.2128  0.1089
 3110TIP3    H133525   4.682   2.538  14.649  0.1934  0.5341  0.8825
 3110TIP3    H233526   4.618   2.433  14.737  0.7975  0.3246  1.0764
 3111TIP3   OH233527   0.644   6.751  14.946  0.3943 -0.3319 -0.1987
 3111TIP3    H133528   0.633   6.664  14.985 -0.4922  0.0331  0.4078
 3111TIP3    H233529   0.555   6.776  14.920  0.8703 -0.2333 -1.7651
 3112TIP3   OH233530   5.498   0.006  14.165  0.1772 -0.1090 -0.2613
 3112TIP3    H133531   5.468   0.020  14.076  1.5137  3.6514 -0.2908
 3112TIP3    H233532   5.588  -0.024  14.156  0.2411  0.0558 -0.1809
 3113TIP3   OH233533   4.479   3.233  16.239 -0.2390  0.4851 -0.0796
 3113TIP3    H133534   4.421   3.307  16.223  0.1592  0.3597 -2.3367
 3113TIP3    H233535   4.561   3.273  16.269 -0.2852  0.8947 -0.5028
 3114TIP3   OH233536   3.263   2.104  14.638  0.0180  0.3473 -0.4214
 3114TIP3    H133537   3.316   2.064  14.569  0.7155  2.6932 -1.3457
 3114TIP3    H233538   3.175   2.072  14.622  0.2785  0.3410 -2.0556
 3115TIP3   OH233539   4.929   1.114  15.387 -0.8608  0.8007  0.5559
 3115TIP3    H133540   4.887   1.032  15.360 -0.2316  0.0981  1.6933
 3115TIP3    H233541   4.873   1.182  15.349 -2.0254 -0.1361  0.5412
 3116TIP3   OH233542   6.241   2.495  15.898  0.1614 -0.1308  0.0139
 3116TIP3    H133543   6.300   2.439  15.949  0.1251 -1.5842 -1.4699
 3116TIP3    H233544   6.205   2.438  15.831 -1.5226  1.1926 -0.2737
 3117TIP3   OH233545   3.763   1.636  16.306 -0.1632  0.0851 -0.3846
 3117TIP3    H133546   3.776   1.549  16.343  0.0217  0.9453  1.7147
 3117TIP3    H233547   3.852   1.671  16.293 -0.2464  0.5210  0.2024
 3118TIP3   OH233548   2.592   5.561  16.481 -0.5931 -0.4478  0.4014
 3118TIP3    H133549   2.656   5.499  16.444 -1.2021  0.5630 -2.6445
 3118TIP3    H233550   2.604   5.554  16.576  1.0305 -3.4168  0.1008
 3119TIP3   OH233551   6.558   1.801  15.949 -0.0261 -0.2472  0.3480
 3119TIP3    H133552   6.562   1.776  16.041 -0.9472  0.3087  0.5460
 3119TIP3    H233553   6.471   1.773  15.920 -0.4525  1.2271  0.1427
 3120TIP3   OH233554   5.721   0.860  16.737 -0.4302  0.8643  0.0280
 3120TIP3    H133555   5.784   0.885  16.805  1.9002 -0.7258 -1.4124
 3120TIP3    H233556   5.766   0.879  16.655 -2.0296  0.0387 -1.0738
 3121TIP3   OH233557   4.924   4.928  16.842 -0.2639  0.3473 -0.1677
 3121TIP3    H133558   4.997   4.867  16.854 -0.0189  1.0902  3.0025
 3121TIP3    H233559   4.954   5.010  16.882 -1.6184  1.7217 -1.8278
 3122TIP3   OH233560   3.896   4.891  17.167 -0.7919 -0.0511  0.6619
 3122TIP3    H133561   3.962   4.946  17.125 -1.4494 -0.4794 -1.0312
 3122TIP3    H233562   3.927   4.802  17.152 -0.3830 -0.2004  2.2676
 3123TIP3   OH233563   0.036   2.222  14.968 -0.3118 -0.2565  0.0772
 3123TIP3    H133564   0.086   2.145  14.994  1.7253  1.0887  0.4172
 3123TIP3    H233565   0.004   2.202  14.881  0.1569 -1.5000  0.1722
 3124TIP3   OH233566   2.119   0.082  17.112 -0.5133 -0.1592  0.5035
 3124TIP3    H133567   2.155   0.153  17.164 -0.5433  0.3449 -0.1474
 3124TIP3    H233568   2.044   0.120  17.066 -0.6236 -0.6472  0.2675
 3125TIP3   OH233569   1.639   5.812  14.737  0.0105  0.0501 -0.1037
 3125TIP3    H133570   1.617   5.741  14.797 -0.3148 -0.8880 -1.2936
 3125TIP3    H233571   1.555   5.842  14.703  0.2540 -1.4537 -2.2996
 3126TIP3   OH233572   1.325   5.651  15.037  0.4389 -0.4066  0.6597
 3126TIP3    H133573   1.246   5.623  14.989  1.1536  0.6126 -1.2275
 3126TIP3    H233574   1.293   5.715  15.099 -0.2831 -0.2340  0.1280
 3127TIP3   OH233575   3.930   3.968  15.268 -0.2897  0.3608 -0.5763
 3127TIP3    H133576   3.984   3.889  15.271  0.1646  0.6830  1.4460
 3127TIP3    H233577   3.842   3.936  15.250 -0.2305 -0.7218  0.8702
 3128TIP3   OH233578   3.794   2.970  17.083  0.1636 -0.4914 -0.2914
 3128TIP3    H133579   3.708   2.963  17.125  1.6071 -0.4454  2.9306
 3128TIP3    H233580   3.817   2.880  17.060  0.0551 -0.7394  0.5657
 3129TIP3   OH233581   4.722   6.550  14.880  0.3318 -0.6600  0.0472
 3129TIP3    H133582   4.785   6.553  14.808  0.3719 -0.6666  0.0828
 3129TIP3    H233583   4.643   6.589  14.843  0.6741  0.3345  0.3218
 3130TIP3   OH233584   2.587   4.357  15.562 -0.1204  0.2227  0.0921
 3130TIP3    H133585   2.544   4.440  15.542  0.4124  0.3356 -0.6161
 3130TIP3    H233586   2.681   4.378  15.561 -0.0153 -0.1633  0.9541
 3131TIP3   OH233587   5.167   5.819  16.119 -0.2599  0.1835  0.2493
 3131TIP3    H133588   5.142   5.737  16.160 -2.0450  0.4895 -0.1538
 3131TIP3    H233589   5.130   5.814  16.031  1.8043  0.3715 -0.7075
 3132TIP3   OH233590   5.394   5.159  14.653 -0.2734 -0.3289 -0.0609
 3132TIP3    H133591   5.490   5.156  14.650 -0.2747 -0.1837 -0.2630
 3132TIP3    H233592   5.374   5.209  14.733 -0.1914 -0.9734  0.3680
 3133TIP3   OH233593   3.275   6.493  13.957  0.1272 -0.3598  0.8181
 3133TIP3    H133594   3.221   6.510  13.880 -0.3891  0.2845  1.3076
 3133TIP3    H233595   3.250   6.405  13.985  0.1053 -0.4829  0.4268
 3134TIP3   OH233596   2.669   2.170  16.692  0.0615  0.2538 -0.2595
 3134TIP3    H133597   2.687   2.086  16.734 -1.2775  0.4727  0.8405
 3134TIP3    H233598   2.661   2.150  16.599  0.9292 -0.6203 -0.1651
 3135TIP3   OH233599   0.772   0.847  14.418  0.4916  0.6018  0.5584
 3135TIP3    H133600   0.730   0.855  14.333  1.2050 -0.1501  0.1191
 3135TIP3    H233601   0.812   0.759  14.417  2.2208  1.3386  0.8623
 3136TIP3   OH233602   1.735   0.109  14.914  0.1538  0.0513 -0.2010
 3136TIP3    H133603   1.692   0.175  14.860  0.5327 -0.1878 -0.7994
 3136TIP3    H233604   1.663   0.060  14.955 -0.1704 -0.5486 -1.4387
 3137TIP3   OH233605   5.332   0.400  15.189  0.0765  0.5318  0.0539
 3137TIP3    H133606   5.401   0.463  15.167  1.0448 -0.2327  0.8452
 3137TIP3    H233607   5.260   0.454  15.221  0.4120  1.3182 -0.4747
 3138TIP3   OH233608   5.580   0.228  15.665  0.0707 -0.8571 -0.5633
 3138TIP3    H133609   5.611   0.318  15.655  1.0708 -0.8534  1.8261
 3138TIP3    H233610   5.640   0.189  15.728  0.0066 -3.4171 -1.9472
 3139TIP3   OH233611   1.472   6.676  15.312  0.3151 -0.0489  0.3006
 3139TIP3    H133612   1.454   6.604  15.373  0.2480 -0.0807  0.2432
 3139TIP3    H233613   1.475   6.754  15.367 -0.9198  0.0903  0.1949
 3140TIP3   OH233614   3.490   4.559  17.108  0.0031 -0.2157  0.2512
 3140TIP3    H133615   3.398   4.531  17.100  0.1412 -0.8284  0.7657
 3140TIP3    H233616   3.541   4.481  17.086  0.3965 -0.0992  0.7251
 3141TIP3   OH233617   4.887   1.730  14.716  0.8145  0.0359  0.1507
 3141TIP3    H133618   4.966   1.707  14.668  1.5304 -0.4599  1.5203
 3141TIP3    H233619   4.917   1.790  14.784 -0.5069  2.4503 -1.2570
 3142TIP3   OH233620   0.339   3.277  16.559  0.3271 -0.1741 -0.0816
 3142TIP3    H133621   0.341   3.296  16.652  1.3807 -1.9346  0.3024
 3142TIP3    H233622   0.431   3.267  16.534  0.1215  1.0530 -1.5133
 3143TIP3   OH233623   4.327   5.565  16.055 -0.0745  0.3398  0.2205
 3143TIP3    H133624   4.252   5.600  16.103 -0.3968 -0.9165  0.6898
 3143TIP3    H233625   4.370   5.507  16.118  0.5033  0.0009 -0.4722
 3144TIP3   OH233626   5.712   0.344  16.010  0.2221  0.6699 -0.0908
 3144TIP3    H133627   5.721   0.440  16.016 -0.2611  0.7276 -0.2650
 3144TIP3    H233628   5.630   0.331  15.964 -1.0811  0.1357  2.2515
 3145TIP3   OH233629   4.586   2.493  16.358  0.1238 -0.1568 -0.1023
 3145TIP3    H133630   4.527   2.419  16.369 -0.0828 -0.1466 -1.0747
 3145TIP3    H233631   4.578   2.542  16.440  0.7120 -1.5048  0.7987
 3146TIP3   OH233632   1.798   3.822  15.118  0.1104 -0.4501  0.2515
 3146TIP3    H133633   1.826   3.805  15.028  0.0344 -0.8655  0.3023
 3146TIP3    H233634   1.861   3.775  15.172 -0.6484 -1.3895  0.3687
 3147TIP3   OH233635   5.929   5.074  15.691  0.2098  0.3905 -0.5476
 3147TIP3    H133636   5.898   5.091  15.602 -2.7936 -1.1538  0.0673
 3147TIP3    H233637   5.914   5.156  15.738  1.3638  1.0645 -1.3016
 3148TIP3   OH233638   1.353   5.523  13.897  0.2139  0.7853  0.3608
 3148TIP3    H133639   1.437   5.534  13.940 -1.7350  1.5045  4.5485
 3148TIP3    H233640   1.326   5.612  13.873  0.5288  0.5762 -0.8254
 3149TIP3   OH233641   4.555   2.307  15.033 -0.6810 -0.1575  0.4719
 3149TIP3    H133642   4.521   2.228  15.076 -0.9974  0.0860  0.6682
 3149TIP3    H233643   4.569   2.369  15.104 -1.5924  0.3938  0.1784
 3150TIP3   OH233644   3.949   1.100  16.872 -0.2593 -0.5973 -0.0872
 3150TIP3    H133645   3.961   1.006  16.864  2.4856 -0.4256  0.8423
 3150TIP3    H233646   4.033   1.138  16.844 -1.1979  1.5698 -0.2162
 3151TIP3   OH233647   4.432   6.242  16.898 -0.6260 -0.4980 -0.2521
 3151TIP3    H133648   4.407   6.208  16.983 -0.8801 -1.1117 -0.5660
 3151TIP3    H233649   4.444   6.164  16.843  4.1617 -0.5294  0.3840
 3152TIP3   OH233650   1.907   1.492  14.671 -0.2078 -0.0154 -0.0671
 3152TIP3    H133651   1.948   1.525  14.751  3.5760  1.3529 -2.2716
 3152TIP3    H233652   1.979   1.455  14.620 -1.8263  1.4025 -3.8418
 3153TIP3   OH233653   1.103   5.800  17.287 -0.3095  0.5818  0.4121
 3153TIP3    H133654   1.017   5.769  17.318 -0.0170 -0.0871  0.5791
 3153TIP3    H233655   1.163   5.729  17.310  0.2659  0.9877  0.1682
 3154TIP3   OH233656   3.313   1.089  17.235  0.1641  0.5648 -0.0736
 3154TIP3    H133657   3.406   1.096  17.214  0.4412  2.8179  1.5346
 3154TIP3    H233658   3.279   1.177  17.224 -1.7811 -0.1759 -0.4417
 3155TIP3   OH233659   1.416   0.383  15.751 -0.1342 -0.2490  0.3722
 3155TIP3    H133660   1.360   0.450  15.712 -0.1963  0.3515  1.4298
 3155TIP3    H233661   1.355   0.316  15.783 -0.3127  0.5536  1.8007
 3156TIP3   OH233662   4.337   2.175  15.193  0.4687  0.2560 -0.1087
 3156TIP3    H133663   4.271   2.131  15.246  0.2125  0.1026 -0.5474
 3156TIP3    H233664   4.301   2.262  15.176  0.5414  0.2985 -0.0487
 3157TIP3   OH233665   5.628   0.022  14.722  0.6266 -0.3458 -0.2947
 3157TIP3    H133666   5.680  -0.018  14.652  2.5758  0.4267  0.6429
 3157TIP3    H233667   5.617   0.113  14.696 -0.6905 -0.6040 -0.6994
 3158TIP3   OH233668   0.329   3.073  16.082 -0.3952 -0.3180 -0.3716
 3158TIP3    H133669   0.243   3.045  16.115  0.9254 -0.8152  2.9821
 3158TIP3    H233670   0.389   3.056  16.154  2.0884  2.6957 -1.5200
 3159TIP3   OH233671   2.422   4.765  14.985  0.4183 -0.0766  0.2890
 3159TIP3    H133672   2.378   4.850  14.975  0.0895 -0.2957 -0.1500
 3159TIP3    H233673   2.457   4.767  15.074  0.5986  0.6081  0.2089
 3160TIP3   OH233674   4.499   6.363  16.327 -0.2777 -0.6426  0.5306
 3160TIP3    H133675   4.547   6.408  16.397  0.0536 -0.2577  0.0573
 3160TIP3    H233676   4.509   6.270  16.348 -0.5966 -0.5219  1.2676
 3161TIP3   OH233677   4.907   5.403  16.453  0.0641 -0.2686  0.2227
 3161TIP3    H133678   4.956   5.337  16.404 -0.9013 -0.2319 -0.8382
 3161TIP3    H233679   4.887   5.361  16.537  1.2406 -0.5407  0.3915
 3162TIP3   OH233680   5.100   0.093  16.128  0.2366 -0.2377  0.2152
 3162TIP3    H133681   5.102   0.034  16.203 -1.5006  0.1006  0.5697
 3162TIP3    H233682   5.159   0.165  16.152  1.1696 -1.0410  0.4198
 3163TIP3   OH233683   5.241   4.178  15.453 -0.2213  0.2052 -0.2121
 3163TIP3    H133684   5.186   4.156  15.378  0.8519 -0.1969 -0.8976
 3163TIP3    H233685   5.203   4.259  15.488 -0.7225  0.4034 -1.1955
 3164TIP3   OH233686   0.780   5.582  15.296  0.7633 -0.4365  0.0300
 3164TIP3    H133687   0.857   5.596  15.350  0.8685 -0.2810 -0.1615
 3164TIP3    H233688   0.787   5.646  15.225  0.8966 -0.9924 -0.4639
 3165TIP3   OH233689   5.551   3.012  15.708 -0.2338  0.2052  0.5455
 3165TIP3    H133690   5.480   2.949  15.725  0.2799 -0.6994 -0.5630
 3165TIP3    H233691   5.628   2.957  15.692  0.7922  1.1758  1.9314
 3166TIP3   OH233692   1.133   5.437  14.948 -0.4235 -0.5090 -0.2702
 3166TIP3    H133693   1.142   5.372  15.018  3.2611  0.0403 -0.0244
 3166TIP3    H233694   1.125   5.385  14.868  2.5435 -1.4217 -0.0898
 3167TIP3   OH233695   3.763   2.203  17.043  0.1574 -0.8407  0.0877
 3167TIP3    H133696   3.825   2.255  16.990 -1.2132  0.2672 -0.4951
 3167TIP3    H233697   3.679   2.247  17.032 -0.5938 -1.8147  1.5446
 3168TIP3   OH233698   3.873   5.085  14.112  0.1131  0.2770  0.1240
 3168TIP3    H133699   3.937   5.143  14.152  1.6217 -0.6925 -0.7391
 3168TIP3    H233700   3.845   5.131  14.033  0.1524  0.4760  0.2264
 3169TIP3   OH233701   6.509   0.186  15.812  0.1718 -0.0122 -0.1511
 3169TIP3    H133702   6.567   0.184  15.888  1.9272 -1.7315 -1.4436
 3169TIP3    H233703   6.536   0.111  15.759 -1.9718  0.2767 -1.7692
 3170TIP3   OH233704   2.852   4.774  13.621  0.2565 -0.7382 -0.4098
 3170TIP3    H133705   2.873   4.699  13.565 -1.2696 -0.2644 -1.7131
 3170TIP3    H233706   2.758   4.767  13.635  0.2423  0.4469  0.1917
 3171TIP3   OH233707   1.068   2.954  15.292 -0.0467  0.8979 -0.7104
 3171TIP3    H133708   0.986   2.920  15.328 -0.0162  0.6933 -0.8351
 3171TIP3    H233709   1.134   2.930  15.356  0.0109  0.5149 -0.9084
 3172TIP3   OH233710   6.348   6.227  17.147  0.4050  0.2597  0.6697
 3172TIP3    H133711   6.335   6.264  17.059  0.8533 -0.2088  0.3984
 3172TIP3    H233712   6.267   6.247  17.194 -0.3476 -0.5666 -0.2379
 3173TIP3   OH233713   3.200   0.064  15.897 -0.0062  0.3622 -0.2026
 3173TIP3    H133714   3.139   0.052  15.969 -0.7312 -0.8782 -0.9744
 3173TIP3    H233715   3.218  -0.025  15.866  2.4488  0.6465  0.1736
 3174TIP3   OH233716   5.890   4.956  13.393 -0.2517 -0.0055  0.2531
 3174TIP3    H133717   5.875   5.019  13.323 -0.3934  0.8004  0.9931
 3174TIP3    H233718   5.895   5.009  13.473  0.6596 -0.8212  0.7666
 3175TIP3   OH233719   3.288   6.497  17.397  0.4013  0.0016 -0.4161
 3175TIP3    H133720   3.253   6.485  17.485  0.6886  0.4024 -0.2387
 3175TIP3    H233721   3.237   6.439  17.342 -0.5047  0.5338 -0.1586
 3176TIP3   OH233722   2.888   4.826  15.045  0.0888  0.2401  0.4646
 3176TIP3    H133723   2.873   4.857  15.134  0.0200 -1.2388  0.9934
 3176TIP3    H233724   2.885   4.731  15.052  1.7422  0.0465 -0.8268
 3177TIP3   OH233725   0.016   1.666  14.856 -0.6038  0.2966  0.4694
 3177TIP3    H133726   0.069   1.741  14.828  1.3171 -1.4232 -0.7804
 3177TIP3    H233727  -0.039   1.646  14.781  1.1343 -1.3801 -0.4498
 3178TIP3   OH233728   5.709   2.406  14.323  0.0314  0.9864 -0.0754
 3178TIP3    H133729   5.623   2.443  14.340 -0.5654 -0.4960  0.2499
 3178TIP3    H233730   5.717   2.405  14.228 -1.2527 -0.8891 -0.2027
 3179TIP3   OH233731   1.415   5.979  15.537 -0.1045 -0.6617 -0.0897
 3179TIP3    H133732   1.398   5.950  15.448  0.2785  0.5165 -0.5542
 3179TIP3    H233733   1.510   5.991  15.541 -0.1432 -0.4996  0.4192
 3180TIP3   OH233734   3.206   3.475  14.376 -0.5453  0.2676 -0.5866
 3180TIP3    H133735   3.232   3.433  14.458 -2.0680 -0.4914 -0.4669
 3180TIP3    H233736   3.268   3.441  14.311 -0.4467 -0.5274 -0.0903
 3181TIP3   OH233737   3.579   4.972  16.203  0.0510 -0.2950 -0.3080
 3181TIP3    H133738   3.579   5.039  16.134  0.7061 -1.0613 -1.0782
 3181TIP3    H233739   3.507   4.914  16.179 -1.4623  0.8691  1.1484
 3182TIP3   OH233740   6.028   5.165  14.638 -1.0994 -0.0168 -0.5561
 3182TIP3    H133741   5.990   5.252  14.640 -0.6255  0.3430 -3.5411
 3182TIP3    H233742   6.119   5.177  14.667 -1.3180  0.2623  0.0319
 3183TIP3   OH233743   1.561   4.277  15.811  0.2597  0.5260  0.7798
 3183TIP3    H133744   1.583   4.310  15.724  0.4158  1.4267  1.1499
 3183TIP3    H233745   1.625   4.318  15.869 -0.6497  0.9834  1.4947
 3184TIP3   OH233746   4.950   5.601  13.801 -0.1488  0.2069 -0.3914
 3184TIP3    H133747   5.037   5.591  13.839  0.1004  2.8196 -0.0486
 3184TIP3    H233748   4.963   5.589  13.707  0.3573 -0.5135 -0.2362
 3185TIP3   OH233749   4.935   1.496  16.010  0.2710 -0.9664 -0.1504
 3185TIP3    H133750   4.856   1.529  15.967 -0.9706 -1.1635  1.8182
 3185TIP3    H233751   5.007   1.519  15.951 -1.3265 -1.8219 -2.5980
 3186TIP3   OH233752   1.634   4.805  15.415 -0.6779  0.0734 -0.1723
 3186TIP3    H133753   1.639   4.798  15.319 -0.5943  0.5549 -0.2023
 3186TIP3    H233754   1.545   4.775  15.435 -2.0980  3.4505 -0.7480
 3187TIP3   OH233755   4.243   2.280  16.997  0.5295 -0.3386 -0.0052
 3187TIP3    H133756   4.256   2.365  17.038  0.9750  0.3388 -1.5170
 3187TIP3    H233757   4.159   2.249  17.033  0.8666  0.2497  1.3398
 3188TIP3   OH233758   3.978   0.523  15.965 -0.2178  0.5361 -0.0830
 3188TIP3    H133759   4.073   0.528  15.952 -0.4769  0.9045 -2.2304
 3188TIP3    H233760   3.966   0.449  16.024  1.4067  0.7019  0.5189
 3189TIP3   OH233761   1.142   2.504  14.086  0.4966 -0.2090 -0.6304
 3189TIP3    H133762   1.077   2.562  14.048  0.1851  0.4273  0.8087
 3189TIP3    H233763   1.108   2.416  14.070 -0.4872  0.0995 -0.3249
 3190TIP3   OH233764   3.554   0.304  14.579 -0.3203 -0.0285  0.0771
 3190TIP3    H133765   3.598   0.311  14.664 -1.4254  0.8583  0.5942
 3190TIP3    H233766   3.472   0.258  14.599 -0.8190  0.6425 -0.4188
 3191TIP3   OH233767   3.172   0.842  17.283 -0.3305  0.4529  0.6786
 3191TIP3    H133768   3.244   0.903  17.271 -1.3704  1.3163 -1.6805
 3191TIP3    H233769   3.208   0.756  17.259 -0.1926  0.9622 -1.0382
 3192TIP3   OH233770   0.857   4.136  16.873 -0.3527  1.1357  0.5166
 3192TIP3    H133771   0.781   4.184  16.840 -1.1854  0.9074  1.9871
 3192TIP3    H233772   0.918   4.204  16.902 -0.2217  1.3150 -0.1733
 3193TIP3   OH233773   5.759   6.218  16.603 -0.0976  0.2487 -0.7550
 3193TIP3    H133774   5.677   6.210  16.652 -0.7321  1.9084 -1.4739
 3193TIP3    H233775   5.733   6.209  16.511  0.3747  1.5664 -1.0402
 3194TIP3   OH233776   4.263   0.064  14.507 -0.5364 -0.3934 -0.4167
 3194TIP3    H133777   4.328  -0.005  14.514  0.4307  0.6088  1.1473
 3194TIP3    H233778   4.302   0.129  14.449  0.4328  0.7403  1.4194
 3195TIP3   OH233779   6.043   3.900  14.751  0.7447  0.3079  0.0160
 3195TIP3    H133780   6.030   3.835  14.682  1.4591  1.3657 -1.1503
 3195TIP3    H233781   6.099   3.967  14.711  1.1736  0.9558  1.6265
 3196TIP3   OH233782   0.645   1.092  15.113 -0.0253  0.1052 -0.8837
 3196TIP3    H133783   0.577   1.100  15.180 -1.3302 -0.9423 -2.0225
 3196TIP3    H233784   0.652   1.180  15.075 -0.0542  0.4373 -0.1350
 3197TIP3   OH233785   1.869   3.356  16.810  0.0164 -0.2332  0.3467
 3197TIP3    H133786   1.940   3.335  16.749 -0.2696  0.5737 -0.2827
 3197TIP3    H233787   1.913   3.367  16.895  0.5968 -0.1081  0.0353
 3198TIP3   OH233788   0.022   6.344  16.279 -0.0158 -0.0182  0.3380
 3198TIP3    H133789   0.092   6.399  16.244  1.7873 -3.1347 -1.4065
 3198TIP3    H233790   0.061   6.301  16.354 -1.1384  0.4648  1.2209
 3199TIP3   OH233791   1.837   3.543  14.661  0.0736 -0.1477  0.3443
 3199TIP3    H133792   1.901   3.493  14.612 -0.0302  2.0959 -2.3237
 3199TIP3    H233793   1.855   3.635  14.639 -1.4447  0.8779  2.8169
 3200TIP3   OH233794   5.874   0.522  16.382 -0.3978 -0.1271 -0.1951
 3200TIP3    H133795   5.952   0.563  16.343 -1.2454  1.7749 -0.0112
 3200TIP3    H233796   5.887   0.428  16.367  1.7861  0.1420 -0.4120
 3201TIP3   OH233797   5.627   1.875  14.774 -0.4163  0.1347 -0.5828
 3201TIP3    H133798   5.537   1.893  14.747 -0.3990 -0.9756 -1.4358
 3201TIP3    H233799   5.634   1.913  14.862 -1.4837  0.8876 -0.8094
 3202TIP3   OH233800   0.661   1.935  16.731  0.2539 -0.1231  0.2480
 3202TIP3    H133801   0.681   1.916  16.822  0.1615 -0.9417  0.1028
 3202TIP3    H233802   0.610   2.017  16.734  3.6000  2.1154  0.5953
 3203TIP3   OH233803   1.344   0.038  14.779 -0.3668 -0.1056 -0.4339
 3203TIP3    H133804   1.412   0.105  14.782 -1.6049  1.1559  0.0934
 3203TIP3    H233805   1.324   0.020  14.871  0.4910 -1.8125 -0.5351
 3204TIP3   OH233806   2.009   5.934  14.334  0.3972  0.1966  0.5315
 3204TIP3    H133807   1.973   5.999  14.274  0.5549  0.2929  0.5424
 3204TIP3    H233808   1.935   5.912  14.391  0.7004  1.4082  1.4406
 3205TIP3   OH233809   4.137   6.329  15.855  0.3816  0.0061 -0.4546
 3205TIP3    H133810   4.205   6.328  15.787  1.0167  0.3117  0.1617
 3205TIP3    H233811   4.183   6.302  15.934 -0.2468  0.1225 -0.0447
 3206TIP3   OH233812   1.633   0.744  14.511  0.3058  0.5621 -1.0814
 3206TIP3    H133813   1.550   0.784  14.485  0.2446  0.8313 -0.5037
 3206TIP3    H233814   1.662   0.797  14.586  0.0559 -0.6783 -0.0749
 3207TIP3   OH233815   2.355   4.665  15.735  0.3837  0.2904 -0.2354
 3207TIP3    H133816   2.357   4.706  15.822 -0.6978  0.1145 -0.1194
 3207TIP3    H233817   2.329   4.575  15.751  0.2909  0.2251 -0.7370
 3208TIP3   OH233818   4.334   3.022  14.828 -0.3463  0.0206 -0.0664
 3208TIP3    H133819   4.384   3.092  14.870  0.4936  0.0159 -1.0391
 3208TIP3    H233820   4.246   3.059  14.819 -0.0779  0.6969  0.0306
 3209TIP3   OH233821   3.170   0.944  14.542  0.9283 -0.3671  0.7871
 3209TIP3    H133822   3.209   0.867  14.584  0.8402 -0.1889  1.1965
 3209TIP3    H233823   3.245   1.000  14.521  1.1416 -1.1971 -0.8303
 3210TIP3   OH233824   0.172   5.178  16.068  0.1022 -0.6010 -0.0133
 3210TIP3    H133825   0.223   5.252  16.101 -0.3683  0.2295 -1.0928
 3210TIP3    H233826   0.232   5.103  16.074  1.3244  0.2668 -0.8348
 3211TIP3   OH233827   5.483   6.726  13.898 -0.0538 -0.3734  0.4417
 3211TIP3    H133828   5.577   6.740  13.883  0.4220  0.6467  3.6388
 3211TIP3    H233829   5.475   6.633  13.916  0.2160 -0.5779 -0.4398
 3212TIP3   OH233830   1.780   5.869  14.463  0.3013  0.2386  0.4274
 3212TIP3    H133831   1.711   5.926  14.498 -2.5921 -2.7164  0.0017
 3212TIP3    H233832   1.792   5.803  14.531  0.8512 -0.7298 -0.5915
 3213TIP3   OH233833   4.780   6.353  15.842  0.5490 -0.1196 -0.1350
 3213TIP3    H133834   4.728   6.314  15.912  1.3669  0.3781  0.7773
 3213TIP3    H233835   4.740   6.439  15.828  0.4878 -0.1537 -0.1729
 3214TIP3   OH233836   0.746   5.630  17.079 -0.1889  0.1177  0.0709
 3214TIP3    H133837   0.762   5.537  17.097 -0.5865  0.3030  1.5198
 3214TIP3    H233838   0.790   5.676  17.150  0.6058  1.1007 -1.0168
 3215TIP3   OH233839   2.062   1.991  14.314  0.6003 -0.2531  0.7288
 3215TIP3    H133840   2.050   1.980  14.220  0.4607 -0.7573  0.7998
 3215TIP3    H233841   2.108   2.074  14.323  2.1685 -1.0048  0.1063
 3216TIP3   OH233842   1.952   1.214  15.502  0.2148  0.3695  0.1961
 3216TIP3    H133843   1.972   1.128  15.537 -0.4635 -1.0083 -2.5670
 3216TIP3    H233844   1.939   1.200  15.408  1.6241  3.7369 -0.6431
 3217TIP3   OH233845   0.880   2.738  17.028 -0.2294 -0.3165 -0.1032
 3217TIP3    H133846   0.971   2.713  17.045  0.5498  1.3154 -1.5354
 3217TIP3    H233847   0.843   2.752  17.115  0.8784 -0.9906  0.5115
 3218TIP3   OH233848   0.083   1.245  14.828 -0.4925 -0.1195 -0.0114
 3218TIP3    H133849   0.137   1.293  14.890  1.4123  0.6716 -2.1182
 3218TIP3    H233850   0.042   1.176  14.879 -0.8374  1.8048  2.5217
 3219TIP3   OH233851   0.265   4.371  15.661 -0.2992  0.0094  0.1645
 3219TIP3    H133852   0.354   4.355  15.630 -0.3639  1.3337 -0.8250
 3219TIP3    H233853   0.209   4.342  15.589 -0.5005  2.1532 -0.6096
 3220TIP3   OH233854   3.139   2.783  14.915  0.4837  0.9718 -0.0699
 3220TIP3    H133855   3.154   2.791  14.821 -1.0437  0.0566 -0.4388
 3220TIP3    H233856   3.064   2.722  14.922  0.3654  1.2660  1.7148
 3221TIP3   OH233857   0.978   3.797  16.321  0.0972  0.4651 -0.2840
 3221TIP3    H133858   0.921   3.720  16.319  0.0668  0.4959 -0.8496
 3221TIP3    H233859   1.016   3.797  16.409 -3.2863  2.2962  1.3478
 3222TIP3   OH233860   2.507   0.389  14.988 -0.5611  0.2652 -0.6429
 3222TIP3    H133861   2.436   0.368  15.049  0.4377 -0.0350  0.4432
 3222TIP3    H233862   2.463   0.404  14.904 -2.0051  1.1326  0.2422
 3223TIP3   OH233863   0.357   5.359  15.401  0.3136 -0.6222 -0.0351
 3223TIP3    H133864   0.270   5.395  15.387  0.0463 -0.5695  1.6235
 3223TIP3    H233865   0.416   5.432  15.382 -0.1590  0.2882  1.8342
 3224TIP3   OH233866   2.542   1.440  15.297 -0.2030 -0.5250  0.2045
 3224TIP3    H133867   2.552   1.525  15.341  0.0011 -0.6962  0.4875
 3224TIP3    H233868   2.584   1.453  15.212 -0.2682 -0.3063  0.2047
 3225TIP3   OH233869   2.817   0.209  14.748  0.6644 -0.1273  0.2321
 3225TIP3    H133870   2.796   0.285  14.695 -0.0067  0.3680  1.1832
 3225TIP3    H233871   2.875   0.156  14.693 -0.8842 -0.2002 -1.4260
 3226TIP3   OH233872   5.066   4.838  16.509  0.1516  0.5450 -0.1374
 3226TIP3    H133873   5.014   4.897  16.565  0.4573  0.8270 -0.1484
 3226TIP3    H233874   5.144   4.889  16.487 -0.1641  0.6036 -1.1767
 3227TIP3   OH233875   1.321   3.925  16.211 -0.1674 -0.1257  0.1627
 3227TIP3    H133876   1.379   3.912  16.286 -1.0804  3.1126  1.6302
 3227TIP3    H233877   1.235   3.893  16.241 -0.0276 -1.2157 -0.5279
 3228TIP3   OH233878   2.450   0.125  16.258 -0.0565  0.0057 -0.5470
 3228TIP3    H133879   2.523   0.112  16.317 -0.4219 -0.9841 -0.2935
 3228TIP3    H233880   2.474   0.078  16.178 -0.9319 -1.3954 -0.0149
 3229TIP3   OH233881   0.641   4.259  16.743 -0.2658 -0.5560 -0.0068
 3229TIP3    H133882   0.637   4.295  16.654 -0.3664  0.2518  0.3096
 3229TIP3    H233883   0.568   4.199  16.748 -1.6095  1.0295  0.2046
 3230TIP3   OH233884   4.081   6.534  13.602 -0.4552  0.4223 -0.6664
 3230TIP3    H133885   4.063   6.465  13.665  0.7884 -0.2431 -1.0118
 3230TIP3    H233886   3.999   6.583  13.595 -0.3222  1.2262  2.2847
 3231TIP3   OH233887   4.352   5.473  14.652 -0.1397  0.0187 -0.0026
 3231TIP3    H133888   4.438   5.430  14.652  0.7709  1.7395  0.3797
 3231TIP3    H233889   4.313   5.448  14.569  1.3309  0.2961 -0.8110
 3232TIP3   OH233890   0.802   4.001  15.374 -0.1542  0.4864 -0.4055
 3232TIP3    H133891   0.892   3.967  15.367 -0.1590  0.2776  0.4525
 3232TIP3    H233892   0.813   4.089  15.411 -0.1618  1.3575 -2.3421
 3233TIP3   OH233893   6.067   6.097  15.303 -0.2021 -0.4264 -0.2926
 3233TIP3    H133894   6.062   6.174  15.360 -3.8386 -0.0016 -0.9533
 3233TIP3    H233895   6.042   6.024  15.360  3.0052 -1.2449  0.2717
 3234TIP3   OH233896   5.214   2.686  16.618 -0.5651  0.5550 -0.1847
 3234TIP3    H133897   5.158   2.742  16.564  1.7148  1.9713 -1.2633
 3234TIP3    H233898   5.279   2.746  16.654  0.2905 -1.0097  0.9784
 3235TIP3   OH233899   3.146   5.659  14.982  1.4564  0.1836  0.4825
 3235TIP3    H133900   3.180   5.747  15.002 -0.1037  0.7754  0.6945
 3235TIP3    H233901   3.215   5.618  14.930  1.9085  1.8037 -0.2720
 3236TIP3   OH233902   5.384   1.205  14.517  0.0531 -0.0289  0.0636
 3236TIP3    H133903   5.356   1.251  14.438  3.0985 -1.9932 -2.3768
 3236TIP3    H233904   5.438   1.269  14.563 -0.6503  0.7044 -0.0873
 3237TIP3   OH233905   6.595   1.469  15.316  0.0942 -0.3547 -0.2715
 3237TIP3    H133906   6.536   1.538  15.347 -0.4928 -1.3298  0.8763
 3237TIP3    H233907   6.654   1.452  15.390  3.4726  2.2005 -2.1108
 3238TIP3   OH233908   5.459   4.131  15.772  0.1024  0.1294 -0.8919
 3238TIP3    H133909   5.467   4.142  15.678 -1.6868 -1.0356 -1.2295
 3238TIP3    H233910   5.392   4.194  15.799 -0.6463 -0.7229 -0.7105
 3239TIP3   OH233911   3.673   4.657  15.391  0.1091 -0.1929  0.9154
 3239TIP3    H133912   3.743   4.594  15.413  0.8327  0.3862  0.3274
 3239TIP3    H233913   3.645   4.632  15.303  0.5894  0.4682  0.5698
 3240TIP3   OH233914   2.786   3.828  14.698 -0.2147 -0.5298  0.4063
 3240TIP3    H133915   2.875   3.848  14.670  0.6544 -0.9898  2.6674
 3240TIP3    H233916   2.731   3.890  14.651  1.4435  0.6772  0.0082
 3241TIP3   OH233917   0.275   3.405  15.891  0.0456  0.3662 -0.5307
 3241TIP3    H133918   0.215   3.355  15.836 -0.2278  0.8753 -0.6980
 3241TIP3    H233919   0.226   3.484  15.914  0.6642  0.8027 -0.7003
 3242TIP3   OH233920   0.161   3.897  14.372 -0.1067 -0.1783 -0.1523
 3242TIP3    H133921   0.252   3.915  14.348 -0.4752 -0.6872 -2.0943
 3242TIP3    H233922   0.165   3.818  14.426  0.6690  0.4039  0.6873
 3243TIP3   OH233923   3.305   1.306  16.478 -0.5580  0.5004  0.0238
 3243TIP3    H133924   3.357   1.238  16.521  1.0444  0.7453 -1.4275
 3243TIP3    H233925   3.277   1.266  16.396 -0.6848  1.1640 -0.2622
 3244TIP3   OH233926   4.205   1.641  15.337  0.0465 -0.3677  0.3057
 3244TIP3    H133927   4.238   1.664  15.250 -2.7279 -0.8962 -0.9989
 3244TIP3    H233928   4.132   1.703  15.351 -1.4200 -2.1437  0.9047
 3245TIP3   OH233929   1.699   4.508  15.540 -0.4696 -0.2526  0.3496
 3245TIP3    H133930   1.609   4.540  15.550 -0.5880 -1.1107  2.4596
 3245TIP3    H233931   1.741   4.573  15.484 -2.3107  0.3246 -0.4410
 3246TIP3   OH233932   4.058   3.731  15.305 -0.7835 -0.4623 -0.5414
 3246TIP3    H133933   4.010   3.671  15.361  0.0442  0.6702  1.4831
 3246TIP3    H233934   4.134   3.681  15.276 -1.2023 -1.0526 -0.6362
 3247TIP3   OH233935   1.044   6.008  16.329  0.2280  0.5770  1.1146
 3247TIP3    H133936   1.128   6.055  16.326  0.8096 -0.4865 -1.0324
 3247TIP3    H233937   1.060   5.935  16.388  0.6757  0.6559  1.0966
 3248TIP3   OH233938   4.650   6.399  16.975  0.2906 -0.2581 -0.1669
 3248TIP3    H133939   4.585   6.342  16.934 -0.5020  0.1174  0.5559
 3248TIP3    H233940   4.731   6.381  16.926 -0.2755 -0.9425 -0.8815
 3249TIP3   OH233941   5.487   6.743  16.574  0.1689 -0.3367 -0.7773
 3249TIP3    H133942   5.447   6.741  16.661  0.9429  0.1691 -0.3927
 3249TIP3    H233943   5.430   6.801  16.523  0.6019  0.7057 -0.1217
 3250TIP3   OH233944   2.378   0.899  13.886  0.5847  0.4728 -0.3386
 3250TIP3    H133945   2.425   0.818  13.902  1.0851  0.5953 -1.1243
 3250TIP3    H233946   2.446   0.966  13.878  0.1658  1.0327  0.5963
 3251TIP3   OH233947   3.216   1.349  13.770  0.0361 -0.2557 -0.3554
 3251TIP3    H133948   3.155   1.278  13.751 -0.1525  0.0760 -1.0076
 3251TIP3    H233949   3.182   1.424  13.720 -1.1431  1.0024  2.1355
 3252TIP3   OH233950   0.842   5.896  14.798 -0.4081 -0.3392 -0.2701
 3252TIP3    H133951   0.858   5.939  14.714 -1.8198 -0.5205 -0.6477
 3252TIP3    H233952   0.887   5.811  14.790  1.1847  0.4407 -0.0506
 3253TIP3   OH233953   2.417   3.365  15.067  0.3322 -0.2748 -0.2364
 3253TIP3    H133954   2.366   3.440  15.099 -3.2285 -2.7224  0.3746
 3253TIP3    H233955   2.429   3.383  14.974 -0.1737  1.1538 -0.0555
 3254TIP3   OH233956   3.250   2.220  16.600 -0.3931  0.5313 -0.5348
 3254TIP3    H133957   3.189   2.289  16.574  1.9080  1.6271 -3.5088
 3254TIP3    H233958   3.231   2.148  16.540  1.0530  0.8298 -1.3881
 3255TIP3   OH233959   4.913   6.385  15.283 -0.5982 -0.9264  0.0618
 3255TIP3    H133960   4.892   6.302  15.325  0.1121 -0.9127  0.4567
 3255TIP3    H233961   4.864   6.450  15.334 -2.9979 -1.2820 -1.6196
 3256TIP3   OH233962   1.015   6.250  15.472 -0.2960  0.0307 -0.1603
 3256TIP3    H133963   1.070   6.248  15.551  1.0882  1.2373 -1.0338
 3256TIP3    H233964   1.077   6.241  15.400 -1.2463  1.3360 -1.1918
 3257TIP3   OH233965   1.596   2.200  14.820 -0.3681  0.8782  0.5143
 3257TIP3    H133966   1.672   2.172  14.769 -0.2596  1.6928  0.2182
 3257TIP3    H233967   1.548   2.119  14.838  0.9299  0.2421  1.3212
 3258TIP3   OH233968   5.328   4.905  16.452 -0.0398  0.4426 -0.4613
 3258TIP3    H133969   5.356   4.871  16.367  0.4655 -1.8784  0.5536
 3258TIP3    H233970   5.406   4.949  16.487  0.0893  0.4483 -0.7536
 3259TIP3   OH233971   2.970   0.694  15.471 -0.6971 -0.3679 -0.0069
 3259TIP3    H133972   3.030   0.627  15.439 -0.2693  0.8782 -2.0126
 3259TIP3    H233973   2.900   0.696  15.405 -1.1204  0.5854  0.4570
 3260TIP3   OH233974   2.080   1.397  14.268 -0.0369  0.4167  0.4374
 3260TIP3    H133975   2.117   1.345  14.340  1.2588  0.2525 -0.3195
 3260TIP3    H233976   2.156   1.422  14.215 -0.8177  1.7255 -0.1077
 3261TIP3   OH233977   4.462   4.574  16.600 -0.2714  0.5407  0.1471
 3261TIP3    H133978   4.447   4.480  16.590  1.3050  0.3344 -0.6050
 3261TIP3    H233979   4.489   4.584  16.691  0.2022  0.1459  0.0567
 3262TIP3   OH233980   5.840   1.282  14.497  0.0258 -0.7164 -0.1001
 3262TIP3    H133981   5.872   1.219  14.562 -1.0453  1.0282  2.2501
 3262TIP3    H233982   5.752   1.304  14.526 -0.0520  1.0466 -1.5023
 3263TIP3   OH233983   0.392   4.980  15.563  0.0288 -0.0089 -0.5933
 3263TIP3    H133984   0.477   5.025  15.561  0.3624 -0.6383 -0.8626
 3263TIP3    H233985   0.413   4.888  15.546 -0.6804 -0.2171 -0.3892
 3264TIP3   OH233986   5.629   5.128  15.686 -0.2397 -0.2313  0.5074
 3264TIP3    H133987   5.671   5.108  15.602 -0.8517 -0.2936  0.2158
 3264TIP3    H233988   5.699   5.169  15.737  0.0880 -0.0242 -0.0934
 3265TIP3   OH233989   0.870   5.148  16.587  0.4462 -0.2247 -0.3516
 3265TIP3    H133990   0.829   5.225  16.626  1.7467 -0.3414  1.3410
 3265TIP3    H233991   0.961   5.151  16.617  1.4187 -0.6243 -2.9895
 3266TIP3   OH233992   0.098   1.193  15.108 -0.0656  0.4536  0.3103
 3266TIP3    H133993   0.028   1.258  15.113  1.1688  1.8757 -0.0474
 3266TIP3    H233994   0.146   1.203  15.190  1.0472  1.1124 -0.3906
 3267TIP3   OH233995   2.057   2.622  15.161 -0.1158 -0.0821 -0.6176
 3267TIP3    H133996   2.101   2.558  15.105 -0.7012  0.8605 -2.2070
 3267TIP3    H233997   1.972   2.636  15.119  0.0952  1.9255 -0.4476
 3268TIP3   OH233998   2.379   3.597  16.396  0.9291  0.2997 -0.3103
 3268TIP3    H133999   2.432   3.632  16.324  0.1965  2.0427 -0.0718
 3268TIP3    H234000   2.292   3.634  16.381  0.4965 -0.2091  0.8582
 3269TIP3   OH234001   4.906   0.618  14.378  0.5212  0.6109  0.1287
 3269TIP3    H134002   4.900   0.648  14.469  2.5634  0.9625  0.1729
 3269TIP3    H234003   4.999   0.615  14.359  0.1831 -0.6556 -1.5850
 3270TIP3   OH234004   2.481   3.492  14.061 -0.0211  0.0177  0.2991
 3270TIP3    H134005   2.484   3.523  13.970 -1.0115 -1.7194 -0.3711
 3270TIP3    H234006   2.393   3.515  14.090  0.0085 -0.1814  0.5406
 3271TIP3   OH234007   2.077   0.824  14.171  0.0540  0.1011 -0.5963
 3271TIP3    H134008   2.066   0.857  14.260  1.7324 -2.5893  0.7268
 3271TIP3    H234009   2.171   0.813  14.161 -0.1585 -0.3047 -2.4836
 3272TIP3   OH234010   2.035   5.888  16.624 -0.7265 -0.4195 -0.0792
 3272TIP3    H134011   2.041   5.867  16.531 -0.0255  0.5965 -0.2772
 3272TIP3    H234012   2.114   5.849  16.662  0.7414  1.9733 -0.4991
 3273TIP3   OH234013   4.656   1.669  14.855  0.1466 -0.0586  0.2944
 3273TIP3    H134014   4.739   1.707  14.826 -0.4784  2.0962  1.1384
 3273TIP3    H234015   4.681   1.584  14.893  1.9326  0.4671  0.4034
 3274TIP3   OH234016   5.030   5.682  16.696 -0.0213 -0.4059  0.3260
 3274TIP3    H134017   4.979   5.709  16.772 -1.6498 -1.9612 -0.1390
 3274TIP3    H234018   4.978   5.709  16.621  2.2089  2.3571 -0.3930
 3275TIP3   OH234019   5.407   6.134  14.816  0.1950 -0.0257  0.5039
 3275TIP3    H134020   5.426   6.055  14.867  1.8327  1.4177  2.2629
 3275TIP3    H234021   5.488   6.154  14.770  0.2692  1.3998  1.2068
 3276TIP3   OH234022   1.505   6.511  13.968 -0.4159  0.3824 -0.5206
 3276TIP3    H134023   1.527   6.418  13.958 -0.8353  0.4375 -2.3511
 3276TIP3    H234024   1.439   6.513  14.037  0.8054 -0.4753  0.7099
 3277TIP3   OH234025   1.725   4.392  15.992 -0.3463 -0.4402  0.2844
 3277TIP3    H134026   1.814   4.394  16.029  0.2954  1.3894 -1.1721
 3277TIP3    H234027   1.673   4.347  16.058  1.4799 -0.7516  1.6103
 3278TIP3   OH234028   0.726   2.288  16.805 -0.3206  0.3983 -0.0886
 3278TIP3    H134029   0.727   2.384  16.803  1.2938  0.4206 -2.3186
 3278TIP3    H234030   0.815   2.264  16.831 -0.2932 -0.4448 -0.9055
 3279TIP3   OH234031   6.631   5.830  16.111  0.1368  0.2939 -0.2415
 3279TIP3    H134032   6.674   5.823  16.026  0.8333  0.8755  0.0535
 3279TIP3    H234033   6.549   5.781  16.101 -0.8026  2.0510 -1.9202
 3280TIP3   OH234034   3.477   4.135  16.456 -0.0706 -0.7724 -0.4829
 3280TIP3    H134035   3.457   4.228  16.464  0.9906 -0.6301  1.1406
 3280TIP3    H234036   3.392   4.093  16.441 -0.6524  0.3969 -0.5507
 3281TIP3   OH234037   4.776   3.540  14.505  0.1567  0.2604 -0.3565
 3281TIP3    H134038   4.755   3.612  14.565  0.7946  0.2032 -0.0556
 3281TIP3    H234039   4.736   3.565  14.422 -0.0689  0.7113 -0.1156
 3282TIP3   OH234040   0.058   1.365  14.592  0.3655  0.5141 -0.3925
 3282TIP3    H134041   0.085   1.349  14.682 -0.3158  1.2375 -0.0443
 3282TIP3    H234042  -0.008   1.299  14.574 -0.0030  0.8054 -0.1180
 3283TIP3   OH234043   4.410   0.926  17.450  0.1519 -0.2675 -0.2483
 3283TIP3    H134044   4.364   0.862  17.503  1.8172  0.7773  2.6840
 3283TIP3    H234045   4.382   0.908  17.360 -0.2516 -4.3451  0.5361
 3284TIP3   OH234046   4.883   5.698  16.422  0.2006 -0.3630 -0.0409
 3284TIP3    H134047   4.877   5.603  16.413  1.4916 -0.4653 -0.0179
 3284TIP3    H234048   4.826   5.732  16.353 -0.7269 -1.1384  0.3212
 3285TIP3   OH234049   1.442   3.679  16.134  0.0801 -0.0066  0.5960
 3285TIP3    H134050   1.419   3.772  16.140 -1.0537 -0.2775  0.6793
 3285TIP3    H234051   1.372   3.634  16.180  1.3427 -0.8272  1.7936
 3286TIP3   OH234052   6.309   1.078  16.479  0.2393  0.0043  0.3133
 3286TIP3    H134053   6.276   1.167  16.492 -0.3388 -0.2832  0.8288
 3286TIP3    H234054   6.402   1.084  16.503  0.5457  0.7660 -0.9367
 3287TIP3   OH234055   4.314   5.169  16.503 -0.8307 -0.0491  0.3942
 3287TIP3    H134056   4.238   5.121  16.535 -0.8487 -0.0190  0.3968
 3287TIP3    H234057   4.383   5.102  16.495 -0.9764 -0.1586 -0.0081
 3288TIP3   OH234058   1.818   1.365  16.529  0.5125  0.6723  0.5379
 3288TIP3    H134059   1.875   1.292  16.551 -0.8705  0.0073  2.0455
 3288TIP3    H234060   1.741   1.325  16.489 -0.3716  1.2665  1.5994
 3289TIP3   OH234061   1.925   3.787  13.928  0.8214 -0.4820  0.0721
 3289TIP3    H134062   1.870   3.860  13.958  3.1087  0.7595  1.5320
 3289TIP3    H234063   1.955   3.814  13.841  1.7579  0.4336  0.6543
 3290TIP3   OH234064   4.564   1.979  13.762 -0.2666  0.2352 -0.0161
 3290TIP3    H134065   4.568   1.981  13.858  1.4632  0.4011 -0.0569
 3290TIP3    H234066   4.531   1.891  13.742 -2.0323  0.6969  0.7318
 3291TIP3   OH234067   1.838   6.121  14.772  0.2045  0.1845 -0.0561
 3291TIP3    H134068   1.882   6.066  14.838 -1.4422 -0.6111  0.4316
 3291TIP3    H234069   1.875   6.208  14.785  0.4889 -0.1271  1.4194
 3292TIP3   OH234070   1.704   4.866  15.682 -0.1353  0.2939 -0.1135
 3292TIP3    H134071   1.665   4.866  15.594 -1.5747  0.2244  0.4983
 3292TIP3    H234072   1.664   4.792  15.726  1.3794 -0.3150  0.2983
 3293TIP3   OH234073   5.749   6.718  15.189 -0.5523 -0.4811  0.8225
 3293TIP3    H134074   5.701   6.770  15.124 -1.1716  0.6761  2.1488
 3293TIP3    H234075   5.739   6.767  15.271  3.0412 -0.0462  1.1821
 3294TIP3   OH234076   3.377   1.693  15.453  0.2262  0.4921 -0.2084
 3294TIP3    H134077   3.307   1.726  15.510 -1.2096 -2.7438  0.1208
 3294TIP3    H234078   3.345   1.709  15.364  0.1349  1.0475 -0.0793
 3295TIP3   OH234079   0.405   0.431  15.584 -0.3332 -0.8510 -0.6587
 3295TIP3    H134080   0.423   0.337  15.593  1.2855 -0.4186  1.5210
 3295TIP3    H234081   0.311   0.436  15.570 -0.7534 -2.7610  0.9720
 3296TIP3   OH234082   0.723   2.251  16.501 -0.2278 -0.4027 -0.0617
 3296TIP3    H134083   0.753   2.229  16.589 -2.4527 -1.3956  0.5076
 3296TIP3    H234084   0.804   2.261  16.450  1.1362  0.8809  2.2066
 3297TIP3   OH234085   4.423   5.789  15.020 -0.7898  0.2698 -0.1849
 3297TIP3    H134086   4.342   5.832  15.046  0.4569  3.0605 -0.5633
 3297TIP3    H234087   4.419   5.703  15.062 -2.3639  1.6375  2.7974
 3298TIP3   OH234088   1.001   0.272  16.015  0.2760 -0.5552  0.1265
 3298TIP3    H134089   0.971   0.295  15.927  0.0637 -0.1956  0.2927
 3298TIP3    H234090   1.008   0.176  16.014 -0.1253 -0.5801 -0.1509
 3299TIP3   OH234091   4.804   5.001  16.532  0.1786 -0.0745 -0.1685
 3299TIP3    H134092   4.759   4.926  16.571 -1.1405  0.7079 -0.1177
 3299TIP3    H234093   4.821   4.974  16.442  2.1666 -1.4312  0.5244
 3300TIP3   OH234094   2.549   3.845  16.551 -0.3287 -0.2992 -1.0293
 3300TIP3    H134095   2.466   3.879  16.583  0.1415  2.0115 -2.0480
 3300TIP3    H234096   2.537   3.836  16.456  0.8601  1.1015 -1.3527
 3301TIP3   OH234097   6.369   0.301  17.049  0.0771 -0.1633  0.1762
 3301TIP3    H134098   6.317   0.287  16.970 -0.8747  0.2997  0.7058
 3301TIP3    H234099   6.305   0.326  17.116  1.0216  0.8499  0.7388
 3302TIP3   OH234100   4.545   0.490  15.145  0.1206 -0.6781  0.2878
 3302TIP3    H134101   4.499   0.489  15.061  0.4380 -1.4115  0.1119
 3302TIP3    H234102   4.576   0.400  15.156 -0.9225 -0.9036  1.7495
 3303TIP3   OH234103   3.353   3.125  15.676 -0.1083  0.0346 -0.1759
 3303TIP3    H134104   3.284   3.059  15.671 -0.1730 -0.0905  1.6051
 3303TIP3    H234105   3.387   3.117  15.765  0.9639  1.3464 -0.4310
 3304TIP3   OH234106   3.568   4.951  15.015 -0.0564  0.7259 -0.0648
 3304TIP3    H134107   3.527   4.867  14.996 -0.5700  1.0704 -0.4970
 3304TIP3    H234108   3.508   4.994  15.076  0.4125  0.6131  0.4898
 3305TIP3   OH234109   5.492   1.099  13.728 -0.7152 -0.0839 -0.0048
 3305TIP3    H134110   5.559   1.054  13.780 -0.6533  0.2670  0.2178
 3305TIP3    H234111   5.412   1.088  13.778 -0.3055  1.9939  1.2322
 3306TIP3   OH234112   0.751   5.746  15.075 -0.2155 -0.5315  0.3176
 3306TIP3    H134113   0.826   5.733  15.017 -0.9051 -0.6063 -0.5763
 3306TIP3    H234114   0.760   5.836  15.105  0.8171 -0.8696  1.0824
 3307TIP3   OH234115   6.470   4.866  15.365 -0.1891  0.4063  0.2518
 3307TIP3    H134116   6.525   4.912  15.428 -0.6621  1.6133 -0.1761
 3307TIP3    H234117   6.417   4.935  15.326 -0.2812 -0.3996 -1.0847
 3308TIP3   OH234118   2.827   4.938  14.784  0.1789 -0.2250  0.1700
 3308TIP3    H134119   2.743   4.979  14.763  0.5580 -0.3230 -1.7122
 3308TIP3    H234120   2.812   4.895  14.868 -1.1799  1.0624  0.6407
 3309TIP3   OH234121   6.311   0.557  15.028 -0.4598  0.2435  0.0249
 3309TIP3    H134122   6.406   0.563  15.015 -0.7150  0.0782 -2.3138
 3309TIP3    H234123   6.301   0.499  15.104  1.2971 -2.2716 -1.4928
 3310TIP3   OH234124   0.110   3.634  14.450  0.3736  0.2960 -0.0220
 3310TIP3    H134125   0.081   3.546  14.426  0.4350  0.3158 -0.1717
 3310TIP3    H234126   0.167   3.620  14.526  0.9020  0.1422 -0.4461
 3311TIP3   OH234127   0.107   4.251  14.138 -0.4327  0.7628  0.0496
 3311TIP3    H134128   0.155   4.332  14.153 -0.7984  0.9000  0.4946
 3311TIP3    H234129   0.046   4.271  14.068 -0.3870  0.8143  0.0243
 3312TIP3   OH234130   6.023   1.767  16.699 -0.1925 -0.1571 -0.1464
 3312TIP3    H134131   5.978   1.781  16.782  0.8230 -0.2209  0.4269
 3312TIP3    H234132   5.971   1.816  16.635 -0.7512  0.2336  0.5935
 3313TIP3   OH234133   3.295   4.091  13.365 -0.1268 -0.0197  0.5147
 3313TIP3    H134134   3.299   4.012  13.311 -2.7413 -0.0827  0.2575
 3313TIP3    H234135   3.383   4.101  13.401  0.6030 -2.2974 -0.4807
 3314TIP3   OH234136   3.853   1.083  14.525  0.0857  0.2127 -0.0330
 3314TIP3    H134137   3.866   1.090  14.430  1.1464 -1.8606 -0.0734
 3314TIP3    H234138   3.904   1.155  14.561  0.2484  0.5946 -0.9864
 3315TIP3   OH234139   6.628   2.889  16.750  0.3479 -0.1812 -0.1607
 3315TIP3    H134140   6.589   2.875  16.664 -1.2032 -0.3419  0.5235
 3315TIP3    H234141   6.597   2.975  16.777 -0.0210 -0.5397  0.6289
 3316TIP3   OH234142   2.928   4.310  15.163 -0.4840 -0.1454 -0.5433
 3316TIP3    H134143   2.951   4.376  15.228 -2.1024  1.2046 -1.2572
 3316TIP3    H234144   3.010   4.292  15.118  0.8311 -1.5972  2.1978
 3317TIP3   OH234145   3.035   6.499  16.269 -0.3491 -0.1582 -0.2575
 3317TIP3    H134146   3.031   6.404  16.256  0.0681 -0.0159 -1.6881
 3317TIP3    H234147   3.019   6.512  16.362 -0.7242 -1.6117 -0.0987
 3318TIP3   OH234148   6.696   4.758  14.781  0.5296  0.2809 -0.1876
 3318TIP3    H134149   6.769   4.714  14.738 -0.8242 -0.9192 -1.3725
 3318TIP3    H234150   6.619   4.733  14.729 -0.8890  0.6160  1.6502
 3319TIP3   OH234151   4.282   0.253  14.261  0.3599 -0.1959 -0.3653
 3319TIP3    H134152   4.211   0.190  14.249 -1.0635  1.1549  0.5199
 3319TIP3    H234153   4.272   0.315  14.189  0.6385 -0.0026 -0.2404
 3320TIP3   OH234154   0.018   0.067  15.314  0.3162  0.0105  0.5704
 3320TIP3    H134155   0.041   0.055  15.222 -0.0008 -2.2381  0.7232
 3320TIP3    H234156  -0.046   0.138  15.314 -0.8139 -0.9268 -1.1525
 3321TIP3   OH234157   1.882   2.862  15.798 -0.0424  0.2338  0.4528
 3321TIP3    H134158   1.972   2.856  15.766 -0.4514 -2.2554 -0.4354
 3321TIP3    H234159   1.863   2.776  15.834 -1.9909  0.8073  0.9426
 3322TIP3   OH234160   2.539   2.317  14.717 -0.6247 -0.4662 -0.3233
 3322TIP3    H134161   2.453   2.278  14.700 -0.0344 -2.2397  0.5262
 3322TIP3    H234162   2.574   2.266  14.791  1.5720 -0.4911 -1.3078
 3323TIP3   OH234163   5.358   1.739  16.238  0.6329  0.5140  0.3734
 3323TIP3    H134164   5.266   1.766  16.240  0.4129 -0.1580 -0.2621
 3323TIP3    H234165   5.355   1.646  16.214  1.3862 -0.0269  2.2525
 3324TIP3   OH234166   5.961   5.220  17.008  0.1597  0.2764 -0.1235
 3324TIP3    H134167   5.903   5.293  17.030 -1.2674 -1.1724  1.1383
 3324TIP3    H234168   6.022   5.257  16.944 -0.7806  2.4443  0.1306
 3325TIP3   OH234169   6.448   1.708  15.403 -0.4118 -0.2120 -0.0887
 3325TIP3    H134170   6.450   1.719  15.498  0.0028 -1.8990  0.1403
 3325TIP3    H234171   6.505   1.777  15.369  1.3786 -1.0494  1.0794
 3326TIP3   OH234172   3.578   0.287  14.174 -0.4398 -0.2480  0.6105
 3326TIP3    H134173   3.486   0.300  14.200 -0.0605 -0.0673  1.9391
 3326TIP3    H234174   3.615   0.375  14.170  0.2700 -0.4267  2.4559
 3327TIP3   OH234175   5.281   4.338  17.016 -0.0876  0.4617  0.2122
 3327TIP3    H134176   5.326   4.259  17.047 -1.7091  0.9388  4.4551
 3327TIP3    H234177   5.213   4.306  16.958  1.0712 -0.9129 -0.4598
 3328TIP3   OH234178   6.692   5.102  14.244 -0.6300 -0.0067  0.1760
 3328TIP3    H134179   6.762   5.147  14.291  0.1197  0.6426 -1.5014
 3328TIP3    H234180   6.733   5.022  14.210 -0.4606  0.7258 -1.4267
 3329TIP3   OH234181   4.149   2.847  14.958  0.1485  0.0376 -0.3462
 3329TIP3    H134182   4.224   2.888  14.915  0.4435 -1.8895 -1.8095
 3329TIP3    H234183   4.080   2.914  14.957  0.4949  0.4373 -2.9266
 3330TIP3   OH234184   5.563   2.883  16.134  0.4353 -0.0722  0.3368
 3330TIP3    H134185   5.521   2.814  16.082 -1.3361  1.6104 -0.5553
 3330TIP3    H234186   5.494   2.915  16.191  1.3005  0.8238  0.9050
 3331TIP3   OH234187   4.740   4.267  15.453  0.4526  0.5013  0.1714
 3331TIP3    H134188   4.805   4.205  15.489 -0.9026 -0.2283  1.4955
 3331TIP3    H234189   4.715   4.321  15.528 -0.7949  0.4712 -0.2063
 3332TIP3   OH234190   6.578   2.432  14.779 -0.3009 -0.1033  0.3700
 3332TIP3    H134191   6.553   2.384  14.701 -1.7063 -0.2168  0.8630
 3332TIP3    H234192   6.509   2.497  14.791 -1.2965 -1.4787  2.6907
 3333TIP3   OH234193   2.455   0.631  13.875 -0.1234  0.0468  0.2117
 3333TIP3    H134194   2.518   0.574  13.832 -1.0455 -1.2128  0.4621
 3333TIP3    H234195   2.502   0.665  13.952  1.1463  1.4048 -1.1093
 3334TIP3   OH234196   5.811   1.636  16.306  0.7602  0.0837  0.7808
 3334TIP3    H134197   5.805   1.728  16.280  0.4312 -0.2688 -0.4831
 3334TIP3    H234198   5.905   1.621  16.318  0.7476  0.8367  2.0661
 3335TIP3   OH234199   5.091   3.203  16.176 -0.0812 -0.1234 -0.1811
 3335TIP3    H134200   5.111   3.233  16.264  1.0751 -1.1770 -0.0577
 3335TIP3    H234201   5.044   3.276  16.136  1.4946  1.3488  0.5117
 3336TIP3   OH234202   6.112   5.577  16.113 -0.3031 -0.4293  0.2507
 3336TIP3    H134203   6.117   5.580  16.208 -0.5245 -1.1695  0.2944
 3336TIP3    H234204   6.164   5.501  16.089 -0.1723 -0.1908 -0.2294
 3337TIP3   OH234205   0.993   0.274  15.408  0.4132  0.1381 -0.3477
 3337TIP3    H134206   1.025   0.359  15.438  0.6520  0.0236 -0.2807
 3337TIP3    H234207   1.041   0.210  15.460  0.8228 -0.0593 -0.9530
 3338TIP3   OH234208   6.061   2.344  15.234  0.1527  0.1331 -0.3462
 3338TIP3    H134209   6.024   2.294  15.306  0.3715 -0.0866 -0.3845
 3338TIP3    H234210   6.142   2.380  15.268  0.8182 -0.8873 -0.8174
 3339TIP3   OH234211   3.735   0.144  15.154 -0.0459 -0.0331 -0.1252
 3339TIP3    H134212   3.779   0.224  15.125 -0.4241 -0.1826 -1.1771
 3339TIP3    H234213   3.735   0.149  15.249  1.2838  0.4877 -0.1332
 3340TIP3   OH234214   4.989   3.936  15.359 -0.0044 -0.6166 -0.0795
 3340TIP3    H134215   5.079   3.914  15.338  0.1529  0.1609 -0.2739
 3340TIP3    H234216   4.995   4.020  15.405 -0.5398 -1.1031  0.9084
 3341TIP3   OH234217   5.039   4.111  16.645 -0.1312 -0.2323  0.0292
 3341TIP3    H134218   5.015   4.112  16.553  0.7350 -0.8795 -0.2196
 3341TIP3    H234219   5.034   4.018  16.670 -1.5285  0.0694  0.9626
 3342TIP3   OH234220   4.983   4.668  15.639 -0.0519 -0.2821  0.3534
 3342TIP3    H134221   4.938   4.586  15.620 -0.8746 -0.2218  1.8933
 3342TIP3    H234222   5.047   4.646  15.706 -0.7837  0.4532  1.3179
 3343TIP3   OH234223   0.053   5.700  14.290 -0.0535 -0.2160 -0.0431
 3343TIP3    H134224   0.033   5.661  14.205  1.7112  0.8079 -0.9988
 3343TIP3    H234225   0.119   5.643  14.329  0.3921  0.2216 -0.1410
 3344TIP3   OH234226   3.186   0.559  15.349 -0.6273 -0.0545  0.3654
 3344TIP3    H134227   3.165   0.482  15.297  1.4646 -0.8264  0.5411
 3344TIP3    H234228   3.213   0.525  15.434 -1.0168  0.9771  0.9288
 3345TIP3   OH234229   0.709   6.622  16.785 -0.2616 -0.5139  0.2615
 3345TIP3    H134230   0.679   6.556  16.723  0.2509 -0.6753  0.1829
 3345TIP3    H234231   0.731   6.698  16.732  2.2378 -1.3582 -0.0319
 3346TIP3   OH234232   0.974   5.488  16.919  0.2719  0.7254 -0.6410
 3346TIP3    H134233   0.927   5.543  16.856 -0.3645  1.6722  0.6284
 3346TIP3    H234234   0.907   5.429  16.954 -0.1980  2.4460  1.5845
 3347TIP3   OH234235   0.123   1.638  14.066  0.0811 -0.5908 -0.1621
 3347TIP3    H134236   0.083   1.724  14.062 -0.4985 -0.8581 -0.2873
 3347TIP3    H234237   0.217   1.655  14.070 -0.0466  0.0513  0.2773
 3348TIP3   OH234238   2.598   4.882  14.613  0.2524  0.3802  0.0148
 3348TIP3    H134239   2.586   4.807  14.670  3.7905 -0.8048 -0.5401
 3348TIP3    H234240   2.591   4.847  14.524  2.2565  0.5100 -0.2551
 3349TIP3   OH234241   4.823   6.582  15.453  0.1868 -0.3159 -0.8732
 3349TIP3    H134242   4.908   6.619  15.476  0.8982 -2.7116  0.7140
 3349TIP3    H234243   4.760   6.627  15.510  1.1208 -1.8956  1.5458
 3350TIP3   OH234244   0.502   5.568  14.609  0.6827 -0.0733 -0.2939
 3350TIP3    H134245   0.516   5.476  14.584 -0.6997 -0.6136  0.7934
 3350TIP3    H234246   0.556   5.617  14.547  2.6084 -1.6723  0.0024
 3351TIP3   OH234247   5.121   3.322  15.086 -0.2741  0.4969  0.2393
 3351TIP3    H134248   5.083   3.360  15.166 -1.5046 -0.4674  0.1362
 3351TIP3    H234249   5.051   3.325  15.022  0.3864  0.3173 -0.5047
 3352TIP3   OH234250   4.467   4.910  15.854  0.0774  0.1910 -0.4177
 3352TIP3    H134251   4.509   4.991  15.880 -2.3134  1.2929  0.2665
 3352TIP3    H234252   4.467   4.912  15.758  1.9529 -0.1253 -0.4723
 3353TIP3   OH234253   2.698   5.830  14.930 -0.3851 -0.3392  0.1637
 3353TIP3    H134254   2.645   5.816  14.851  1.6790  0.5101 -1.4696
 3353TIP3    H234255   2.669   5.915  14.963  1.6900  1.5402 -2.3585
 3354TIP3   OH234256   1.378   5.301  13.113 -0.7472 -0.0085 -0.1655
 3354TIP3    H134257   1.457   5.348  13.090 -0.6204 -1.1371 -2.2534
 3354TIP3    H234258   1.339   5.352  13.184  3.4592 -1.1184  3.3741
 3355TIP3   OH234259   0.283   3.843  14.833 -0.0758  0.2824 -0.2756
 3355TIP3    H134260   0.362   3.848  14.779  0.3050 -1.5174  0.0836
 3355TIP3    H234261   0.238   3.765  14.802 -0.6933  0.1646  0.9033
 3356TIP3   OH234262   4.602   0.080  17.050 -0.2545  0.0495 -0.3957
 3356TIP3    H134263   4.661   0.011  17.080 -0.6033 -0.3326 -0.5853
 3356TIP3    H234264   4.514   0.047  17.068 -0.4006  0.8832  0.4459
 3357TIP3   OH234265   3.380   4.746  16.615 -0.4054  0.4783 -0.2051
 3357TIP3    H134266   3.401   4.658  16.646  0.6486  0.7120 -0.2287
 3357TIP3    H234267   3.457   4.774  16.567 -1.4122  0.7358 -1.7247
 3358TIP3   OH234268   5.624   5.946  16.469  0.1415 -0.3177  0.6552
 3358TIP3    H134269   5.682   6.020  16.451 -1.6040  0.6950 -1.3555
 3358TIP3    H234270   5.663   5.872  16.424 -1.2010  0.9061 -2.8688
 3359TIP3   OH234271   6.373   5.630  15.392  0.1931 -0.0594  0.4939
 3359TIP3    H134272   6.298   5.620  15.334 -0.1253 -0.9719  1.0447
 3359TIP3    H234273   6.353   5.574  15.467  1.2019  0.0574  0.8651
 3360TIP3   OH234274   1.501   4.405  17.087 -0.4698 -0.5226  0.0234
 3360TIP3    H134275   1.543   4.325  17.055  0.1728  0.1169 -0.7809
 3360TIP3    H234276   1.439   4.375  17.153  2.3467 -1.3985  2.4525
 3361TIP3   OH234277   0.247   4.147  14.871  0.0605  0.2755  0.0554
 3361TIP3    H134278   0.171   4.170  14.925 -0.0078 -1.6902  0.9054
 3361TIP3    H234279   0.240   4.052  14.861  2.3391  0.0682  0.0499
 3362TIP3   OH234280   2.954   4.396  14.171 -0.3449  0.5380  0.5886
 3362TIP3    H134281   2.964   4.488  14.192  0.3185  0.3127  1.2815
 3362TIP3    H234282   2.884   4.394  14.106  0.2332  1.6148 -0.0976
 3363TIP3   OH234283   0.653   5.321  13.949 -0.1207  0.4071  0.4885
 3363TIP3    H134284   0.565   5.346  13.919  0.9102  1.4114 -1.9238
 3363TIP3    H234285   0.696   5.405  13.968 -0.1037 -0.1185  3.1820
 3364TIP3   OH234286   1.529   3.174  16.523 -0.6244  0.0201  0.5134
 3364TIP3    H134287   1.507   3.267  16.524  0.3933  0.2739  1.3681
 3364TIP3    H234288   1.560   3.157  16.434  0.2192  0.7646  0.6524
 3365TIP3   OH234289   4.454   1.555  13.866 -0.6233  0.2216  0.1289
 3365TIP3    H134290   4.377   1.498  13.871 -1.3835  1.3129  2.1146
 3365TIP3    H234291   4.433   1.617  13.796 -1.7988  0.7842  0.9357
 3366TIP3   OH234292   5.997   1.108  15.727  0.7232 -0.5993  0.4435
 3366TIP3    H134293   5.962   1.193  15.756  0.2041 -1.0879  1.2990
 3366TIP3    H234294   6.064   1.086  15.792  0.5956 -1.0068  0.4414
 3367TIP3   OH234295   5.907   5.729  14.847 -0.0381 -0.2075 -0.4317
 3367TIP3    H134296   5.838   5.686  14.796 -0.2780 -0.6703  0.2665
 3367TIP3    H234297   5.989   5.697  14.810 -0.1815  0.5011 -1.4026
 3368TIP3   OH234298   3.984   0.413  14.999 -0.0494  0.3748  0.1700
 3368TIP3    H134299   3.933   0.419  15.079 -0.5137 -0.3954 -0.0536
 3368TIP3    H234300   3.985   0.502  14.964 -0.9316  0.4747  0.3728
 3369TIP3   OH234301   1.941   4.132  14.146 -0.1227  0.2491 -0.0307
 3369TIP3    H134302   1.997   4.076  14.200 -0.7488 -0.7816 -0.4337
 3369TIP3    H234303   1.979   4.128  14.059 -0.5597 -0.0840 -0.2063
 3370TIP3   OH234304   5.779   4.946  15.450 -0.3533 -0.1699 -0.2158
 3370TIP3    H134305   5.830   4.875  15.413  0.5350  0.7497 -0.8196
 3370TIP3    H234306   5.699   4.948  15.396  0.0362 -0.1170 -0.7961
 3371TIP3   OH234307   1.791   6.322  15.741 -0.2312  0.3956 -0.2349
 3371TIP3    H134308   1.792   6.227  15.744  1.8774  0.3484  3.3429
 3371TIP3    H234309   1.853   6.345  15.672  0.5019 -0.8827 -0.0224
 3372TIP3   OH234310   4.783   2.956  15.285 -0.0568  0.1159  0.0219
 3372TIP3    H134311   4.873   2.988  15.275 -0.2977  0.5627 -0.7902
 3372TIP3    H234312   4.771   2.948  15.380  0.9161 -0.1724  0.1296
 3373TIP3   OH234313   0.079   3.373  14.381 -0.2295  0.3817  0.0042
 3373TIP3    H134314   0.086   3.308  14.451  1.2878 -0.0233 -0.4732
 3373TIP3    H234315   0.089   3.322  14.301  0.2608  1.1051 -0.4014
 3374TIP3   OH234316   0.247   4.056  15.378  0.4600  0.7376 -0.8597
 3374TIP3    H134317   0.203   3.976  15.350  0.2413 -0.0828  1.6015
 3374TIP3    H234318   0.287   4.090  15.299  1.4078 -2.3317 -1.8464
 3375TIP3   OH234319   6.172   4.449  15.378  0.4435  0.0099 -0.2937
 3375TIP3    H134320   6.167   4.436  15.473  0.1576  0.6111 -0.2266
 3375TIP3    H234321   6.172   4.360  15.342 -0.5512 -0.2078  0.2177
 3376TIP3   OH234322   3.228   1.581  17.034 -0.1594  0.2809 -0.0504
 3376TIP3    H134323   3.281   1.504  17.053  1.6358  0.5718 -3.1917
 3376TIP3    H234324   3.220   1.626  17.118 -0.3564 -2.6883  1.6711
 3377TIP3   OH234325   5.532   1.671  17.113 -0.3025 -0.1391  0.1668
 3377TIP3    H134326   5.515   1.642  17.202  0.2719 -1.1442 -0.0341
 3377TIP3    H234327   5.624   1.699  17.114 -0.0325 -0.9809 -0.3090
 3378TIP3   OH234328   5.241   3.924  13.536  0.1173 -0.5380 -0.1424
 3378TIP3    H134329   5.261   3.849  13.592 -0.5284 -1.8382 -1.5781
 3378TIP3    H234330   5.242   3.889  13.447 -2.2615  0.6746 -0.7253
 3379TIP3   OH234331   3.516   5.300  15.770  0.5045  0.1111  0.1281
 3379TIP3    H134332   3.446   5.298  15.704  0.2505 -0.4564  0.4125
 3379TIP3    H234333   3.553   5.388  15.762 -1.0886  0.9045  0.8487
 3380TIP3   OH234334   4.361   2.902  15.958  0.0419 -0.0656 -0.3813
 3380TIP3    H134335   4.440   2.955  15.949  0.1189 -0.0042  0.6013
 3380TIP3    H234336   4.309   2.924  15.880  0.0943  1.4283 -0.0331
 3381TIP3   OH234337   2.004   2.253  14.895 -0.0991 -0.0446  0.2109
 3381TIP3    H134338   1.987   2.245  14.801  0.7427 -0.1602  0.0645
 3381TIP3    H234339   1.919   2.275  14.932 -0.9130 -2.0063 -0.3336
 3382TIP3   OH234340   2.776   1.607  14.262  0.0790 -0.6089  0.2855
 3382TIP3    H134341   2.732   1.616  14.347  0.0797 -2.7063  0.5717
 3382TIP3    H234342   2.711   1.564  14.206 -0.3122  1.6932 -1.1684
 3383TIP3   OH234343   0.777   1.332  14.782  0.3227  0.6201 -0.1035
 3383TIP3    H134344   0.838   1.406  14.778  0.0787  1.0240  2.3000
 3383TIP3    H234345   0.728   1.346  14.862 -0.4114 -1.6753 -0.0825
 3384TIP3   OH234346   4.513   5.499  17.039  0.5575 -0.4455 -0.4318
 3384TIP3    H134347   4.512   5.492  17.134  0.6358  0.8229 -0.3277
 3384TIP3    H234348   4.434   5.452  17.011 -1.1713  1.7531  0.4724
 3385TIP3   OH234349   5.582   2.122  15.268  0.3520  0.6345  0.1908
 3385TIP3    H134350   5.532   2.085  15.194 -0.9305  1.9454  0.3457
 3385TIP3    H234351   5.654   2.169  15.226  0.6110 -0.0277 -0.1257
 3386TIP3   OH234352   5.564   4.994  16.790  0.0694 -0.9826  0.4586
 3386TIP3    H134353   5.529   5.039  16.867 -1.3084 -0.1473 -0.6125
 3386TIP3    H234354   5.486   4.961  16.744  0.8211 -1.0246 -0.8275
 3387TIP3   OH234355   4.471   1.601  15.483  0.3474 -0.0998  0.8414
 3387TIP3    H134356   4.402   1.612  15.418 -0.6693 -0.6268  1.7976
 3387TIP3    H234357   4.552   1.596  15.432 -0.3071  0.5439 -0.2975
 3388TIP3   OH234358   4.786   6.074  16.831  0.1877 -0.2560 -0.3548
 3388TIP3    H134359   4.785   6.011  16.903  2.3410  1.9119  1.7473
 3388TIP3    H234360   4.727   6.036  16.765  0.9355 -4.1579  0.9473
 3389TIP3   OH234361   3.313   6.575  16.392  0.5124  0.2296 -0.0152
 3389TIP3    H134362   3.265   6.526  16.325  1.1918  0.1767 -0.4716
 3389TIP3    H234363   3.401   6.537  16.390  0.7540  0.7715  0.3557
 3390TIP3   OH234364   0.128   1.541  16.360  0.4148  0.6611 -0.0317
 3390TIP3    H134365   0.167   1.510  16.278  1.5388  0.3221  0.6049
 3390TIP3    H234366   0.200   1.580  16.408 -0.7168  3.1885 -0.2392
 3391TIP3   OH234367   4.273   3.558  15.624 -0.1576 -0.1605 -0.1987
 3391TIP3    H134368   4.279   3.532  15.532  0.2855 -1.8810  0.2964
 3391TIP3    H234369   4.319   3.490  15.672 -1.1282  0.2539  1.3963
 3392TIP3   OH234370   3.774   0.429  15.178 -0.2385 -0.4251 -0.0680
 3392TIP3    H134371   3.685   0.428  15.213 -0.7181  2.1291 -1.0221
 3392TIP3    H234372   3.806   0.517  15.196  2.2311 -1.3644  0.4682
 3393TIP3   OH234373   0.920   2.236  15.785 -0.5711 -0.2849  0.1498
 3393TIP3    H134374   0.930   2.315  15.839 -0.7418 -0.1482 -0.0153
 3393TIP3    H234375   0.832   2.204  15.805 -0.9671  0.2480 -0.6750
 3394TIP3   OH234376   3.775   2.182  16.647  0.0047 -0.2383  0.1119
 3394TIP3    H134377   3.859   2.138  16.660  1.3820  2.6740  1.8870
 3394TIP3    H234378   3.795   2.258  16.593 -1.9787 -0.6406 -1.3493
 3395TIP3   OH234379   4.583   1.983  15.624  0.3084 -0.3073 -0.1610
 3395TIP3    H134380   4.561   1.982  15.531 -0.4979  0.6501  0.0031
 3395TIP3    H234381   4.503   2.012  15.667  0.9350  0.0881  0.7607
 3396TIP3   OH234382   4.754   3.822  15.428 -0.1738 -0.1419 -0.4380
 3396TIP3    H134383   4.844   3.853  15.419 -0.1122 -0.4407 -0.8470
 3396TIP3    H234384   4.753   3.736  15.387 -0.7595  0.0658 -0.8830
 3397TIP3   OH234385   4.058   6.051  16.952 -0.4451 -0.1469  0.1249
 3397TIP3    H134386   3.978   5.998  16.950 -0.3536 -0.3042  0.4970
 3397TIP3    H234387   4.066   6.079  17.043 -2.0533  2.9311 -0.5695
 3398TIP3   OH234388   1.500   5.745  14.218 -0.3870  0.5217 -0.5558
 3398TIP3    H134389   1.468   5.834  14.205 -0.3767  0.9409  1.8464
 3398TIP3    H234390   1.423   5.697  14.250 -0.6641 -0.6543 -2.7731
 3399TIP3   OH234391   0.306   5.952  15.571  0.1947 -0.4248  0.1479
 3399TIP3    H134392   0.288   5.952  15.477 -0.6261  1.4489  0.2567
 3399TIP3    H234393   0.369   6.022  15.584  0.5632 -0.8865  0.9705
 3400TIP3   OH234394   6.142   1.643  16.069  0.0829  0.0184 -0.1203
 3400TIP3    H134395   6.150   1.680  16.157 -0.5209 -1.5737  0.6390
 3400TIP3    H234396   6.123   1.718  16.013 -0.8249  0.8892  1.3112
 3401TIP3   OH234397   3.576   2.701  16.993 -0.5655 -0.0787 -0.1988
 3401TIP3    H134398   3.667   2.705  16.964 -1.0393  2.3777 -1.5860
 3401TIP3    H234399   3.581   2.679  17.086  1.3349 -1.5472 -0.6000
 3402TIP3   OH234400   2.285   5.760  14.485  0.1097 -0.0343  0.6384
 3402TIP3    H134401   2.355   5.774  14.422 -0.4218  0.0171  0.0568
 3402TIP3    H234402   2.243   5.846  14.494  0.3888  0.0446  1.3260
 3403TIP3   OH234403   5.271   1.224  15.954  0.2252  0.3030  0.2794
 3403TIP3    H134404   5.251   1.146  15.902  1.5454 -0.4695  0.8597
 3403TIP3    H234405   5.334   1.273  15.902  0.7367  0.0654  0.6556
 3404TIP3   OH234406   6.689   3.560  16.062  0.1416 -0.2122  0.2667
 3404TIP3    H134407   6.754   3.612  16.015  0.3652 -0.1218  0.6683
 3404TIP3    H234408   6.722   3.557  16.152 -0.2472 -0.4349  0.4024
 3405TIP3   OH234409   5.540   3.363  15.499  0.4282  0.4404  0.2138
 3405TIP3    H134410   5.601   3.398  15.433 -1.2974  1.4117 -0.9218
 3405TIP3    H234411   5.598   3.331  15.568  2.2473  1.3709 -0.7711
 3406TIP3   OH234412   5.373   4.063  17.013 -0.1803 -0.0313 -0.6123
 3406TIP3    H134413   5.346   4.017  16.934  3.1938 -1.4191 -1.1284
 3406TIP3    H234414   5.370   3.996  17.082 -0.5789  0.4984 -0.1006
 3407TIP3   OH234415   2.281   3.502  16.988  0.1576 -0.0838  0.3216
 3407TIP3    H134416   2.368   3.469  16.966 -1.1191 -2.1703 -2.2276
 3407TIP3    H234417   2.250   3.445  17.058 -0.5202 -1.8779 -1.3614
 3408TIP3   OH234418   0.253   1.252  16.818 -0.0084 -0.4100 -0.2364
 3408TIP3    H134419   0.261   1.322  16.883 -0.2108  0.5242 -1.1774
 3408TIP3    H234420   0.293   1.289  16.739  2.0219 -2.2479 -0.1479
 3409TIP3   OH234421   5.630   1.025  14.717  0.1091  0.1636  0.1190
 3409TIP3    H134422   5.664   0.944  14.753 -0.2848 -1.0024 -1.9631
 3409TIP3    H234423   5.684   1.043  14.640 -1.7022  0.1530 -1.2419
 3410TIP3   OH234424   2.233   4.990  15.697  0.1077  0.6654  0.2698
 3410TIP3    H134425   2.299   4.921  15.685  0.0127  0.6979 -0.4866
 3410TIP3    H234426   2.187   4.994  15.613 -0.2535  1.2717  0.4906
 3411TIP3   OH234427   5.749   0.117  14.368  0.1558 -0.2687 -0.2440
 3411TIP3    H134428   5.747   0.030  14.407 -0.8582 -0.2508 -0.2458
 3411TIP3    H234429   5.693   0.170  14.424 -0.6940 -0.0590 -1.2644
 3412TIP3   OH234430   6.218   5.286  15.477 -0.7394  0.1694  0.0467
 3412TIP3    H134431   6.137   5.265  15.524 -0.5129  1.8994  1.3085
 3412TIP3    H234432   6.231   5.379  15.492  2.4302 -0.3597  1.4527
 3413TIP3   OH234433   2.597   5.156  17.178 -0.4967  0.0121 -0.2845
 3413TIP3    H134434   2.675   5.136  17.126  0.0154  3.2288 -0.9995
 3413TIP3    H234435   2.632   5.189  17.261 -1.1895 -0.5022  0.2240
 3414TIP3   OH234436   2.426   1.361  14.744  0.1506  0.0023 -0.1166
 3414TIP3    H134437   2.516   1.391  14.758 -0.0051  1.2864 -1.6418
 3414TIP3    H234438   2.431   1.265  14.750  1.5579  0.0689  0.0348
 3415TIP3   OH234439   4.688   0.956  14.938  0.1913 -0.0627  0.0232
 3415TIP3    H134440   4.705   0.905  14.860  0.5121 -1.6171  1.0665
 3415TIP3    H234441   4.597   0.984  14.929 -0.2209 -1.4430 -0.2399
 3416TIP3   OH234442   3.341   5.084  17.462 -0.1445  0.1727  0.3384
 3416TIP3    H134443   3.279   5.062  17.393  0.1151 -0.2018  0.2218
 3416TIP3    H234444   3.309   5.038  17.539 -0.2670  0.3492  0.3948
 3417TIP3   OH234445   3.182   4.295  15.315 -0.0235 -0.2884  0.6631
 3417TIP3    H134446   3.116   4.241  15.359  1.4897 -1.3054  1.8261
 3417TIP3    H234447   3.194   4.253  15.230  0.5263 -1.3168  1.2298
 3418TIP3   OH234448   4.001   3.453  14.710  0.0374 -0.0628  0.0014
 3418TIP3    H134449   3.944   3.379  14.730  1.1251 -1.3047 -1.2533
 3418TIP3    H234450   4.067   3.417  14.651  1.0883  1.7341  0.0020
 3419TIP3   OH234451   6.530   1.704  16.223  0.5885 -0.6488  0.0330
 3419TIP3    H134452   6.485   1.625  16.252 -3.4028  0.8108 -1.3594
 3419TIP3    H234453   6.536   1.759  16.301  0.9064 -1.2987  0.4679
 3420TIP3   OH234454   5.608   2.677  14.460 -1.1290  0.1265  0.2277
 3420TIP3    H134455   5.557   2.628  14.525  0.8502  0.2655  1.9784
 3420TIP3    H234456   5.612   2.766  14.495  0.8014 -0.0233  0.4929
 3421TIP3   OH234457   6.389   4.250  14.926  0.0015 -0.4327  0.2362
 3421TIP3    H134458   6.396   4.335  14.882 -0.5976 -0.2385  0.5054
 3421TIP3    H234459   6.397   4.271  15.020  0.4439 -0.7482  0.2747
 3422TIP3   OH234460   2.389   4.943  17.159 -0.3530 -0.0716  0.7295
 3422TIP3    H134461   2.472   4.958  17.114 -0.5249 -0.4955  0.2699
 3422TIP3    H234462   2.386   5.011  17.227 -0.4149  1.0097 -0.3272
 3423TIP3   OH234463   4.260   5.334  17.019 -0.4962 -0.5387 -0.6437
 3423TIP3    H134464   4.250   5.253  16.968  1.1680 -1.1219 -0.1180
 3423TIP3    H234465   4.213   5.317  17.101 -0.1770 -0.9723 -0.5468
 3424TIP3   OH234466   0.555   3.702  14.991 -0.3009  0.1706 -0.1475
 3424TIP3    H134467   0.555   3.796  15.010 -1.1968 -0.2594  2.4326
 3424TIP3    H234468   0.519   3.695  14.903  1.4105  2.3039 -1.1194
 3425TIP3   OH234469   2.551   6.413  16.223  0.3832 -0.5220 -0.4646
 3425TIP3    H134470   2.635   6.402  16.180  0.7319  0.2762 -0.0085
 3425TIP3    H234471   2.546   6.341  16.286  0.4653 -0.9007 -0.8878
 3426TIP3   OH234472   4.464   5.395  16.214 -0.0492 -0.9473 -0.0265
 3426TIP3    H134473   4.457   5.348  16.297 -1.2621 -0.3536  0.2324
 3426TIP3    H234474   4.556   5.386  16.188  0.0528 -2.2229  0.7290
 3427TIP3   OH234475   1.689   0.602  14.960 -0.2042 -0.7579 -0.0087
 3427TIP3    H134476   1.600   0.627  14.983 -0.2013 -1.1164  0.4063
 3427TIP3    H234477   1.743   0.674  14.993 -0.3301 -0.5737 -0.1981
 3428TIP3   OH234478   4.585   6.314  14.791  0.1906 -0.3885  0.0314
 3428TIP3    H134479   4.534   6.265  14.856 -1.7261  1.7499  0.2458
 3428TIP3    H234480   4.620   6.389  14.840 -0.4118  0.6845 -1.1297
 3429TIP3   OH234481   4.290   1.480  14.348 -0.9327  0.0664  0.1034
 3429TIP3    H134482   4.284   1.400  14.296  1.1926 -0.8884  1.2200
 3429TIP3    H234483   4.301   1.550  14.283 -1.1097 -0.7540 -0.8261
 3430TIP3   OH234484   4.065   5.624  14.248 -0.1844  0.1046 -0.0064
 3430TIP3    H134485   4.070   5.719  14.252 -0.1512  0.0418  1.9634
 3430TIP3    H234486   4.157   5.595  14.247 -0.1128  0.0439  2.4429
 3431TIP3   OH234487   3.911   5.445  16.978  0.1884  0.1105  0.3772
 3431TIP3    H134488   3.955   5.405  16.902  0.9458  0.4305  0.6374
 3431TIP3    H234489   3.914   5.377  17.045  1.6106  0.6157  0.8673
 3432TIP3   OH234490   6.220   1.016  14.398  0.1342  0.0298  0.1051
 3432TIP3    H134491   6.237   0.984  14.309  1.3768  2.0156 -0.4416
 3432TIP3    H234492   6.140   0.971  14.425 -0.2594 -0.6486 -1.9956
 3433TIP3   OH234493   5.462   5.220  15.244 -0.3885  0.3297  0.6035
 3433TIP3    H134494   5.436   5.302  15.200  1.6473  0.2300 -0.9576
 3433TIP3    H234495   5.525   5.248  15.310 -1.1023  0.1749  1.3593
 3434TIP3   OH234496   2.226   3.067  15.451 -0.3210 -0.8982  0.0963
 3434TIP3    H134497   2.204   2.974  15.449 -0.3340 -0.8985 -1.4318
 3434TIP3    H234498   2.142   3.113  15.456 -0.3100 -0.9600  0.9356
 3435TIP3   OH234499   0.515   2.679  14.242  0.4167  0.4433 -0.7700
 3435TIP3    H134500   0.484   2.649  14.327  0.3002 -0.9889 -1.2976
 3435TIP3    H234501   0.473   2.765  14.230  1.0957  1.0565  0.9572
 3436TIP3   OH234502   5.122   0.593  15.243 -0.0149 -0.3635  0.5217
 3436TIP3    H134503   5.092   0.648  15.316  0.4640 -0.9753  1.1954
 3436TIP3    H234504   5.092   0.639  15.165 -0.8001  0.1600  1.1083
 3437TIP3   OH234505   4.743   2.118  14.005  0.8214  0.0421  0.0139
 3437TIP3    H134506   4.796   2.188  13.967  0.2520 -0.0705 -1.0345
 3437TIP3    H234507   4.794   2.038  13.990 -0.6464 -0.4309 -3.2622
 3438TIP3   OH234508   2.691   5.207  15.896  0.3119 -0.3355  0.2334
 3438TIP3    H134509   2.655   5.259  15.824 -1.3342 -0.0159  1.2250
 3438TIP3    H234510   2.677   5.116  15.870 -0.6529 -0.2177  0.3117
 3439TIP3   OH234511   1.108   1.956  16.749  0.2971 -0.4628 -0.7476
 3439TIP3    H134512   1.099   1.861  16.743 -0.5607 -0.4912  0.5263
 3439TIP3    H234513   1.019   1.989  16.733  0.6250  0.1415 -1.3476
 3440TIP3   OH234514   5.125   1.942  14.536 -0.0110  0.1726 -0.1418
 3440TIP3    H134515   5.120   1.847  14.527  0.5649  0.1182  0.0694
 3440TIP3    H234516   5.105   1.976  14.448  2.6509 -0.2478 -1.0071
 3441TIP3   OH234517   0.338   5.961  15.302 -0.0576 -0.2687 -0.4503
 3441TIP3    H134518   0.245   5.944  15.282 -0.1775  1.2822 -1.3825
 3441TIP3    H234519   0.385   5.929  15.225 -0.0864  1.2925 -1.1650
 3442TIP3   OH234520   0.530   4.426  15.342  0.2570 -0.0725 -0.0969
 3442TIP3    H134521   0.546   4.340  15.381  0.1565 -0.1838 -0.3001
 3442TIP3    H234522   0.616   4.467  15.338  0.4725 -0.5825 -0.9814
 3443TIP3   OH234523   5.950   2.458  15.758  0.0051  0.3289  0.0109
 3443TIP3    H134524   5.954   2.532  15.697 -0.6753  0.7361  0.4551
 3443TIP3    H234525   5.857   2.447  15.777  0.0863 -0.6879 -0.0916
 3444TIP3   OH234526   5.357   0.771  17.024  0.6150 -0.3329  0.4568
 3444TIP3    H134527   5.358   0.863  17.050 -2.3070  0.6896 -2.3904
 3444TIP3    H234528   5.281   0.734  17.070 -0.7087 -0.1509 -1.4613
 3445TIP3   OH234529   3.183   0.024  14.405 -0.0267 -0.0715  0.6614
 3445TIP3    H134530   3.175  -0.068  14.428 -1.1483  0.1951  1.4281
 3445TIP3    H234531   3.104   0.044  14.355  0.7471  0.2162 -0.5089
 3446TIP3   OH234532   3.684   0.558  14.618 -0.2352 -0.2759  0.2168
 3446TIP3    H134533   3.676   0.475  14.570  0.5441  0.5881 -1.4756
 3446TIP3    H234534   3.617   0.615  14.580 -0.6274 -0.0432  1.2283
 3447TIP3   OH234535   2.466   2.575  16.786  1.0822 -0.6749  0.7900
 3447TIP3    H134536   2.508   2.604  16.705  0.7387  0.4711  1.0066
 3447TIP3    H234537   2.528   2.599  16.855 -0.0391  1.4344  1.1554
 3448TIP3   OH234538   1.974   0.627  14.485  0.3976  0.4302  0.1670
 3448TIP3    H134539   1.978   0.602  14.578  1.5860 -0.7594 -0.1604
 3448TIP3    H234540   1.894   0.586  14.453  0.3326  0.2719  0.5203
 3449TIP3   OH234541   5.328   2.605  16.039  0.0411  0.1243  0.5064
 3449TIP3    H134542   5.337   2.557  16.121  2.6859  0.6419  0.6076
 3449TIP3    H234543   5.376   2.553  15.975 -1.2198  0.1962 -0.5549
 3450TIP3   OH234544   4.752   3.089  15.036  0.1610  0.1408  0.4199
 3450TIP3    H134545   4.706   3.046  14.964 -1.4788 -0.2854  1.6514
 3450TIP3    H234546   4.772   3.018  15.097 -1.9701  0.9190  2.1585
 3451TIP3   OH234547   1.497   3.696  13.881  0.2941 -0.4532  0.0258
 3451TIP3    H134548   1.535   3.649  13.807  1.3054 -1.9100  1.4005
 3451TIP3    H234549   1.569   3.703  13.944 -0.3745  1.2670  0.6712
 3452TIP3   OH234550   0.554   4.524  15.661  0.2062  0.3499 -0.4425
 3452TIP3    H134551   0.625   4.524  15.725 -0.4928 -0.8117  0.3712
 3452TIP3    H234552   0.564   4.441  15.613 -2.1701 -1.2693  1.5791
 3453TIP3   OH234553   3.794   3.450  15.657  0.6527 -0.6588  0.1217
 3453TIP3    H134554   3.832   3.510  15.593 -0.0807  0.0929  0.3687
 3453TIP3    H234555   3.753   3.507  15.722  1.2380 -1.4123  1.1848
 3454TIP3   OH234556   0.203   0.668  14.359  0.4434 -0.2544  0.7023
 3454TIP3    H134557   0.282   0.682  14.306  0.8966 -0.3138  1.3477
 3454TIP3    H234558   0.137   0.639  14.296  0.5688  1.0151 -0.0527
 3455TIP3   OH234559   6.247   6.016  14.699 -0.3585  0.2292 -0.0797
 3455TIP3    H134560   6.260   6.073  14.776 -1.3807 -0.2033  0.4248
 3455TIP3    H234561   6.325   5.960  14.698  0.4048  1.2558 -0.2706
 3456TIP3   OH234562   6.332   1.118  16.186  0.3249  0.5980  0.0606
 3456TIP3    H134563   6.314   1.142  16.277  1.1385  0.5571  0.2448
 3456TIP3    H234564   6.383   1.037  16.192 -0.9852 -0.2927 -0.4976
 3457TIP3   OH234565   5.582   3.956  16.779  0.1745 -0.3273 -0.0270
 3457TIP3    H134566   5.512   4.004  16.734 -1.4784 -0.7988  1.8961
 3457TIP3    H234567   5.582   3.992  16.867  1.0246 -1.7395  0.5740
 3458TIP3   OH234568   0.685   1.390  15.025 -0.3201  0.4426 -0.0362
 3458TIP3    H134569   0.661   1.480  15.005 -3.3077  1.1369  4.9080
 3458TIP3    H234570   0.728   1.395  15.110 -1.0100 -2.7990  0.6613
 3459TIP3   OH234571   0.039   1.124  15.556 -0.4447 -0.9237  0.7535
 3459TIP3    H134572   0.072   1.044  15.514  0.3072 -0.4730  0.4527
 3459TIP3    H234573  -0.056   1.115  15.552 -0.4569 -0.5821 -1.7480
 3460TIP3   OH234574   3.978   5.298  14.208  0.3311  0.1320  0.6106
 3460TIP3    H134575   4.070   5.318  14.188  0.0832  0.4914 -0.2176
 3460TIP3    H234576   3.928   5.357  14.152 -0.4113 -1.1597 -0.1407
 3461TIP3   OH234577   5.460   4.579  16.821  0.2658  0.0636  0.0960
 3461TIP3    H134578   5.414   4.578  16.905  0.4454  0.2802  0.1955
 3461TIP3    H234579   5.393   4.602  16.758  0.4820  1.5680  0.3892
 3462TIP3   OH234580   0.691   5.325  15.254 -0.4511  0.0884  0.1530
 3462TIP3    H134581   0.719   5.417  15.260 -0.0473 -0.0853  1.2063
 3462TIP3    H234582   0.679   5.310  15.161  0.2489  0.9903 -0.1042
 3463TIP3   OH234583   5.882   2.912  15.726  0.3913  0.5320  0.8828
 3463TIP3    H134584   5.895   2.961  15.807  0.9893 -0.2617  1.2841
 3463TIP3    H234585   5.852   2.825  15.755  0.3509  0.3270  0.2438
 3464TIP3   OH234586   3.976   6.200  17.162 -0.5218 -0.4189  0.5940
 3464TIP3    H134587   4.025   6.282  17.160  0.1833 -0.8348  0.0270
 3464TIP3    H234588   3.884   6.227  17.161 -0.3013  0.3624  0.0205
 3465TIP3   OH234589   3.601   6.310  16.074  0.4694 -0.0937 -0.2057
 3465TIP3    H134590   3.549   6.231  16.083  0.6301 -0.0006  2.3445
 3465TIP3    H234591   3.673   6.286  16.016 -0.0249 -1.5038 -0.2500
 3466TIP3   OH234592   5.470   6.398  13.583 -0.0956 -0.1747 -0.4875
 3466TIP3    H134593   5.400   6.382  13.520 -0.0723  3.2296 -1.5973
 3466TIP3    H234594   5.515   6.475  13.549  4.3938 -2.2323  0.0622
 3467TIP3   OH234595   0.928   2.960  14.524  0.2129  0.5218  0.4550
 3467TIP3    H134596   0.864   2.996  14.586 -0.7052 -2.4313  1.3715
 3467TIP3    H234597   0.882   2.958  14.441  0.1239  1.0065  0.4893
 3468TIP3   OH234598   6.650   2.605  16.776 -0.6025  0.3115  0.8736
 3468TIP3    H134599   6.738   2.568  16.781 -1.1984 -1.0264  2.3075
 3468TIP3    H234600   6.663   2.699  16.775  0.9015  0.1462 -1.0316
 3469TIP3   OH234601   6.371   3.252  15.504  0.0237 -0.3648 -0.3358
 3469TIP3    H134602   6.366   3.228  15.412 -0.2777 -0.7573 -0.2213
 3469TIP3    H234603   6.333   3.178  15.551 -0.9067  0.3165  0.0308
 3470TIP3   OH234604   3.478   2.990  15.472  0.0958 -0.5506  0.4638
 3470TIP3    H134605   3.449   3.045  15.545 -0.9441 -2.8985  1.9575
 3470TIP3    H234606   3.503   2.907  15.514  0.1002 -1.7580 -1.7887
 3471TIP3   OH234607   3.252   4.642  16.051 -0.3424 -0.0627  0.0203
 3471TIP3    H134608   3.311   4.627  15.977  0.9503  0.5895  0.8935
 3471TIP3    H234609   3.304   4.691  16.114 -1.4844 -0.4429  1.3011
 3472TIP3   OH234610   1.203   4.153  13.681  0.2173 -0.2366 -0.2166
 3472TIP3    H134611   1.164   4.142  13.594  1.4373 -0.0788 -0.8081
 3472TIP3    H234612   1.223   4.064  13.710 -0.6902 -0.3274  0.1503
 3473TIP3   OH234613   2.636   0.719  14.505  0.7204  0.0189 -0.1465
 3473TIP3    H134614   2.714   0.691  14.553  0.0679 -0.0641  0.8934
 3473TIP3    H234615   2.638   0.815  14.511  1.5173  0.1121 -1.4084
 3474TIP3   OH234616   2.357   1.912  16.334  0.0249 -0.3863  0.1572
 3474TIP3    H134617   2.340   1.930  16.426 -0.0533 -1.7219  0.4299
 3474TIP3    H234618   2.285   1.856  16.306 -0.6948  1.0945 -1.1121
 3475TIP3   OH234619   1.654   3.800  15.635  0.0365 -0.1499  0.2662
 3475TIP3    H134620   1.738   3.799  15.590  1.3934  0.2923  2.6015
 3475TIP3    H234621   1.611   3.718  15.609  1.7529 -1.0101  0.0001
 3476TIP3   OH234622   4.198   1.426  15.489  0.2499  0.5754 -0.5316
 3476TIP3    H134623   4.256   1.360  15.452  1.0908  0.3611  1.0773
 3476TIP3    H234624   4.168   1.477  15.414  0.2215 -1.1107 -1.7091
 3477TIP3   OH234625   5.088   2.054  16.191  0.3065  0.1160  0.1061
 3477TIP3    H134626   5.041   2.089  16.115  0.1921  2.1791  1.0481
 3477TIP3    H234627   5.056   1.964  16.199 -0.3033  0.1040 -1.7614
 3478TIP3   OH234628   6.728   4.005  15.812 -0.3621  0.1669 -0.1156
 3478TIP3    H134629   6.691   4.077  15.863 -1.1087  1.1501 -1.9599
 3478TIP3    H234630   6.678   3.928  15.838 -2.0449  1.0115 -0.7184
 3479TIP3   OH234631   0.521   5.251  15.611 -0.4728  0.2245  0.0820
 3479TIP3    H134632   0.467   5.228  15.686 -1.3108  1.1441 -0.2233
 3479TIP3    H234633   0.463   5.300  15.553  0.8668  1.8613  0.0628
 3480TIP3   OH234634   6.004   3.759  14.531 -0.4692 -0.1221 -0.1363
 3480TIP3    H134635   5.986   3.794  14.444 -1.8881  0.1293  0.2456
 3480TIP3    H234636   6.099   3.770  14.541 -0.5554  1.7511 -0.8459
 3481TIP3   OH234637   3.100   1.922  14.843  0.2360 -0.7736 -0.0181
 3481TIP3    H134638   3.046   1.955  14.771  0.3162 -0.5308  0.0301
 3481TIP3    H234639   3.063   1.837  14.864 -0.5363 -0.3372  0.4378
 3482TIP3   OH234640   3.207   4.078  16.461 -0.0633  0.1624  0.2045
 3482TIP3    H134641   3.167   4.151  16.507 -0.8172 -0.8564  1.2390
 3482TIP3    H234642   3.161   4.074  16.377 -1.4907 -0.3834  0.9838
 3483TIP3   OH234643   4.249   6.507  15.438 -0.3896  0.5061  0.3889
 3483TIP3    H134644   4.207   6.583  15.479 -0.1651  0.1896  1.2209
 3483TIP3    H234645   4.232   6.435  15.498 -0.8766 -0.1896 -0.5525
 3484TIP3   OH234646   2.462   1.213  15.977  0.3649  0.0901  0.2318
 3484TIP3    H134647   2.480   1.211  15.883 -0.5185  1.2631  0.0246
 3484TIP3    H234648   2.408   1.135  15.993  1.6393 -0.8717  0.0420
 3485TIP3   OH234649   2.695   6.103  16.745 -0.6197  0.4808 -0.1692
 3485TIP3    H134650   2.749   6.026  16.764  0.4493  1.3726  0.5466
 3485TIP3    H234651   2.617   6.091  16.799 -0.7052 -0.3381 -0.4539
 3486TIP3   OH234652   2.793   1.765  15.215  0.1512  0.5580 -0.1269
 3486TIP3    H134653   2.801   1.678  15.253  0.7390  1.1214  1.0748
 3486TIP3    H234654   2.882   1.799  15.211 -0.1153  1.2917 -0.1282
 3487TIP3   OH234655   3.987   2.794  15.714 -0.2289  0.0509 -0.4188
 3487TIP3    H134656   3.936   2.807  15.794 -0.7382  0.5641 -0.8206
 3487TIP3    H234657   3.939   2.843  15.647 -0.3833 -1.2260 -1.2637
 3488TIP3   OH234658   4.181   1.067  14.706  0.1540 -0.8429 -0.2620
 3488TIP3    H134659   4.189   1.053  14.612  0.2206 -0.0955 -0.3775
 3488TIP3    H234660   4.087   1.078  14.721  0.1215 -1.1957 -0.2054
 3489TIP3   OH234661   3.319   4.898  15.202 -0.2439  0.0284  0.0150
 3489TIP3    H134662   3.349   4.921  15.291 -0.8594  0.7891  0.0364
 3489TIP3    H234663   3.374   4.824  15.177  1.6285  1.3321  0.0711
 3490TIP3   OH234664   1.852   2.187  14.391  0.0061 -0.2478  0.2825
 3490TIP3    H134665   1.920   2.128  14.359  0.7219 -0.1722  1.6002
 3490TIP3    H234666   1.873   2.271  14.351  1.2273 -0.0158  1.3590
 3491TIP3   OH234667   3.774   1.776  14.442 -0.6527 -0.5480  0.1053
 3491TIP3    H134668   3.867   1.755  14.451 -0.6450 -0.2698  0.7367
 3491TIP3    H234669   3.732   1.730  14.515 -1.0614 -0.9588 -0.3813
 3492TIP3   OH234670   3.147   4.531  14.852  0.0444  0.0959  0.1346
 3492TIP3    H134671   3.078   4.589  14.821  0.2946 -0.0209 -0.6454
 3492TIP3    H234672   3.176   4.483  14.775 -0.9905 -1.9797  0.9387
 3493TIP3   OH234673   4.605   2.558  13.041 -0.5417  0.0281  0.1338
 3493TIP3    H134674   4.517   2.596  13.040 -0.6962 -0.3324 -0.9567
 3493TIP3    H234675   4.622   2.533  12.950  0.1252 -1.1955  0.5639
 3494TIP3   OH234676   6.169   3.139  16.130 -0.3234 -0.2484 -0.1549
 3494TIP3    H134677   6.094   3.193  16.157  0.0667 -0.2875  1.0851
 3494TIP3    H234678   6.243   3.200  16.130  0.2892 -0.8933  2.1100
 3495TIP3   OH234679   4.297   1.779  15.576  0.6361 -0.2481 -0.0882
 3495TIP3    H134680   4.261   1.755  15.661 -0.0168  0.5323 -0.1281
 3495TIP3    H234681   4.349   1.704  15.549  0.3640 -0.7359  0.7328
 3496TIP3   OH234682   3.065   2.200  15.680  0.4298 -0.4841  0.1912
 3496TIP3    H134683   2.974   2.176  15.697  1.2607 -3.7234  0.9199
 3496TIP3    H234684   3.086   2.266  15.746 -0.9750 -0.8153  1.0010
 3497TIP3   OH234685   3.051   5.497  15.464  0.0404  0.0325 -0.0188
 3497TIP3    H134686   2.981   5.562  15.461  0.6615  0.6510 -1.6988
 3497TIP3    H234687   3.039   5.445  15.384  1.1689 -0.2160 -0.0368
 3498TIP3   OH234688   3.349   6.600  15.786  0.2240 -0.0400 -0.0499
 3498TIP3    H134689   3.441   6.585  15.766  0.4311 -0.7159  1.2929
 3498TIP3    H234690   3.336   6.558  15.871 -1.8768 -2.0089 -1.2316
 3499TIP3   OH234691   4.050   3.688  15.711 -0.1282  0.1386 -0.0703
 3499TIP3    H134692   4.119   3.628  15.684 -1.3647 -1.1079 -0.6005
 3499TIP3    H234693   3.995   3.699  15.634 -0.7323  0.7996  0.4345
 3500TIP3   OH234694   3.869   2.885  14.448 -0.1157 -0.0671  0.0711
 3500TIP3    H134695   3.793   2.833  14.421 -0.9746  1.5985 -0.8954
 3500TIP3    H234696   3.944   2.830  14.429 -1.0641 -1.8518  1.2579
 3501TIP3   OH234697   5.350   6.470  13.819 -0.5054  0.9554 -0.3271
 3501TIP3    H134698   5.423   6.448  13.877 -0.7429  0.4585 -0.2139
 3501TIP3    H234699   5.386   6.462  13.731 -0.0944  1.8805 -0.2516
 3502TIP3   OH234700   5.238   3.027  14.499 -0.2425  0.4170 -0.0721
 3502TIP3    H134701   5.231   3.038  14.405  2.3532  2.6462 -0.1380
 3502TIP3    H234702   5.239   2.932  14.512 -1.2252  0.0610 -2.1820
 3503TIP3   OH234703   6.116   5.905  16.489  0.3721 -0.7575 -0.5975
 3503TIP3    H134704   6.140   5.815  16.509  1.0027 -0.3439  0.5742
 3503TIP3    H234705   6.052   5.928  16.556  0.2342 -0.3269 -0.8757
 3504TIP3   OH234706   6.395   6.048  13.775  0.3838 -0.8622  0.0754
 3504TIP3    H134707   6.387   6.122  13.714  0.3553 -1.3504 -0.5238
 3504TIP3    H234708   6.468   5.997  13.741  1.6328 -0.1405  1.5470
 3505TIP3   OH234709   4.058   2.062  14.249 -0.3456 -0.1079 -0.0715
 3505TIP3    H134710   4.074   1.972  14.277  0.8962 -0.1992 -1.0069
 3505TIP3    H234711   4.131   2.112  14.286 -0.3523  0.2908 -0.5859
 3506TIP3   OH234712   3.772   5.649  15.614  0.1826  0.9244 -0.2618
 3506TIP3    H134713   3.681   5.663  15.588 -0.4219 -2.4000 -0.3550
 3506TIP3    H234714   3.765   5.598  15.695  1.9296 -0.3122 -0.8513
 3507TIP3   OH234715   1.318   1.842  14.634  0.1558  0.0837  0.4762
 3507TIP3    H134716   1.336   1.794  14.553  1.1975  0.6168  0.3893
 3507TIP3    H234717   1.223   1.835  14.644  0.2309 -1.8120  0.3466
 3508TIP3   OH234718   1.374   0.402  16.037  0.0959 -0.0200 -0.5795
 3508TIP3    H134719   1.365   0.327  15.978  1.2419  0.1218 -0.9704
 3508TIP3    H234720   1.322   0.379  16.113 -1.5676 -0.1322 -1.7083
 3509TIP3   OH234721   1.599   5.912  13.670  0.1345 -0.1332 -0.1518
 3509TIP3    H134722   1.626   6.002  13.653  0.6770 -0.0390  1.0857
 3509TIP3    H234723   1.565   5.914  13.760  0.0264 -1.1309 -0.1591
 3510TIP3   OH234724   1.139   3.162  16.406 -0.8574 -0.2992 -0.8083
 3510TIP3    H134725   1.128   3.135  16.497  1.1301 -3.3641 -1.3397
 3510TIP3    H234726   1.056   3.140  16.364 -0.9201 -1.1985 -0.2231
 3511TIP3   OH234727   6.521   2.933  15.238  0.2350  0.5445  0.3115
 3511TIP3    H134728   6.599   2.912  15.290  0.2843 -2.1466 -0.6675
 3511TIP3    H234729   6.452   2.946  15.302  0.4021 -2.1879  1.1595
 3512TIP3   OH234730   1.844   6.004  16.247 -0.1025  0.1724  0.3832
 3512TIP3    H134731   1.929   6.040  16.275  0.0803  1.0663 -1.1924
 3512TIP3    H234732   1.786   6.080  16.245 -0.8004 -0.3384  0.8638
 3513TIP3   OH234733   2.780   2.026  13.692 -0.0812 -0.5057  0.4200
 3513TIP3    H134734   2.693   2.057  13.667  0.5746  2.6053  1.5804
 3513TIP3    H234735   2.836   2.052  13.619  0.4700  1.0686  1.3731
 3514TIP3   OH234736   1.076   3.192  13.919 -0.0991 -0.2015 -0.3871
 3514TIP3    H134737   1.119   3.109  13.939 -0.2190 -0.2436 -0.3047
 3514TIP3    H234738   1.019   3.172  13.844 -1.0111 -0.4757  0.3615
 3515TIP3   OH234739   2.384   0.976  13.624  0.2587 -0.0738  0.4907
 3515TIP3    H134740   2.295   0.979  13.589  0.8733  1.3783 -1.0681
 3515TIP3    H234741   2.373   0.982  13.719 -1.2319  3.2434  0.2140
 3516TIP3   OH234742   4.775   5.532  15.707  0.4036 -0.3733  0.4056
 3516TIP3    H134743   4.755   5.624  15.727  2.4798  0.0728  0.7300
 3516TIP3    H234744   4.764   5.525  15.612 -0.4749  0.0186  0.4761
 3517TIP3   OH234745   2.745   0.601  16.544  0.1455 -0.1608  1.0926
 3517TIP3    H134746   2.692   0.543  16.599  1.8336 -1.5724  1.3453
 3517TIP3    H234747   2.785   0.542  16.480  0.6384  1.0003  0.3099
 3518TIP3   OH234748   4.645   5.706  16.266 -0.7394  0.0048 -0.0112
 3518TIP3    H134749   4.551   5.711  16.281 -0.9880 -2.7972 -0.1638
 3518TIP3    H234750   4.663   5.774  16.201 -2.7108  0.3551 -0.2382
 3519TIP3   OH234751   0.674   2.507  16.451  0.3447 -0.3072 -0.4859
 3519TIP3    H134752   0.677   2.415  16.476  1.5983 -0.1341  0.0911
 3519TIP3    H234753   0.640   2.552  16.529 -0.6973 -0.3160 -0.9225
 3520TIP3   OH234754   3.895   1.240  15.173  0.2672  0.2510  0.1924
 3520TIP3    H134755   3.880   1.332  15.151  2.3747  0.6576  0.2658
 3520TIP3    H234756   3.838   1.225  15.248  1.0805  2.0109  1.2437
 3521TIP3   OH234757   1.877   2.978  15.523  0.2047  0.0994 -0.0512
 3521TIP3    H134758   1.915   2.898  15.560  1.4436  0.4749 -0.4711
 3521TIP3    H234759   1.889   2.970  15.429  2.0548  1.5775 -0.0013
 3522TIP3   OH234760   2.664   0.039  15.239  0.2448 -0.0764 -0.7645
 3522TIP3    H134761   2.745   0.016  15.193  1.0673  0.4167  0.3811
 3522TIP3    H234762   2.628   0.112  15.190  0.5235 -0.2681 -1.2569
 3523TIP3   OH234763   5.263   4.982  16.767  0.5787  0.2194  0.2652
 3523TIP3    H134764   5.211   5.055  16.733 -1.1176 -0.7263  0.7132
 3523TIP3    H234765   5.199   4.912  16.781  1.9745 -0.9561  0.9735
 3524TIP3   OH234766   3.736   5.228  15.160 -0.4034  0.5857  0.4631
 3524TIP3    H134767   3.670   5.290  15.129 -0.1858  0.1731 -0.9040
 3524TIP3    H234768   3.705   5.142  15.129  0.2728  0.2640  0.6499
 3525TIP3   OH234769   1.969   6.190  14.485 -0.1222  0.2649 -0.5204
 3525TIP3    H134770   2.015   6.272  14.464  0.9270  0.2774  1.5696
 3525TIP3    H234771   1.896   6.218  14.541  0.0435 -0.1875 -0.0762
 3526TIP3   OH234772   1.322   1.142  15.740 -0.3960 -0.7034  0.5074
 3526TIP3    H134773   1.326   1.231  15.773 -2.5016  0.6668 -2.4947
 3526TIP3    H234774   1.244   1.104  15.781 -0.5746 -0.5114  0.3437
 3527TIP3   OH234775   0.948   5.323  15.355  0.1056 -0.2860  0.1822
 3527TIP3    H134776   0.869   5.320  15.301 -0.2246  0.6151  0.6032
 3527TIP3    H234777   0.962   5.416  15.372  0.8573 -0.4868  0.7139
 3528TIP3   OH234778   5.804   2.949  15.013  0.4041  0.0506  0.1972
 3528TIP3    H134779   5.776   2.955  15.105 -3.2855 -1.4560 -0.6442
 3528TIP3    H234780   5.759   3.022  14.970  0.7758 -0.2421 -0.6979
 3529TIP3   OH234781   4.534   6.236  14.216  0.6184  0.0403 -0.5311
 3529TIP3    H134782   4.481   6.211  14.291 -0.4693  1.0226 -0.9351
 3529TIP3    H234783   4.615   6.186  14.225 -0.0203 -0.8202  0.5832
 3530TIP3   OH234784   3.039   4.488  13.788 -0.2232 -0.1696 -0.3700
 3530TIP3    H134785   2.946   4.509  13.778  0.3547  3.6062  0.3579
 3530TIP3    H234786   3.064   4.450  13.704 -2.4657 -1.8061 -0.3915
 3531TIP3   OH234787   0.735   3.941  16.650 -0.3581  0.3874  0.6078
 3531TIP3    H134788   0.681   3.966  16.576  1.5377  0.4038 -0.8496
 3531TIP3    H234789   0.760   4.023  16.691  0.8941  0.6159 -0.5141
 3532TIP3   OH234790   2.533   2.648  16.118  0.0904  0.3840  0.4038
 3532TIP3    H134791   2.545   2.561  16.155  2.1922  0.8017  0.8343
 3532TIP3    H234792   2.520   2.705  16.194  1.0726  0.7634  0.2997
 3533TIP3   OH234793   2.077   4.401  14.822 -0.2502 -0.1983  0.5395
 3533TIP3    H134794   2.118   4.481  14.855 -0.1212 -0.3049  0.6351
 3533TIP3    H234795   2.013   4.377  14.889  0.0575 -0.4518  0.7435
 3534TIP3   OH234796   5.893   1.206  16.718 -0.1013  0.0599 -0.8418
 3534TIP3    H134797   5.870   1.267  16.787 -0.8070 -1.5705  0.4512
 3534TIP3    H234798   5.809   1.170  16.688  0.3518 -1.5744 -0.2755
 3535TIP3   OH234799   3.121   3.963  15.348  0.2446 -0.0754  0.4272
 3535TIP3    H134800   3.063   3.956  15.272  0.1406  0.2102  0.4792
 3535TIP3    H234801   3.148   3.873  15.366  1.8718  0.0450 -1.1724
 3536TIP3   OH234802   3.288   6.003  16.423  0.8161  0.0955  0.4210
 3536TIP3    H134803   3.345   5.980  16.350  0.3619  1.1655 -0.3012
 3536TIP3    H234804   3.304   6.097  16.437  0.2791  0.0882  1.1507
 3537TIP3   OH234805   4.505   3.987  13.990  0.1768  0.4761 -0.1562
 3537TIP3    H134806   4.484   4.080  13.980  1.5733  0.9483  1.0100
 3537TIP3    H234807   4.441   3.955  14.055  0.9730  1.1416  0.9870
 3538TIP3   OH234808   4.287   5.556  15.379  0.2279 -0.1458 -0.0257
 3538TIP3    H134809   4.366   5.611  15.380  0.7646 -0.9028  0.9447
 3538TIP3    H234810   4.267   5.541  15.471 -0.3665 -0.9427 -0.2724
 3539TIP3   OH234811   3.378   0.586  16.880  0.4004 -0.1248 -0.1434
 3539TIP3    H134812   3.304   0.531  16.907  1.0734 -0.5117  1.0007
 3539TIP3    H234813   3.451   0.525  16.872  1.3288  0.6257  1.8304
 3540TIP3   OH234814   6.433   5.767  15.912 -0.0505 -0.1612 -0.5523
 3540TIP3    H134815   6.380   5.751  15.834  1.5906  0.1172 -1.7803
 3540TIP3    H234816   6.483   5.686  15.923 -0.1254 -0.1184  0.0986
 3541TIP3   OH234817   1.255   2.383  15.895  0.3351  0.3686  0.0294
 3541TIP3    H134818   1.338   2.403  15.853 -0.0707  0.3839 -0.7816
 3541TIP3    H234819   1.189   2.432  15.846  0.0124  1.7243  1.7118
 3542TIP3   OH234820   3.055   1.496  15.755  0.1556  0.3862  0.1536
 3542TIP3    H134821   3.097   1.537  15.830  1.9625  0.3062 -0.7492
 3542TIP3    H234822   3.077   1.553  15.681 -1.2325  0.2477 -0.4085
 3543TIP3   OH234823   3.391   2.263  15.787 -0.9893  0.0594  0.0170
 3543TIP3    H134824   3.383   2.210  15.708  0.3843 -0.0586 -0.0674
 3543TIP3    H234825   3.480   2.247  15.818 -0.7236  1.8671  0.3138
 3544TIP3   OH234826   4.823   3.672  16.926  0.3520  0.3119  0.0538
 3544TIP3    H134827   4.874   3.743  16.889 -0.7857 -0.4232 -3.2418
 3544TIP3    H234828   4.746   3.714  16.963  0.7179  0.9519  0.0985
 3545TIP3   OH234829   0.948   5.775  14.192 -0.0993  0.2205 -0.3041
 3545TIP3    H134830   0.872   5.833  14.192  0.7607  1.3997 -0.9780
 3545TIP3    H234831   0.964   5.756  14.100  0.4666  0.0351 -0.1729
 3546TIP3   OH234832   3.749   4.057  14.854 -0.1598  0.0370  0.0340
 3546TIP3    H134833   3.816   4.047  14.787  0.6432  1.4155  0.6002
 3546TIP3    H234834   3.666   4.053  14.806  0.4021  1.2079 -1.0798
 3547TIP3   OH234835   2.555   5.229  14.887  0.0661  0.2059 -0.1282
 3547TIP3    H134836   2.612   5.214  14.812 -1.9971  2.6530 -2.3855
 3547TIP3    H234837   2.584   5.312  14.924 -1.6612  1.2749 -1.0605
 3548TIP3   OH234838   4.041   5.227  16.272 -0.0320 -0.5251  0.3770
 3548TIP3    H134839   4.108   5.203  16.207  0.2211  2.3358 -0.5739
 3548TIP3    H234840   3.962   5.240  16.220 -0.6807 -1.3546  1.1396
 3549TIP3   OH234841   0.260   1.633  16.028 -0.0132 -0.2070  0.2299
 3549TIP3    H134842   0.332   1.674  16.075  0.3465  0.5499 -0.9533
 3549TIP3    H234843   0.183   1.686  16.051  0.4327  1.1560 -1.2221
 3550TIP3   OH234844   2.225   4.423  14.574 -0.4454 -0.4062 -0.3336
 3550TIP3    H134845   2.141   4.416  14.619 -0.3033 -2.5917 -0.2795
 3550TIP3    H234846   2.285   4.370  14.626  0.7292  0.3303 -0.8974
 3551TIP3   OH234847   1.952   4.718  15.583  0.2719  0.3065 -0.3088
 3551TIP3    H134848   1.897   4.778  15.633  0.1942 -0.7938  0.9870
 3551TIP3    H234849   1.966   4.644  15.642  0.0064 -1.1553 -1.9878
 3552TIP3   OH234850   5.274   2.258  15.320 -0.3625 -0.3109  0.0223
 3552TIP3    H134851   5.249   2.347  15.295  0.8815 -0.5167 -2.1750
 3552TIP3    H234852   5.248   2.204  15.246  1.1510 -1.3991  0.2383
 3553TIP3   OH234853   5.005   6.163  14.495 -0.0438  0.3455 -0.3482
 3553TIP3    H134854   5.069   6.227  14.525 -0.6897  1.3493 -1.0310
 3553TIP3    H234855   5.031   6.145  14.404  0.0303 -0.2357 -0.2134
 3554TIP3   OH234856   6.129   6.178  16.026  0.1599  0.2510 -0.5884
 3554TIP3    H134857   6.097   6.180  16.116 -0.8319  3.0647 -0.8850
 3554TIP3    H234858   6.224   6.179  16.034  0.0846  0.1887  0.4303
 3555TIP3   OH234859   6.109   2.094  16.722 -0.7645  0.2515  0.5272
 3555TIP3    H134860   6.176   2.039  16.762 -1.3937 -0.2396  0.9274
 3555TIP3    H234861   6.090   2.161  16.787 -1.3800 -0.2111  0.8371
 3556TIP3   OH234862   0.430   4.952  13.917  0.1978 -0.6324 -0.2350
 3556TIP3    H134863   0.431   4.863  13.954 -1.1867 -0.4199  0.3738
 3556TIP3    H234864   0.338   4.967  13.895  0.5735  0.3023 -1.2355
 3557TIP3   OH234865   3.811   1.758  15.917  0.3172 -0.0773  0.1865
 3557TIP3    H134866   3.858   1.704  15.980 -0.1545 -1.1622 -0.3768
 3557TIP3    H234867   3.829   1.718  15.832 -0.2792  0.4723 -0.2102
 3558TIP3   OH234868   5.927   1.158  16.051  0.0918  0.5457 -0.1141
 3558TIP3    H134869   5.898   1.200  16.132  0.0038  1.2134 -0.4786
 3558TIP3    H234870   5.846   1.142  16.002  0.2731  2.0793 -0.9743
 3559TIP3   OH234871   5.042   1.141  16.136  0.0464  0.1402 -0.2236
 3559TIP3    H134872   5.001   1.112  16.055 -0.9652 -0.9666  0.6492
 3559TIP3    H234873   5.116   1.195  16.108  1.1304 -2.0738 -1.9295
 3560TIP3   OH234874   3.534   2.726  15.588  0.3423 -0.4806 -0.3139
 3560TIP3    H134875   3.459   2.686  15.543 -0.4672 -0.5876  1.0700
 3560TIP3    H234876   3.577   2.653  15.632 -0.4468 -0.0260  1.2542
 3561TIP3   OH234877   3.150   1.140  14.015  0.5895  0.1016 -0.3600
 3561TIP3    H134878   3.105   1.211  14.060  2.3214  0.8223  0.3281
 3561TIP3    H234879   3.137   1.158  13.922 -0.6633  0.1647 -0.1959
 3562TIP3   OH234880   3.870   4.915  14.405 -0.2686 -0.2009  0.2783
 3562TIP3    H134881   3.806   4.850  14.380 -0.9257  0.0418  1.2972
 3562TIP3    H234882   3.819   4.995  14.419  0.2249 -0.0391  1.2239
 3563TIP3   OH234883   1.762   6.642  15.242  0.1062 -0.2318 -0.1509
 3563TIP3    H134884   1.803   6.728  15.244  0.6159 -0.4536  2.4732
 3563TIP3    H234885   1.675   6.656  15.281  0.4107 -0.9585  0.8351
 3564TIP3   OH234886   4.052   3.257  15.683 -0.3770 -0.2545 -0.2873
 3564TIP3    H134887   4.118   3.314  15.643 -2.9233  1.5296 -2.2661
 3564TIP3    H234888   3.986   3.317  15.717 -1.2498 -1.9754  1.2460
 3565TIP3   OH234889   4.057   3.946  16.254 -0.4083  0.1534 -0.2496
 3565TIP3    H134890   4.132   4.005  16.253  1.5657 -2.1319  1.2596
 3565TIP3    H234891   4.007   3.972  16.332 -0.6235  0.9915 -0.6527
 3566TIP3   OH234892   4.333   4.878  15.267  0.4522 -0.2972  0.1280
 3566TIP3    H134893   4.300   4.905  15.352 -0.3165  0.5184 -0.4069
 3566TIP3    H234894   4.289   4.795  15.249 -0.8662  0.4808 -0.3077
 3567TIP3   OH234895   1.726   3.970  13.980  0.1723  0.8034  0.1355
 3567TIP3    H134896   1.676   4.052  13.976  0.1012  0.7248 -0.5956
 3567TIP3    H234897   1.703   3.923  13.900 -0.0920 -0.1111  0.7246
 3568TIP3   OH234898   3.818   1.546  15.734  0.0888  0.4579 -0.0703
 3568TIP3    H134899   3.828   1.459  15.772  0.4397  0.1476 -0.8477
 3568TIP3    H234900   3.804   1.530  15.641  2.9017  1.2911 -0.7456
 3569TIP3   OH234901   4.575   0.199  15.102  0.0973  0.3536 -0.0974
 3569TIP3    H134902   4.503   0.159  15.053 -1.4627  1.8788  0.8205
 3569TIP3    H234903   4.628   0.125  15.132 -1.3403 -0.8540 -0.4217
 3570TIP3   OH234904   0.296   0.161  15.535 -0.1659 -0.0870  0.1745
 3570TIP3    H134905   0.325   0.118  15.454 -0.3067  0.4697 -0.1732
 3570TIP3    H234906   0.314   0.096  15.604  3.4238  0.7613  0.2399
 3571TIP3   OH234907   6.137   3.249  15.265 -0.0414 -0.1902  0.0985
 3571TIP3    H134908   6.095   3.263  15.350 -1.8691 -0.9238 -0.6372
 3571TIP3    H234909   6.119   3.158  15.244  1.1483 -0.2716 -0.7111
 3572TIP3   OH234910   2.360   3.947  15.138  0.6682  0.2061 -0.2902
 3572TIP3    H134911   2.384   3.951  15.231  2.0369 -0.7988 -0.5602
 3572TIP3    H234912   2.265   3.938  15.137  0.7584 -1.1672  1.0743
 3573TIP3   OH234913   4.859   0.564  15.960  0.2243  0.1376  0.1086
 3573TIP3    H134914   4.878   0.656  15.978  0.7970  0.0097  0.1607
 3573TIP3    H234915   4.786   0.566  15.898 -1.1610  0.6110  1.6863
 3574TIP3   OH234916   5.712   4.316  15.127 -0.4252 -0.2231 -0.1312
 3574TIP3    H134917   5.664   4.396  15.149  0.1545  0.4711 -1.3032
 3574TIP3    H234918   5.761   4.295  15.207 -0.3694  0.7477  0.1054
 3575TIP3   OH234919   5.238   3.746  14.717 -0.2977  0.0087 -0.5154
 3575TIP3    H134920   5.290   3.666  14.730  0.0192  0.1867 -0.6718
 3575TIP3    H234921   5.298   3.806  14.673 -0.0650  0.8344  0.8721
 3576TIP3   OH234922   3.283   5.316  16.405  0.4445  0.4193  0.5999
 3576TIP3    H134923   3.232   5.287  16.481  2.4905 -1.4731  1.3497
 3576TIP3    H234924   3.305   5.236  16.358 -0.4070  1.5207 -1.8603
 3577TIP3   OH234925   5.162   5.685  14.555 -0.1179 -0.1766  0.2927
 3577TIP3    H134926   5.068   5.667  14.552 -0.0766 -0.4402 -2.3729
 3577TIP3    H234927   5.199   5.627  14.488  1.8942  0.2961  0.9141
 3578TIP3   OH234928   2.156   4.777  16.836  0.2768  0.0157 -0.5164
 3578TIP3    H134929   2.251   4.764  16.829  0.2300 -0.1105 -0.9926
 3578TIP3    H234930   2.146   4.856  16.889  0.6154 -0.7617  0.7636
 3579TIP3   OH234931   4.910   1.055  17.200 -0.0454 -0.7003 -0.3161
 3579TIP3    H134932   4.851   1.019  17.266  0.4219  0.2167  0.6183
 3579TIP3    H234933   4.914   1.149  17.219  0.0736 -0.4113 -1.6715
 3580TIP3   OH234934   1.776   2.073  13.629 -0.1052 -0.2135  0.4416
 3580TIP3    H134935   1.783   2.163  13.597  1.5709 -0.3820  0.1969
 3580TIP3    H234936   1.710   2.032  13.574 -0.4893  0.7211  0.1979
 3581TIP3   OH234937   5.158   5.590  16.358  0.6711  0.3259 -0.1874
 3581TIP3    H134938   5.147   5.519  16.295  0.3928 -0.9205  1.2177
 3581TIP3    H234939   5.071   5.602  16.397  0.4326  2.2318 -1.1648
 3582TIP3   OH234940   0.754   3.737  13.844  0.5410 -0.2310 -0.4464
 3582TIP3    H134941   0.730   3.661  13.897 -0.7413  0.1526 -0.4235
 3582TIP3    H234942   0.784   3.701  13.761 -0.1431 -0.7689 -0.4723
 3583TIP3   OH234943   5.316   2.166  16.302  0.2381  0.0780  0.4545
 3583TIP3    H134944   5.241   2.112  16.278  1.1425 -0.4287 -1.4010
 3583TIP3    H234945   5.375   2.105  16.348  1.0984 -0.5223 -1.3241
 3584TIP3   OH234946   6.322   3.536  16.023  0.1778  0.6165 -0.3370
 3584TIP3    H134947   6.386   3.481  16.068 -2.2100 -1.1703  1.1133
 3584TIP3    H234948   6.318   3.616  16.074  0.7787  0.4629 -0.0429
 3585TIP3   OH234949   3.435   2.062  14.875 -0.3170 -0.6760  0.0680
 3585TIP3    H134950   3.380   2.072  14.953  0.2528 -2.0072  0.6723
 3585TIP3    H234951   3.374   2.067  14.802 -0.9527 -0.0636  0.6312
 3586TIP3   OH234952   4.820   4.629  15.903  0.2076 -0.1583 -0.0810
 3586TIP3    H134953   4.783   4.706  15.858  0.6632  0.4083  0.4988
 3586TIP3    H234954   4.748   4.596  15.956 -0.1234 -0.4053 -0.6720
 3587TIP3   OH234955   3.449   5.166  15.165 -0.2229  0.1906 -0.0638
 3587TIP3    H134956   3.477   5.211  15.244  0.4648  0.2230 -0.3254
 3587TIP3    H234957   3.382   5.104  15.196 -1.2717  1.4469  0.2739
 3588TIP3   OH234958   6.165   6.103  16.310  0.5239 -0.2390  0.0112
 3588TIP3    H134959   6.222   6.061  16.245  1.7973  1.0781  0.2305
 3588TIP3    H234960   6.174   6.049  16.388 -0.0186 -1.1067 -0.5101
 3589TIP3   OH234961   3.693   4.022  13.666  0.6895 -0.0933  0.2718
 3589TIP3    H134962   3.692   3.947  13.726  0.7652 -0.3061  0.0116
 3589TIP3    H234963   3.716   4.097  13.721  1.6082 -0.4185  0.3572
 3590TIP3   OH234964   6.453   2.447  14.039  0.0352  0.0542  0.1301
 3590TIP3    H134965   6.535   2.403  14.018  0.9219  0.8482  1.7312
 3590TIP3    H234966   6.436   2.503  13.962  1.1876  0.1409 -0.0860
 3591TIP3   OH234967   5.842   5.440  15.001  0.0134  0.1608 -0.1523
 3591TIP3    H134968   5.814   5.526  15.031 -0.5034  0.6772 -1.9805
 3591TIP3    H234969   5.769   5.408  14.948 -0.0776 -1.7197  1.0124
 3592TIP3   OH234970   6.616   2.594  16.089  0.4659 -0.6436  0.3719
 3592TIP3    H134971   6.542   2.534  16.091 -0.0093 -0.0594  1.8219
 3592TIP3    H234972   6.605   2.644  16.008 -1.8230  0.7473  1.4593
 3593TIP3   OH234973   4.704   6.649  16.832 -0.7796 -0.2211  0.0104
 3593TIP3    H134974   4.674   6.571  16.878 -1.9992  0.1837 -0.0503
 3593TIP3    H234975   4.647   6.719  16.864  1.0996  0.9304  1.0157
 3594TIP3   OH234976   4.266   6.358  14.890  0.4605  0.1568 -0.6736
 3594TIP3    H134977   4.316   6.277  14.885 -0.9592 -0.7093 -1.7131
 3594TIP3    H234978   4.190   6.336  14.944  0.0227  0.7452 -1.0275
 3595TIP3   OH234979   5.476   2.239  14.506  0.1355 -0.8046 -0.0594
 3595TIP3    H134980   5.400   2.261  14.559 -0.0549 -0.9557 -0.2671
 3595TIP3    H234981   5.454   2.271  14.419  0.4350 -0.5841 -0.0559
 3596TIP3   OH234982   1.641   3.016  15.657  0.4031 -1.0763 -0.1831
 3596TIP3    H134983   1.576   3.054  15.599 -0.8306  0.4666  2.0794
 3596TIP3    H234984   1.711   2.986  15.598 -0.7984  0.2736 -2.4254
 3597TIP3   OH234985   3.235   1.309  15.946  0.6804  0.5218  0.1903
 3597TIP3    H134986   3.214   1.400  15.967  0.3681  0.6854 -0.7709
 3597TIP3    H234987   3.149   1.268  15.932  0.7987 -0.0468  1.1060
 3598TIP3   OH234988   1.274   0.507  15.229  0.3852  0.5326 -0.1865
 3598TIP3    H134989   1.249   0.417  15.209  0.4405  0.6843 -0.9713
 3598TIP3    H234990   1.362   0.500  15.268  0.2478  0.2251  0.0677
 3599TIP3   OH234991   1.144   6.593  13.994 -0.1101  0.3247  0.0574
 3599TIP3    H134992   1.205   6.628  14.058 -2.7562  1.1043  2.3143
 3599TIP3    H234993   1.083   6.664  13.976 -0.6999 -0.5524 -1.7560
 3600TIP3   OH234994   1.060   2.792  16.512 -0.7987 -0.0852 -0.4161
 3600TIP3    H134995   1.116   2.743  16.573  0.2116  0.1869 -1.0986
 3600TIP3    H234996   1.100   2.779  16.427 -1.0581  1.1387 -0.7418
 3601TIP3   OH234997   5.038   6.018  16.712 -0.1447  0.0015  0.3536
 3601TIP3    H134998   5.037   6.085  16.644  0.8922 -1.2249 -0.9264
 3601TIP3    H234999   4.954   6.030  16.758 -1.1935  0.4522 -1.5530
 3602TIP3   OH235000   0.981   2.721  14.020 -0.3391  0.0032  0.6509
 3602TIP3    H135001   0.968   2.719  14.115 -0.5757  0.4317  0.6307
 3602TIP3    H235002   0.892   2.730  13.984 -0.1233  1.5606  0.4515
 3603TIP3   OH235003   1.545   4.151  16.993  0.1341  0.0084  0.3470
 3603TIP3    H135004   1.473   4.089  16.984 -0.7008  1.0558 -0.4541
 3603TIP3    H235005   1.572   4.171  16.903  0.7499  0.4024  0.6036
 3604TIP3   OH235006   2.426   0.779  15.097  0.2040 -0.8664 -0.2443
 3604TIP3    H135007   2.461   0.830  15.024  0.5678  1.2313  1.3126
 3604TIP3    H235008   2.494   0.713  15.115  0.4052 -0.9763 -1.3553
 3605TIP3   OH235009   0.875   1.746  16.069 -0.2898 -0.6501 -0.0224
 3605TIP3    H135010   0.799   1.706  16.027 -0.3602  0.9918 -1.5548
 3605TIP3    H235011   0.878   1.835  16.034  0.9659  0.0906  1.8198
 3606TIP3   OH235012   5.590   0.288  16.488  0.2032 -0.2706  0.4823
 3606TIP3    H135013   5.587   0.383  16.491  1.6988 -0.1621 -0.4763
 3606TIP3    H235014   5.503   0.262  16.457  0.8509  0.9812 -2.7056
 3607TIP3   OH235015   3.400   6.113  16.847 -0.8601  0.0776 -0.0286
 3607TIP3    H135016   3.430   6.181  16.786  2.5737  0.7754  2.1288
 3607TIP3    H235017   3.305   6.121  16.847 -0.7478  3.2487 -1.7484
 3608TIP3   OH235018   4.061   0.451  13.844  0.4497  0.2451  0.0904
 3608TIP3    H135019   4.108   0.533  13.830  0.2922  0.7207  2.1122
 3608TIP3    H235020   4.056   0.411  13.757  2.3746  1.3540 -0.5815
 3609TIP3   OH235021   6.152   2.656  14.600  0.0334 -0.8498  0.7157
 3609TIP3    H135022   6.072   2.650  14.652 -0.8272 -0.8081 -0.5680
 3609TIP3    H235023   6.138   2.732  14.544  0.7184 -1.2021  0.0540
 3610TIP3   OH235024   0.683   4.793  14.086 -0.3451  0.0138 -0.2346
 3610TIP3    H135025   0.761   4.753  14.047  0.3257 -0.6480  1.6712
 3610TIP3    H235026   0.690   4.886  14.062  0.6362 -0.1589 -0.7062
 3611TIP3   OH235027   4.203   3.674  14.680 -0.0818  0.4898 -0.3188
 3611TIP3    H135028   4.178   3.633  14.763 -0.4417  1.4469  0.0571
 3611TIP3    H235029   4.227   3.600  14.623 -1.2995 -0.2904  0.1392
 3612TIP3   OH235030   2.544   1.702  15.444  0.3299  0.4523 -0.6436
 3612TIP3    H135031   2.571   1.679  15.533  0.6405 -0.7077 -1.0190
 3612TIP3    H235032   2.491   1.781  15.455 -2.8649 -1.6792  1.0876
 3613TIP3   OH235033   4.200   4.820  16.713 -0.2779  0.2460 -0.4825
 3613TIP3    H135034   4.116   4.858  16.687  1.0543  2.6534 -1.6422
 3613TIP3    H235035   4.244   4.801  16.630 -0.2278 -2.4636  0.0888
 3614TIP3   OH235036   3.724   1.119  14.003 -0.0511  0.4210 -0.1522
 3614TIP3    H135037   3.770   1.145  13.922  0.9087 -0.1875  0.1837
 3614TIP3    H235038   3.680   1.199  14.031 -2.7531  0.0376 -2.7424
 3615TIP3   OH235039   5.265   2.875  16.007  0.2551 -0.8998 -0.3634
 3615TIP3    H135040   5.286   2.782  16.017  0.6727 -0.9698 -1.6290
 3615TIP3    H235041   5.172   2.877  15.988 -0.0667 -0.9256  1.0816
 3616TIP3   OH235042   0.659   6.074  14.916 -0.4231  1.0247 -0.1744
 3616TIP3    H135043   0.701   6.016  14.852 -0.0752  2.8539 -1.6940
 3616TIP3    H235044   0.696   6.047  15.001  1.3697  0.4433 -1.0894
 3617TIP3   OH235045   1.669   6.443  16.290 -0.4198  0.6665 -0.8896
 3617TIP3    H135046   1.712   6.517  16.333 -1.9694  1.0462  0.0796
 3617TIP3    H235047   1.578   6.470  16.282 -1.3314 -1.6396  0.6669
 3618TIP3   OH235048   1.655   2.836  16.038 -0.0211  0.1467  0.0878
 3618TIP3    H135049   1.599   2.758  16.046  0.0560  0.1013  0.1971
 3618TIP3    H235050   1.725   2.821  16.102 -1.5906  1.6734  2.3242
 3619TIP3   OH235051   1.333   6.233  17.101  0.2761 -0.0105 -0.3379
 3619TIP3    H135052   1.273   6.278  17.041  0.5032  2.2987  1.0309
 3619TIP3    H235053   1.275   6.184  17.160 -0.0123 -1.1317 -1.5227
 3620TIP3   OH235054   6.536   5.631  16.562  0.2525 -0.2648 -0.0622
 3620TIP3    H135055   6.490   5.626  16.479  1.7743 -1.4837 -0.8737
 3620TIP3    H235056   6.629   5.637  16.539  0.6347  0.8578  1.5352
 3621TIP3   OH235057   2.484   1.458  16.126  0.3327  0.0056 -0.5856
 3621TIP3    H135058   2.463   1.390  16.062  0.3000 -0.2375 -0.3151
 3621TIP3    H235059   2.419   1.446  16.196  0.8096 -0.1751 -0.1727
 3622TIP3   OH235060   2.294   0.385  15.370  0.0498 -0.0714  0.0449
 3622TIP3    H135061   2.240   0.464  15.379  0.3135  0.3560 -1.6986
 3622TIP3    H235062   2.262   0.326  15.437 -1.5793  0.7482  0.0370
 3623TIP3   OH235063   0.573   0.831  16.126  0.3504 -0.3737 -0.4847
 3623TIP3    H135064   0.563   0.777  16.204  2.5266  0.4035  0.3931
 3623TIP3    H235065   0.647   0.791  16.079  1.4752  1.2973 -0.2302
 3624TIP3   OH235066   1.212   5.390  13.318 -0.2534 -0.1357 -0.5580
 3624TIP3    H135067   1.134   5.439  13.296  0.6134  1.9455  0.6737
 3624TIP3    H235068   1.245   5.431  13.398  2.4553 -0.4690 -1.3833
 3625TIP3   OH235069   3.109   6.677  17.218 -0.3353  0.0951 -0.1665
 3625TIP3    H135070   3.139   6.617  17.286 -1.2897  0.7656  0.8957
 3625TIP3    H235071   3.034   6.634  17.178  1.0004 -0.8754 -1.7299
 3626TIP3   OH235072   2.048   3.957  13.734 -0.3194 -0.2069 -0.3170
 3626TIP3    H135073   2.017   4.005  13.657 -0.2461 -2.4188 -1.8362
 3626TIP3    H235074   2.058   3.867  13.703  1.2869 -0.8657  1.8878
 3627TIP3   OH235075   0.042   5.827  16.803 -0.4724 -0.6797  0.2075
 3627TIP3    H135076   0.013   5.859  16.717 -0.9907  0.6603  0.8519
 3627TIP3    H235077  -0.025   5.763  16.828 -1.6863  0.7055  0.6629
 3628TIP3   OH235078   6.260   6.482  15.091 -0.0136  0.0537  0.3717
 3628TIP3    H135079   6.196   6.412  15.080 -1.7369  1.4162  1.1972
 3628TIP3    H235080   6.275   6.486  15.186  0.3353  0.5637  0.2973
 3629TIP3   OH235081   0.090   2.295  14.224  0.2567 -0.5286 -0.5469
 3629TIP3    H135082   0.039   2.307  14.144  0.9191  1.3032 -0.7362
 3629TIP3    H235083   0.057   2.213  14.261 -1.4940 -0.3648 -1.6207
 3630TIP3   OH235084   6.355   2.695  14.304  0.5843  0.6747  0.4327
 3630TIP3    H135085   6.301   2.638  14.249 -0.8514  0.9898  1.4772
 3630TIP3    H235086   6.394   2.636  14.369  0.9985  0.5519  0.0829
 3631TIP3   OH235087   6.068   2.901  14.803 -0.1761  0.1392 -0.2413
 3631TIP3    H135088   6.003   2.886  14.735 -0.3968  0.0578 -0.0141
 3631TIP3    H235089   6.053   2.832  14.867 -0.3051  0.5117  0.1376
 3632TIP3   OH235090   2.221   5.236  14.343  0.7197 -0.6513  0.3416
 3632TIP3    H135091   2.239   5.288  14.265  1.6850 -1.7749 -0.2321
 3632TIP3    H235092   2.269   5.154  14.328  0.2621 -1.2080  1.7555
 3633TIP3   OH235093   6.120   0.619  16.208 -0.3375 -0.2148  0.6710
 3633TIP3    H135094   6.196   0.665  16.244  1.9694 -2.1475 -1.3496
 3633TIP3    H235095   6.088   0.676  16.138 -0.1264  0.1960  0.9092
 3634TIP3   OH235096   5.580   5.128  14.997 -0.0115  0.1834  0.2505
 3634TIP3    H135097   5.531   5.167  15.070 -1.9974 -0.8433 -0.4666
 3634TIP3    H235098   5.582   5.034  15.016  0.2940  0.0218 -0.5404
 3635TIP3   OH235099   3.015   2.696  16.024  0.2349 -0.0165 -0.2132
 3635TIP3    H135100   2.978   2.624  16.076 -0.9332  0.0973 -0.8559
 3635TIP3    H235101   2.961   2.772  16.045 -0.5120 -0.0494 -1.8290
 3636TIP3   OH235102   6.467   4.139  16.752 -0.3815  0.2962 -0.2222
 3636TIP3    H135103   6.474   4.164  16.660 -4.8203 -0.7547 -1.1041
 3636TIP3    H235104   6.417   4.210  16.792 -0.2763 -0.2191  0.8441
 3637TIP3   OH235105   6.592   5.225  15.023 -0.1072  0.3718 -0.1666
 3637TIP3    H135106   6.497   5.217  15.010  0.1820 -1.6850 -1.5699
 3637TIP3    H235107   6.624   5.265  14.943  0.3413 -0.1521 -0.2510
 3638TIP3   OH235108   0.151   1.996  13.980  0.3163 -0.3970 -0.5379
 3638TIP3    H135109   0.142   2.061  13.910 -0.3046 -1.1754 -1.2008
 3638TIP3    H235110   0.062   1.972  14.003  0.5341 -1.3121 -0.5984
 3639TIP3   OH235111   0.106   3.870  13.621 -0.3015  0.4179  0.5485
 3639TIP3    H135112   0.093   3.949  13.673 -0.1345 -0.4718  2.0190
 3639TIP3    H235113   0.019   3.849  13.587 -0.3131  1.3121 -0.0075
 3640TIP3   OH235114   1.504   2.918  13.622  0.2139  0.4629  0.5983
 3640TIP3    H135115   1.533   2.983  13.685  0.8843  0.5417  0.2249
 3640TIP3    H235116   1.412   2.903  13.642 -0.1217  1.9704  0.3095
 3641TIP3   OH235117   2.482   6.217  14.858  0.2016  0.0288  0.4638
 3641TIP3    H135118   2.465   6.148  14.922  0.1593 -0.1865  0.2252
 3641TIP3    H235119   2.438   6.187  14.778  0.9359 -0.1033  0.0977
 3642TIP3   OH235120   5.815   1.356  15.751 -0.3938 -0.0764  0.1142
 3642TIP3    H135121   5.868   1.436  15.745  1.0972 -0.9432  1.0863
 3642TIP3    H235122   5.777   1.346  15.664  0.6884  0.8350 -0.4910
 3643TIP3   OH235123   6.468   2.734  14.905  0.1676  0.4456  0.0940
 3643TIP3    H135124   6.452   2.745  14.811 -1.0321  0.7776  0.3187
 3643TIP3    H235125   6.560   2.756  14.916  0.8020 -1.2783 -1.2597
 3644TIP3   OH235126   6.621   2.224  14.009 -0.0199 -0.3189 -0.3854
 3644TIP3    H135127   6.617   2.132  14.035 -1.3391 -0.9358 -2.5416
 3644TIP3    H235128   6.698   2.230  13.952  0.8229  0.2612  0.7503
 3645TIP3   OH235129   1.788   0.995  15.837  0.1440  0.3622 -0.2716
 3645TIP3    H135130   1.710   1.011  15.783  1.2673 -0.9039 -2.3928
 3645TIP3    H235131   1.861   1.021  15.781  1.2975  2.3644  1.9832
 3646TIP3   OH235132   3.733   5.929  15.322 -0.0411 -0.4051 -0.2861
 3646TIP3    H135133   3.796   5.909  15.253 -1.4114 -2.9950 -0.9153
 3646TIP3    H235134   3.783   5.923  15.403  1.0882  0.3633 -0.9052
 3647TIP3   OH235135   4.091   2.289  15.420  0.0690  0.0108  0.0890
 3647TIP3    H135136   4.080   2.383  15.414 -0.4811 -0.0750 -0.3048
 3647TIP3    H235137   4.007   2.256  15.454  0.8785 -0.1700  2.0742
 3648TIP3   OH235138   6.489   5.867  14.662  0.3417 -0.1114  0.0899
 3648TIP3    H135139   6.567   5.872  14.608  0.4554 -0.5628  0.2039
 3648TIP3    H235140   6.478   5.773  14.680 -1.3564 -0.2898 -1.5863
 3649TIP3   OH235141   4.193   5.315  14.979  0.1175 -0.0505 -0.2263
 3649TIP3    H135142   4.252   5.302  15.053 -1.6067 -0.1596  1.2183
 3649TIP3    H235143   4.110   5.277  15.008 -1.3917  2.2904 -1.1272
 3650TIP3   OH235144   3.438   2.921  16.941  0.2171 -0.2348  0.1454
 3650TIP3    H135145   3.459   2.910  16.849 -0.6404 -1.9932  0.1194
 3650TIP3    H235146   3.484   2.850  16.985  0.4251  0.4437  1.0658
 3651TIP3   OH235147   2.819   3.206  15.920 -0.2504  0.3886  0.1571
 3651TIP3    H135148   2.831   3.131  15.861 -1.1535  1.7672 -1.8888
 3651TIP3    H235149   2.862   3.179  16.001  0.3949 -1.9086 -0.8455
 3652TIP3   OH235150   0.030   1.765  14.388  0.0400  0.5153  0.2150
 3652TIP3    H135151  -0.027   1.756  14.464 -0.2528  2.6260  0.2891
 3652TIP3    H235152  -0.030   1.774  14.314  0.2721  1.7829  0.1711
 3653TIP3   OH235153   5.058   1.821  14.938 -0.4405 -0.7917 -0.6227
 3653TIP3    H135154   5.143   1.821  14.982 -0.2448  2.3649 -0.7423
 3653TIP3    H235155   4.995   1.799  15.006  0.1956  0.4409  0.4159
 3654TIP3   OH235156   0.811   3.883  17.030  0.3550 -0.1643 -0.0584
 3654TIP3    H135157   0.859   3.944  16.974  0.3822 -0.8214 -0.7542
 3654TIP3    H235158   0.878   3.823  17.062  0.2060 -0.2763  0.0439
 3655TIP3   OH235159   0.584   2.016  14.537 -0.0987  0.2065  0.1511
 3655TIP3    H135160   0.605   1.946  14.476 -0.2722  1.2455 -1.1646
 3655TIP3    H235161   0.666   2.035  14.581  0.7027  1.1165 -1.6101
 3656TIP3   OH235162   2.825   5.642  14.076 -0.0127 -0.3091  0.4055
 3656TIP3    H135163   2.767   5.681  14.011 -0.4539 -1.0659  0.3313
 3656TIP3    H235164   2.825   5.548  14.056 -1.9029 -0.9085  2.7785
 3657TIP3   OH235165   2.093   6.526  15.384  0.3679 -0.2360 -0.0258
 3657TIP3    H135166   2.050   6.604  15.419 -0.3401  0.2607 -1.8905
 3657TIP3    H235167   2.044   6.453  15.420  1.3260  0.1128  2.1308
 3658TIP3   OH235168   0.699   0.349  15.691  0.0998 -0.0702  0.1248
 3658TIP3    H135169   0.622   0.398  15.662  0.4488  1.4200  1.5627
 3658TIP3    H235170   0.719   0.385  15.777  0.6769 -2.4674  1.0579
 3659TIP3   OH235171   1.632   2.082  14.188  0.1505 -0.0692  0.3795
 3659TIP3    H135172   1.661   2.090  14.097  0.1116 -0.5703  0.3192
 3659TIP3    H235173   1.712   2.096  14.239  0.0744  0.7101  0.2845
 3660TIP3   OH235174   4.567   3.651  16.385 -0.4375 -0.2548 -0.6307
 3660TIP3    H135175   4.625   3.630  16.458 -0.1104  1.7628 -0.2719
 3660TIP3    H235176   4.481   3.665  16.426  0.0904  2.5554 -0.3281
 3661TIP3   OH235177   6.629   3.559  14.082 -0.7851  0.4517  0.0042
 3661TIP3    H135178   6.714   3.600  14.103 -1.2270  1.2215  0.3422
 3661TIP3    H235179   6.652   3.472  14.051 -0.0057 -0.4909  2.8932
 3662TIP3   OH235180   1.709   3.887  13.705 -0.6159 -0.6056 -0.1399
 3662TIP3    H135181   1.726   3.804  13.662 -1.3096 -0.2930 -1.0545
 3662TIP3    H235182   1.691   3.948  13.633  1.2830  0.6988  0.4032
 3663TIP3   OH235183   2.738   0.960  15.813 -0.0323 -0.0201  0.8059
 3663TIP3    H135184   2.801   0.950  15.884 -0.0994 -0.0666  0.8592
 3663TIP3    H235185   2.789   0.949  15.733  0.0530  0.0886  0.8458
 3664TIP3   OH235186   2.234   1.911  15.660  0.3807 -0.1395 -0.4443
 3664TIP3    H135187   2.159   1.869  15.701  0.6823 -0.4775 -0.2252
 3664TIP3    H235188   2.289   1.938  15.733  1.3921 -1.6092 -0.6099
 3665TIP3   OH235189   0.539   4.989  15.081 -0.5551  0.0100 -0.5213
 3665TIP3    H135190   0.458   5.008  15.128 -0.0671 -0.4091  0.5423
 3665TIP3    H235191   0.579   5.074  15.067 -0.3100  0.1055  0.6097
 3666TIP3   OH235192   1.665   4.002  16.110 -0.3232  0.2079 -0.3453
 3666TIP3    H135193   1.759   3.986  16.103 -0.5866 -1.3519 -0.4544
 3666TIP3    H235194   1.627   3.919  16.137 -1.7247  0.7216 -0.6054
 3667TIP3   OH235195   2.659   3.714  16.327 -0.2260 -0.3941  0.4632
 3667TIP3    H135196   2.636   3.673  16.243 -4.8218 -0.1675  1.3740
 3667TIP3    H235197   2.645   3.645  16.391  0.1704  0.3029  1.3122
 3668TIP3   OH235198   2.775   1.324  15.603  0.3373 -0.1609 -0.0312
 3668TIP3    H135199   2.803   1.355  15.689  0.3832 -0.5817  0.1072
 3668TIP3    H235200   2.823   1.242  15.590 -0.2714 -0.5155 -0.1063
 3669TIP3   OH235201   3.576   5.837  16.595 -0.0896  0.3181 -0.1523
 3669TIP3    H135202   3.586   5.901  16.666 -2.6690 -0.5787  1.1259
 3669TIP3    H235203   3.632   5.763  16.621  0.9049  0.9795 -0.3532
 3670TIP3   OH235204   5.503   0.980  15.784  0.2103  0.2620 -0.6727
 3670TIP3    H135205   5.424   0.999  15.732 -0.1861  1.3670  0.2816
 3670TIP3    H235206   5.470   0.959  15.871  0.9399 -0.1545 -0.4910
 3671TIP3   OH235207   1.454   4.650  15.598  0.1060  0.0106 -0.3363
 3671TIP3    H135208   1.389   4.588  15.563 -0.1488 -0.0935  0.3091
 3671TIP3    H235209   1.411   4.689  15.674  0.7119  0.1219 -0.0461
 3672TIP3   OH235210   2.589   1.152  15.292  0.0331 -0.4868  0.2533
 3672TIP3    H135211   2.589   1.245  15.316  0.5017 -0.0976 -1.0912
 3672TIP3    H235212   2.500   1.134  15.263  0.3944  0.1195 -1.3641
 3673TIP3   OH235213   2.985   4.025  14.879 -0.2526 -0.1278 -0.2558
 3673TIP3    H135214   3.045   4.012  14.806  1.7091  2.0497  0.8505
 3673TIP3    H235215   2.908   3.972  14.856  1.3435 -1.6429 -2.5668
 3674TIP3   OH235216   2.217   6.203  15.786 -0.1607 -0.7841 -1.1385
 3674TIP3    H135217   2.217   6.109  15.807 -1.2520 -0.9118 -1.6397
 3674TIP3    H235218   2.302   6.217  15.743  1.3157 -0.8949  1.5372
 3675TIP3   OH235219   3.520   0.796  14.507 -0.6317  0.7344 -0.0832
 3675TIP3    H135220   3.490   0.846  14.432  0.0111  0.2958 -0.6465
 3675TIP3    H235221   3.554   0.861  14.568  0.8663  0.9534 -1.1132
 3676TIP3   OH235222   3.812   5.897  16.998 -0.0059  0.3252  0.0577
 3676TIP3    H135223   3.836   5.907  17.090  1.2961 -2.5116  0.1344
 3676TIP3    H235224   3.824   5.804  16.980  0.0928  0.8291 -3.0761
 3677TIP3   OH235225   3.787   1.449  15.461 -0.1513 -0.2099  0.2438
 3677TIP3    H135226   3.789   1.473  15.368  3.3477  1.9140  0.6888
 3677TIP3    H235227   3.795   1.354  15.462  0.2053 -0.2340 -1.6521
 3678TIP3   OH235228   3.006   3.204  16.912 -0.0398 -0.0374 -0.2178
 3678TIP3    H135229   3.019   3.297  16.893  1.2748  0.1294  1.3496
 3678TIP3    H235230   3.092   3.165  16.899  0.0869 -0.5147  1.8211
 3679TIP3   OH235231   2.621   4.682  14.831  0.0218  0.5766  0.3107
 3679TIP3    H135232   2.547   4.704  14.887 -0.8045 -3.4470  1.1249
 3679TIP3    H235233   2.680   4.631  14.887  2.5897  2.0938 -0.8113
 3680TIP3   OH235234   3.194   0.067  16.390 -0.4005  0.0460  0.8457
 3680TIP3    H135235   3.112   0.045  16.346 -0.9198 -0.0355  1.8286
 3680TIP3    H235236   3.247  -0.012  16.382 -0.0444  0.3961 -0.5769
 3681TIP3   OH235237   0.192   3.044  16.459 -0.4943  0.3837 -0.1791
 3681TIP3    H135238   0.149   3.091  16.388 -1.7263  1.4070  1.1899
 3681TIP3    H235239   0.242   3.111  16.505 -1.3133  0.1556  1.0841
 3682TIP3   OH235240   5.500   3.377  13.955 -0.0482 -0.3697 -0.2203
 3682TIP3    H135241   5.424   3.431  13.933 -0.4287 -0.3764  1.0091
 3682TIP3    H235242   5.571   3.441  13.969 -0.3474 -0.2056  0.6300
 3683TIP3   OH235243   1.138   5.214  15.831  0.0312  0.3250  0.2498
 3683TIP3    H135244   1.046   5.195  15.814  0.6449 -0.7316 -2.3402
 3683TIP3    H235245   1.149   5.305  15.802 -0.2288  0.5763  0.9034
 3684TIP3   OH235246   4.966   6.648  16.007  0.5441  0.4317 -0.1421
 3684TIP3    H135247   4.926   6.702  15.938 -1.1305  0.2733  0.6641
 3684TIP3    H235248   5.029   6.706  16.049  1.4748  0.5906 -1.6584
 3685TIP3   OH235249   6.221   0.578  14.190 -0.1900 -0.4569  0.2109
 3685TIP3    H135250   6.138   0.617  14.217  0.5451 -0.1865  2.2419
 3685TIP3    H235251   6.201   0.485  14.179 -0.6971 -0.4649  1.0955
 3686TIP3   OH235252   1.587   0.319  16.430 -0.1959  0.0449  0.6094
 3686TIP3    H135253   1.603   0.403  16.474  2.1970 -0.5991  1.0651
 3686TIP3    H235254   1.545   0.265  16.497 -2.1250  0.9507  0.1944
 3687TIP3   OH235255   4.570   1.502  15.713  0.3015  0.2804 -0.2984
 3687TIP3    H135256   4.606   1.572  15.769 -0.0146 -0.0172  0.2866
 3687TIP3    H235257   4.544   1.546  15.633  0.6949  0.7321 -0.1841
 3688TIP3   OH235258   6.070   2.981  15.159  0.2948  1.2225  0.0220
 3688TIP3    H135259   6.116   2.897  15.152  0.1571  1.1689 -0.2977
 3688TIP3    H235260   5.988   2.967  15.112 -0.7658  0.8331  1.9219
 3689TIP3   OH235261   0.941   3.611  14.965 -0.5759 -0.1421 -0.7049
 3689TIP3    H135262   0.960   3.703  14.982 -0.7331  0.0635 -1.5637
 3689TIP3    H235263   1.018   3.564  14.999 -0.1982  0.3642 -0.8462
 3690TIP3   OH235264   4.612   2.387  15.817  0.1011  0.3841 -0.5660
 3690TIP3    H135265   4.589   2.297  15.840  0.1674  0.7387  0.9626
 3690TIP3    H235266   4.672   2.415  15.886  0.3832  1.4814 -1.2323
 3691TIP3   OH235267   0.295   2.287  15.780 -0.4725 -0.1196  0.8682
 3691TIP3    H135268   0.210   2.317  15.748 -0.0829  0.5925  0.4754
 3691TIP3    H235269   0.353   2.292  15.704  0.2601  0.7639  1.4594
 3692TIP3   OH235270   1.451   2.704  14.860 -0.4204  0.0822  0.0120
 3692TIP3    H135271   1.488   2.664  14.938 -0.1008  0.9351  0.3118
 3692TIP3    H235272   1.523   2.705  14.797 -0.8064 -1.0236 -0.4651
 3693TIP3   OH235273   2.124   6.436  14.429  0.3452  0.2472 -0.0776
 3693TIP3    H135274   2.102   6.525  14.403 -0.4074  0.4736  1.2139
 3693TIP3    H235275   2.213   6.442  14.463 -0.2235  0.8439  1.3897
 3694TIP3   OH235276   2.163   1.844  16.775  0.0770  0.0332  0.3805
 3694TIP3    H135277   2.068   1.829  16.773  0.3376 -2.4729  2.2211
 3694TIP3    H235278   2.198   1.782  16.711  0.5153  0.9004 -0.2437
 3695TIP3   OH235279   4.313   2.831  16.233  0.4255 -0.1364  0.2079
 3695TIP3    H135280   4.338   2.861  16.146 -1.5728  1.2000  0.0076
 3695TIP3    H235281   4.395   2.806  16.275  1.6423  0.8972 -1.4327
 3696TIP3   OH235282   5.177   0.320  14.929 -0.3062  0.5218  0.4520
 3696TIP3    H135283   5.181   0.407  14.968  1.1448  0.8506 -0.3562
 3696TIP3    H235284   5.107   0.326  14.865 -0.3576  1.0363  0.5536
 3697TIP3   OH235285   3.152   3.076  17.216  0.4705  0.5680 -0.2479
 3697TIP3    H135286   3.157   3.091  17.121 -0.9050 -0.4783 -0.5084
 3697TIP3    H235287   3.069   3.115  17.242  0.5744  0.3399  0.4284
 3698TIP3   OH235288   5.445   5.689  16.084 -0.0950  0.1863 -0.0448
 3698TIP3    H135289   5.478   5.754  16.022 -0.4670 -0.7024 -1.2139
 3698TIP3    H235290   5.373   5.733  16.129  0.5297  1.0272  0.1550
 3699TIP3   OH235291   1.775   1.877  15.805  0.5006  0.3732 -0.3944
 3699TIP3    H135292   1.751   1.798  15.853  0.6679 -0.0009 -0.9081
 3699TIP3    H235293   1.702   1.891  15.744  1.3481 -0.5388 -1.6870
 3700TIP3   OH235294   3.415   3.384  14.223 -0.2784  0.0447 -0.0558
 3700TIP3    H135295   3.494   3.417  14.181 -1.0372  0.6789 -1.0258
 3700TIP3    H235296   3.403   3.297  14.186  0.0238 -0.1039  0.1878
 3701TIP3   OH235297   0.069   3.052  14.371  0.0836  0.3831  0.3394
 3701TIP3    H135298   0.023   2.975  14.404  0.5746  0.1439  0.4766
 3701TIP3    H235299   0.084   3.033  14.279 -0.8612  0.8423  0.0781
 3702TIP3   OH235300   1.094   2.277  14.780  1.1756 -0.0380  0.6842
 3702TIP3    H135301   1.127   2.366  14.768 -0.9189  0.5237 -1.8125
 3702TIP3    H235302   1.113   2.233  14.697 -0.9203 -0.7826  0.5384
 3703TIP3   OH235303   1.927   5.317  14.992  0.4286 -0.7980  0.2320
 3703TIP3    H135304   1.966   5.403  14.981  0.3360 -0.8665 -0.6906
 3703TIP3    H235305   1.835   5.329  14.971  0.5950 -1.3034 -0.8832
 3704TIP3   OH235306   0.780   2.975  14.288  0.0563  0.0228 -0.1368
 3704TIP3    H135307   0.784   3.050  14.228  0.6951  2.0637  2.2620
 3704TIP3    H235308   0.688   2.947  14.285  0.0447  0.1452 -1.9108
 3705TIP3   OH235309   0.792   3.593  15.248  0.0426 -0.3555  0.3978
 3705TIP3    H135310   0.765   3.501  15.243  0.3048 -0.3730 -3.0137
 3705TIP3    H235311   0.768   3.630  15.162 -0.3308  2.8839  1.7436
 3706TIP3   OH235312   4.805   4.756  14.303  0.2821 -0.1491 -0.2645
 3706TIP3    H135313   4.754   4.738  14.225  0.8518  3.6043 -1.7322
 3706TIP3    H235314   4.825   4.670  14.340 -2.5206 -1.9373 -2.5478
 3707TIP3   OH235315   5.198   0.395  16.812  0.0137 -0.6136  0.3025
 3707TIP3    H135316   5.125   0.356  16.859  0.9707 -0.3370  2.0913
 3707TIP3    H235317   5.262   0.418  16.880  1.6792 -0.6558 -1.1614
 3708TIP3   OH235318   0.423   2.535  16.928  0.0695  0.1239  0.4727
 3708TIP3    H135319   0.392   2.621  16.955  0.7493  1.0179 -1.4551
 3708TIP3    H235320   0.483   2.552  16.855 -0.5060 -2.0286 -0.5964
 3709TIP3   OH235321   2.931   1.608  13.743  0.4754  0.4316  0.5562
 3709TIP3    H135322   2.859   1.545  13.739  0.4157  0.5703 -1.6581
 3709TIP3    H235323   2.891   1.687  13.779 -0.3091  0.2873  0.0352
 3710TIP3   OH235324   1.952   6.380  14.792 -0.3370 -0.0114  0.2986
 3710TIP3    H135325   2.038   6.412  14.764 -0.1884 -0.7972 -0.1654
 3710TIP3    H235326   1.904   6.459  14.817 -0.5721  0.7962 -2.4309
 3711TIP3   OH235327   1.955   1.854  16.551 -0.4215  0.3467 -0.0443
 3711TIP3    H135328   1.941   1.762  16.530  1.2147 -0.3385  1.6547
 3711TIP3    H235329   1.973   1.895  16.466  2.2663 -1.5759 -0.5176
 3712TIP3   OH235330   6.480   5.477  13.426  0.7880 -0.1570 -0.6144
 3712TIP3    H135331   6.437   5.452  13.508  0.8605 -1.2192 -0.8907
 3712TIP3    H235332   6.568   5.504  13.452  0.3682  0.8391 -0.1895
 3713TIP3   OH235333   3.825   6.631  14.818  0.1941 -0.1502  0.0790
 3713TIP3    H135334   3.870   6.570  14.876  0.8006 -0.1521 -0.3747
 3713TIP3    H235335   3.846   6.718  14.853  0.1773 -0.1676  0.1317
 3714TIP3   OH235336   2.254   1.461  14.970 -0.0394  0.0033 -0.3139
 3714TIP3    H135337   2.335   1.471  15.020 -0.4298 -0.6567  0.4514
 3714TIP3    H235338   2.284   1.439  14.881  0.6101 -2.2432  0.4174
 3715TIP3   OH235339   5.040   5.150  16.969 -0.3174  0.2934  0.3244
 3715TIP3    H135340   5.113   5.208  16.946  0.3928 -0.0447  1.6207
 3715TIP3    H235341   4.968   5.210  16.990  0.7158  0.8040  2.6624
 3716TIP3   OH235342   1.512   0.524  15.355  0.0488 -0.3997 -0.0321
 3716TIP3    H135343   1.484   0.592  15.415  0.3223 -1.7365  1.6849
 3716TIP3    H235344   1.607   0.534  15.350  0.0582 -0.4768 -0.0069
 3717TIP3   OH235345   4.421   6.660  14.331 -0.0802  0.1414 -0.3403
 3717TIP3    H135346   4.509   6.622  14.338  0.1332  0.8429  0.9393
 3717TIP3    H235347   4.367   6.605  14.387  0.0953  1.2625  0.9861
 3718TIP3   OH235348   5.351   1.746  15.735 -0.6757  0.2401 -0.0793
 3718TIP3    H135349   5.276   1.732  15.793 -0.7591 -0.9942 -0.4632
 3718TIP3    H235350   5.311   1.773  15.652 -0.6992 -0.3215 -0.2541
 3719TIP3   OH235351   1.992   0.577  17.217 -0.8428  0.3010  0.5249
 3719TIP3    H135352   2.040   0.660  17.212 -0.1010 -0.1225  0.5702
 3719TIP3    H235353   1.900   0.603  17.208 -0.6036  1.1049  0.2764
 3720TIP3   OH235354   1.214   4.318  13.922 -0.3443 -0.7407  0.2299
 3720TIP3    H135355   1.235   4.272  13.840 -0.2727 -1.5968  0.7148
 3720TIP3    H235356   1.173   4.399  13.894 -1.8196 -1.7456 -0.6405
 3721TIP3   OH235357   5.542   0.754  14.502 -0.1962 -0.0389  0.0961
 3721TIP3    H135358   5.583   0.705  14.431  1.9798  1.7196  0.0137
 3721TIP3    H235359   5.503   0.687  14.558  3.7804 -2.1145  0.7517
 3722TIP3   OH235360   6.011   6.657  15.648 -0.2724  0.2470  0.4747
 3722TIP3    H135361   6.045   6.685  15.563 -0.7189 -1.0149 -0.1289
 3722TIP3    H235362   6.058   6.576  15.667 -0.5347  0.2626  1.2010
 3723TIP3   OH235363   0.337   5.642  14.886 -0.1537 -0.1974 -0.0063
 3723TIP3    H135364   0.310   5.645  14.794  0.6816 -2.1252 -0.3589
 3723TIP3    H235365   0.273   5.697  14.931  1.4361  3.9277 -2.1397
 3724TIP3   OH235366   2.567   3.634  14.583 -0.4372  0.1171  0.3643
 3724TIP3    H135367   2.627   3.640  14.658  0.0491 -0.0059 -0.0150
 3724TIP3    H235368   2.619   3.660  14.508 -0.1165 -2.3617 -0.3629
 3725TIP3   OH235369   1.919   2.351  14.620  0.2568  0.2697  0.4266
 3725TIP3    H135370   1.874   2.417  14.567 -1.0860  0.3300  1.5724
 3725TIP3    H235371   1.856   2.281  14.631  1.1409 -0.5377  0.4785
 3726TIP3   OH235372   1.212   6.304  14.801  0.1367  0.2757 -1.0611
 3726TIP3    H135373   1.267   6.310  14.723  0.3377  1.0993 -0.8702
 3726TIP3    H235374   1.127   6.340  14.773  0.5072  1.5368 -0.6520
 3727TIP3   OH235375   3.777   5.198  17.085  0.3652 -0.5788 -0.5436
 3727TIP3    H135376   3.721   5.172  17.012 -0.9107 -0.2975  0.3107
 3727TIP3    H235377   3.720   5.193  17.162  1.5092 -0.2560  0.3490
 3728TIP3   OH235378   3.565   6.151  15.671  0.2189  0.5826  0.4306
 3728TIP3    H135379   3.602   6.237  15.654 -0.3917  0.4791 -1.6861
 3728TIP3    H235380   3.482   6.151  15.623 -0.0658 -0.9808  0.8789
 3729TIP3   OH235381   3.976   5.432  14.607  0.4049  0.8966  0.0022
 3729TIP3    H135382   3.936   5.461  14.689 -0.9624 -0.5484 -0.1092
 3729TIP3    H235383   3.963   5.506  14.548 -2.0111  0.5793  0.0342
 3730TIP3   OH235384   3.525   4.541  14.153  0.0606  0.0594  0.3391
 3730TIP3    H135385   3.541   4.455  14.115  0.2975 -0.7238  2.0784
 3730TIP3    H235386   3.571   4.602  14.096  0.8552 -1.0952 -0.2925
 3731TIP3   OH235387   2.133   5.831  16.366 -0.7438  0.0086 -0.3958
 3731TIP3    H135388   2.226   5.807  16.373 -1.1021 -0.8657  3.2365
 3731TIP3    H235389   2.095   5.761  16.313  0.4363 -0.2315 -0.9830
 3732TIP3   OH235390   6.418   4.271  16.051 -0.1315  0.2957  0.3813
 3732TIP3    H135391   6.489   4.297  16.110  1.0894  1.3485 -1.4471
 3732TIP3    H235392   6.427   4.177  16.041  0.1506  0.2285  1.2308
 3733TIP3   OH235393   6.704   5.159  13.182  0.0843 -0.6308  0.3231
 3733TIP3    H135394   6.733   5.156  13.091  0.5659 -0.4429  0.4665
 3733TIP3    H235395   6.619   5.203  13.179 -0.4475 -1.6557 -0.1642
 3734TIP3   OH235396   4.774   5.104  14.701 -0.6585 -0.3647  0.5279
 3734TIP3    H135397   4.855   5.134  14.660 -0.8477 -0.3398  0.1666
 3734TIP3    H235398   4.801   5.070  14.786 -0.0735 -1.5672 -0.1086
 3735TIP3   OH235399   1.941   5.523  16.423 -0.4739  0.1225  0.5319
 3735TIP3    H135400   1.949   5.450  16.362 -0.1839 -0.8787  1.7328
 3735TIP3    H235401   2.009   5.507  16.488  0.9553  2.5511 -0.2400
 3736TIP3   OH235402   2.616   5.545  14.827  0.5080  0.0037  0.2464
 3736TIP3    H135403   2.630   5.533  14.733 -0.7973 -0.5199  0.1093
 3736TIP3    H235404   2.705   5.555  14.863  1.2169 -2.2015 -0.7122
 3737TIP3   OH235405   1.477   5.835  15.316  0.2349  0.5362  0.1841
 3737TIP3    H135406   1.514   5.876  15.238  0.0373 -0.1231 -0.2602
 3737TIP3    H235407   1.550   5.789  15.357  0.3625  0.9722  0.4510
 3738TIP3   OH235408   0.265   6.354  15.534  0.3536 -0.1236 -0.1031
 3738TIP3    H135409   0.209   6.431  15.526  1.0443  0.4143  0.1558
 3738TIP3    H235410   0.306   6.345  15.448  0.4768 -0.0420 -0.0528
 3739TIP3   OH235411   5.076   2.361  14.425  0.0518  0.2426  0.4117
 3739TIP3    H135412   4.982   2.378  14.438 -0.7035 -2.6359 -0.6040
 3739TIP3    H235413   5.082   2.329  14.335  2.3908  2.2689 -0.2589
 3740TIP3   OH235414   2.441   4.506  16.268 -0.1169 -0.4097  0.2964
 3740TIP3    H135415   2.484   4.433  16.224 -0.2172 -1.0226  1.1861
 3740TIP3    H235416   2.462   4.493  16.361  0.2264  0.9343  0.4310
 3741TIP3   OH235417   4.236   0.358  14.022  0.0574 -0.0186  0.2984
 3741TIP3    H135418   4.176   0.401  13.961  0.4039 -0.8369 -0.6450
 3741TIP3    H235419   4.323   0.371  13.984  0.2463 -0.8163  0.4326
 3742TIP3   OH235420   2.406   5.323  17.026  0.3311  0.0826 -0.5904
 3742TIP3    H135421   2.455   5.403  17.043  1.7915 -1.0819  0.8809
 3742TIP3    H235422   2.445   5.257  17.083 -2.0001 -1.2737 -0.4171
 3743TIP3   OH235423   1.879   5.056  15.751 -0.5302 -0.5190  0.5058
 3743TIP3    H135424   1.819   4.990  15.715 -0.7423 -0.8450  1.4222
 3743TIP3    H235425   1.926   5.009  15.820  2.9048 -1.1509 -2.0099
 3744TIP3   OH235426   4.994   2.967  14.915 -0.4326 -0.3478 -0.6882
 3744TIP3    H135427   4.959   3.055  14.928  0.7283 -0.1017  1.1685
 3744TIP3    H235428   4.916   2.910  14.917 -1.0770  0.5098 -0.5836
 3745TIP3   OH235429   0.958   0.304  16.277  0.7399 -0.2957 -0.7227
 3745TIP3    H135430   0.960   0.270  16.188  0.9924  0.3958 -0.9851
 3745TIP3    H235431   0.871   0.281  16.310  1.0973 -1.6718 -0.6976
 3746TIP3   OH235432   3.740   1.691  14.037 -0.4220  0.2552  0.2697
 3746TIP3    H135433   3.785   1.658  14.115 -0.0967  0.5948  0.2307
 3746TIP3    H235434   3.786   1.772  14.016 -0.0837 -0.1624 -0.6646
 3747TIP3   OH235435   2.315   6.499  13.664  0.0296  0.8977  0.6445
 3747TIP3    H135436   2.343   6.554  13.737 -0.6895 -0.0660  1.6741
 3747TIP3    H235437   2.376   6.425  13.665 -0.4727  0.4817  0.7756
 3748TIP3   OH235438   1.104   6.725  16.574  0.5243  0.3257 -0.0631
 3748TIP3    H135439   1.061   6.675  16.504  1.0473 -1.0626  0.5788
 3748TIP3    H235440   1.044   6.719  16.648  0.7881  0.2888  0.1478
 3749TIP3   OH235441   3.339   1.418  16.800  0.7489  0.0531 -0.2090
 3749TIP3    H135442   3.352   1.343  16.858 -0.7623 -1.0627 -1.2465
 3749TIP3    H235443   3.284   1.477  16.851  0.5179 -0.3191 -0.0210
 3750TIP3   OH235444   1.563   5.236  13.894  0.2583  0.0001  0.4069
 3750TIP3    H135445   1.514   5.314  13.923  0.5308  0.6244 -0.7678
 3750TIP3    H235446   1.507   5.163  13.919 -1.2792  0.6935 -0.8313
 3751TIP3   OH235447   0.004   6.406  14.513 -0.5123  0.3527  0.0822
 3751TIP3    H135448   0.020   6.498  14.532 -0.3819  0.3174  0.1446
 3751TIP3    H235449   0.090   6.365  14.519 -0.4347  0.3808 -0.8185
 3752TIP3   OH235450   1.302   3.909  13.783  0.1114 -0.2252  0.1031
 3752TIP3    H135451   1.235   3.840  13.792  0.0469 -0.2040 -0.2175
 3752TIP3    H235452   1.385   3.863  13.795  0.0536 -0.2968  0.2388
 3753TIP3   OH235453   2.653   2.413  16.229  0.5715  0.0130  0.4513
 3753TIP3    H135454   2.592   2.351  16.268 -1.5049  1.4966 -0.2290
 3753TIP3    H235455   2.696   2.365  16.159  1.8297 -1.6702  2.2592
 3754TIP3   OH235456   5.036   1.718  13.574 -0.4262 -0.3982  0.1840
 3754TIP3    H135457   5.000   1.657  13.637 -0.6479  0.1620  0.6076
 3754TIP3    H235458   5.075   1.788  13.626  0.7071 -0.6602 -0.2762
 3755TIP3   OH235459   0.571   1.213  16.775 -0.2877  0.4790 -0.3454
 3755TIP3    H135460   0.615   1.277  16.830 -0.5411  0.3207  0.0433
 3755TIP3    H235461   0.477   1.232  16.786 -0.3473  0.2967 -0.5355
 3756TIP3   OH235462   2.697   3.665  14.346  0.1472  0.2713  0.1678
 3756TIP3    H135463   2.786   3.645  14.373  0.1908 -0.1874 -0.3002
 3756TIP3    H235464   2.660   3.581  14.320 -0.1731  0.5671 -0.3587
 3757TIP3   OH235465   4.785   3.100  14.009 -0.2937  0.7604  0.6155
 3757TIP3    H135466   4.810   3.107  13.916  0.4337 -1.3440  0.5924
 3757TIP3    H235467   4.720   3.169  14.021 -0.0818  1.3866 -1.3464
 3758TIP3   OH235468   2.892   2.119  14.952 -0.8364 -0.0510  0.2441
 3758TIP3    H135469   2.829   2.049  14.970 -3.3047  1.8322 -0.4056
 3758TIP3    H235470   2.924   2.146  15.038  0.9021 -2.4873  0.4649
 3759TIP3   OH235471   3.996   0.266  17.085  0.2248 -0.1507 -0.2378
 3759TIP3    H135472   4.075   0.283  17.137  2.1138  0.0794 -2.9803
 3759TIP3    H235473   3.970   0.352  17.052 -1.6441 -0.1240  1.1271
 3760TIP3   OH235474   5.510   0.522  14.635 -0.2842  0.1094 -0.3672
 3760TIP3    H135475   5.559   0.489  14.560  0.0185  2.0225 -1.0651
 3760TIP3    H235476   5.454   0.449  14.662 -0.0081 -0.7811 -2.1119
 3761TIP3   OH235477   5.894   2.181  14.403 -0.2487  0.2589  0.4039
 3761TIP3    H135478   5.817   2.236  14.419  0.5894  2.3717 -2.1748
 3761TIP3    H235479   5.959   2.212  14.466  0.2598  2.5008 -1.0950
 3762TIP3   OH235480   4.897   1.772  16.862 -0.2179 -0.0781  0.2253
 3762TIP3    H135481   4.903   1.743  16.771  0.7583  0.1610  0.2044
 3762TIP3    H235482   4.818   1.826  16.865  0.0796  0.4171 -0.6238
 3763TIP3   OH235483   5.990   3.547  15.655 -0.4348  0.1631 -0.5688
 3763TIP3    H135484   5.896   3.560  15.644 -0.4182  0.5293 -0.3020
 3763TIP3    H235485   6.030   3.625  15.617 -0.3827  1.5755  2.1211
 3764TIP3   OH235486   5.114   0.740  14.136 -0.1388  0.4611  0.2250
 3764TIP3    H135487   5.179   0.760  14.203  0.3019  1.2600 -0.4075
 3764TIP3    H235488   5.164   0.694  14.068 -0.6337 -0.5789  0.5543
 3765TIP3   OH235489   4.106   5.196  15.959 -0.5590  0.4592 -0.3197
 3765TIP3    H135490   4.044   5.129  15.988 -1.0069  0.1462 -1.9283
 3765TIP3    H235491   4.184   5.180  16.013 -1.4653  0.1718  0.9721
 3766TIP3   OH235492   5.024   3.793  14.397  0.0526 -0.5907  0.1094
 3766TIP3    H135493   5.106   3.759  14.362 -0.1028  0.1872 -1.0763
 3766TIP3    H235494   5.051   3.861  14.459  0.3112  0.0003 -0.6385
 3767TIP3   OH235495   0.151   0.384  15.540 -0.2595  0.4018  0.2518
 3767TIP3    H135496   0.188   0.298  15.518 -1.2211  0.2961 -1.0778
 3767TIP3    H235497   0.107   0.371  15.624  0.3897 -0.1586  0.5181
 3768TIP3   OH235498   1.926   0.875  16.681  0.2919 -0.0336  0.1338
 3768TIP3    H135499   1.885   0.957  16.653  2.1687  1.8669  2.4975
 3768TIP3    H235500   1.923   0.819  16.603 -0.7767  2.3729 -1.6892
 3769TIP3   OH235501   0.600   1.432  16.941  1.0258 -0.0245 -0.6351
 3769TIP3    H135502   0.615   1.501  16.876 -0.6265  0.5219 -0.4914
 3769TIP3    H235503   0.637   1.467  17.022  2.0807 -0.2271 -1.0152
 3770TIP3   OH235504   2.793   0.287  16.393  0.3161 -0.0049 -0.1019
 3770TIP3    H135505   2.710   0.297  16.439  0.5264  0.6896  0.1469
 3770TIP3    H235506   2.774   0.313  16.302  0.1805 -0.1905 -0.1252
 3771TIP3   OH235507   6.469   2.794  13.283  0.3056 -0.0046 -0.4447
 3771TIP3    H135508   6.465   2.761  13.373  0.1583  1.6023  0.1651
 3771TIP3    H235509   6.553   2.761  13.250  0.0942 -1.1083  0.0551
 3772TIP3   OH235510   5.300   2.885  16.352  0.4267  0.0015 -0.0735
 3772TIP3    H135511   5.244   2.915  16.281  1.2919 -0.0947 -0.8121
 3772TIP3    H235512   5.288   2.950  16.421  1.5071  1.5400 -1.2626
 3773TIP3   OH235513   0.140   4.556  16.208  0.2778  0.3852 -0.0525
 3773TIP3    H135514   0.136   4.651  16.220 -0.0665  0.4862 -0.9137
 3773TIP3    H235515   0.053   4.532  16.176  0.0180 -0.3763  1.1796
 3774TIP3   OH235516   0.599   3.450  16.314  0.3651 -0.2558  0.6095
 3774TIP3    H135517   0.581   3.467  16.222 -0.0582 -0.8154  0.5784
 3774TIP3    H235518   0.570   3.359  16.327 -0.3576  0.0821  1.4858
 3775TIP3   OH235519   1.251   3.442  17.048 -0.0291 -0.5360  0.7164
 3775TIP3    H135520   1.300   3.494  16.984 -0.0580  0.2493  1.3002
 3775TIP3    H235521   1.316   3.381  17.084 -0.1470 -1.3562 -0.4324
 3776TIP3   OH235522   6.126   1.215  15.278  0.1121 -0.0991 -0.2012
 3776TIP3    H135523   6.215   1.249  15.281 -0.3119  1.0123  1.3753
 3776TIP3    H235524   6.126   1.151  15.207  2.5424 -1.2794  0.7714
 3777TIP3   OH235525   2.113   3.628  14.738  0.5035  0.3912  0.2979
 3777TIP3    H135526   2.186   3.641  14.677  0.5590 -1.8017 -0.1835
 3777TIP3    H235527   2.086   3.537  14.724 -0.1884  0.1397  2.7973
 3778TIP3   OH235528   6.640   6.020  14.130 -0.1540  0.5206 -0.2322
 3778TIP3    H135529   6.667   6.088  14.068  2.3674  0.0039  0.2128
 3778TIP3    H235530   6.639   5.939  14.079  0.1319  0.3745 -0.0068
 3779TIP3   OH235531   6.696   4.023  14.236 -0.3452  0.1861 -0.3684
 3779TIP3    H135532   6.717   4.081  14.163 -0.8709 -0.1689 -0.8081
 3779TIP3    H235533   6.781   3.995  14.270 -0.0854 -0.3743 -1.4423
 3780TIP3   OH235534   3.169   6.361  14.277  0.4060  0.0875  0.4919
 3780TIP3    H135535   3.146   6.343  14.186  0.1151  0.7060  0.4414
 3780TIP3    H235536   3.254   6.318  14.289 -0.3217 -1.4141  0.4213
 3781TIP3   OH235537   6.006   4.638  16.213 -0.2091  0.0308 -0.0118
 3781TIP3    H135538   5.969   4.566  16.164  0.8022 -0.0791 -0.6543
 3781TIP3    H235539   6.100   4.633  16.195 -0.1805  1.8637 -0.5751
 3782TIP3   OH235540   0.905   4.095  16.319 -0.6148  0.1493 -0.0883
 3782TIP3    H135541   0.928   4.004  16.337 -3.6767 -0.4161  1.7382
 3782TIP3    H235542   0.824   4.090  16.267 -1.4749  1.7786  0.9924
 3783TIP3   OH235543   4.643   3.710  16.063 -0.0230  0.1680 -0.2769
 3783TIP3    H135544   4.578   3.734  16.130 -0.9966  1.1897 -1.5296
 3783TIP3    H235545   4.596   3.648  16.006  0.8067 -0.7238 -0.0091
 3784TIP3   OH235546   3.200   1.710  16.477 -0.2620 -0.4588  0.2448
 3784TIP3    H135547   3.140   1.643  16.510  1.0312 -2.4726 -1.2724
 3784TIP3    H235548   3.281   1.696  16.526  0.0772 -0.1474 -0.2128
 3785TIP3   OH235549   1.773   5.608  13.847  0.0479 -0.3409  0.0054
 3785TIP3    H135550   1.775   5.678  13.912 -1.1811 -1.3534  1.2329
 3785TIP3    H235551   1.863   5.601  13.815  0.6223  0.4079  1.3799
 3786TIP3   OH235552   4.721   0.323  15.411  0.1727  0.0255  0.0963
 3786TIP3    H135553   4.795   0.378  15.388  0.8274 -1.2576 -1.0033
 3786TIP3    H235554   4.736   0.241  15.363 -1.8862 -0.3105 -0.0655
 3787TIP3   OH235555   2.141   6.126  16.711  0.2843 -0.4519 -0.3493
 3787TIP3    H135556   2.072   6.187  16.738  1.2398  0.1069  0.9672
 3787TIP3    H235557   2.096   6.059  16.660 -0.8864  1.0323 -1.3453
 3788TIP3   OH235558   3.557   4.691  14.668 -0.0758 -0.3295  0.1338
 3788TIP3    H135559   3.469   4.723  14.689  0.0092 -0.4878  0.7459
 3788TIP3    H235560   3.615   4.758  14.702  0.0321 -0.0811 -0.5376
 3789TIP3   OH235561   0.651   2.401  14.893 -0.3506 -0.3047  0.2564
 3789TIP3    H135562   0.580   2.338  14.882 -2.3900  1.6436  1.4731
 3789TIP3    H235563   0.665   2.437  14.805  2.0505 -3.4566 -0.8545
 3790TIP3   OH235564   2.603   0.740  14.090  0.1375 -0.2116  0.0874
 3790TIP3    H135565   2.539   0.730  14.161  2.5655 -2.7563  2.1295
 3790TIP3    H235566   2.644   0.825  14.107  0.6662 -0.7646  1.8067
 3791TIP3   OH235567   2.549   5.193  16.177 -0.3996 -0.3841 -0.3131
 3791TIP3    H135568   2.641   5.174  16.193  0.0877  2.1739  0.4597
 3791TIP3    H235569   2.530   5.154  16.092  1.6000 -0.3887 -0.8034
 3792TIP3   OH235570   5.826   4.153  15.883  0.1297 -0.0396  0.2677
 3792TIP3    H135571   5.830   4.063  15.851 -0.3469 -1.2023  3.2169
 3792TIP3    H235572   5.732   4.170  15.896  0.3660 -0.5873  3.3159
 3793TIP3   OH235573   0.157   5.807  14.987 -0.1688 -0.1766  0.2273
 3793TIP3    H135574   0.210   5.874  14.944 -0.1415 -0.4361 -0.1525
 3793TIP3    H235575   0.073   5.851  15.004 -0.0447  0.0473  0.2715
 3794TIP3   OH235576   6.006   6.304  15.490  0.0343 -0.3916  0.1377
 3794TIP3    H135577   5.941   6.364  15.452 -0.1417 -0.8485 -0.2849
 3794TIP3    H235578   5.982   6.299  15.582 -0.5999 -0.6329 -0.0311
 3795TIP3   OH235579   5.744   0.077  13.489  0.1112  0.5010  0.2293
 3795TIP3    H135580   5.692   0.136  13.434 -0.8871 -0.1237  0.4743
 3795TIP3    H235581   5.699  -0.007  13.482  0.3833  0.2422  1.4387
 3796TIP3   OH235582   1.863   5.583  14.580  0.1955 -0.2204  0.2727
 3796TIP3    H135583   1.926   5.521  14.543  0.8710  0.0879  0.8929
 3796TIP3    H235584   1.912   5.629  14.648  0.2106  2.0874 -1.1824
 3797TIP3   OH235585   4.330   2.628  15.980 -0.1412  0.1368  0.7734
 3797TIP3    H135586   4.301   2.718  15.994 -1.6269 -0.3328  1.0023
 3797TIP3    H235587   4.295   2.580  16.055  0.4092 -0.6792  0.5231
 3798TIP3   OH235588   2.306   5.507  14.600  0.6041  0.1184 -0.2990
 3798TIP3    H135589   2.370   5.448  14.561  1.3997  1.2659 -0.8087
 3798TIP3    H235590   2.314   5.588  14.549 -0.2206  0.7766  0.5729
 3799TIP3   OH235591   5.039   6.037  15.897 -0.0317  0.5976 -0.1898
 3799TIP3    H135592   4.964   5.980  15.882 -1.0209  2.0400 -1.0590
 3799TIP3    H235593   5.034   6.061  15.989 -0.3613  0.3057 -0.1315
 3800TIP3   OH235594   6.028   6.350  16.312 -0.2793  0.3253 -0.1792
 3800TIP3    H135595   6.023   6.408  16.388 -0.7291  1.0848 -0.7829
 3800TIP3    H235596   6.095   6.286  16.336  0.0707  0.9572  0.5849
 3801TIP3   OH235597   5.700   5.605  14.732  0.8470  0.0042 -0.2307
 3801TIP3    H135598   5.650   5.524  14.736  0.0724  0.5030  0.6025
 3801TIP3    H235599   5.634   5.673  14.717  1.3614  0.5919  0.1211
 3802TIP3   OH235600   6.440   1.624  16.635  0.4371  0.1390  0.0938
 3802TIP3    H135601   6.513   1.580  16.591  0.6714  1.3906 -0.8193
 3802TIP3    H235602   6.472   1.713  16.651 -0.0452  0.0241  1.8418
 3803TIP3   OH235603   6.037   3.371  14.509  0.5369  0.2134  0.9199
 3803TIP3    H135604   6.068   3.292  14.464  0.4387 -0.5341  2.1152
 3803TIP3    H235605   6.104   3.436  14.490  1.5271 -0.6507  1.3230
 3804TIP3   OH235606   3.448   3.455  15.475  0.3882  0.3748  0.4480
 3804TIP3    H135607   3.379   3.401  15.513 -0.2014  0.4670 -0.4600
 3804TIP3    H235608   3.524   3.397  15.470  0.2164  0.1016  0.9136
 3805TIP3   OH235609   4.163   5.589  14.951 -0.0337 -0.0239  0.1042
 3805TIP3    H135610   4.119   5.527  15.008  0.8703 -0.8185 -0.0303
 3805TIP3    H235611   4.194   5.536  14.878 -0.5922  0.8579 -0.8079
 3806TIP3   OH235612   2.163   3.161  16.213  0.1532  0.0817 -0.0643
 3806TIP3    H135613   2.084   3.155  16.267  0.7396  0.5959  0.8747
 3806TIP3    H235614   2.220   3.092  16.246 -0.1780 -0.7784 -1.2384
 3807TIP3   OH235615   0.374   6.449  16.493  0.4406 -0.1258  0.0300
 3807TIP3    H135616   0.461   6.422  16.463  0.3806 -1.1036  0.6919
 3807TIP3    H235617   0.359   6.397  16.572 -0.2637  0.8788  0.5779
 3808TIP3   OH235618   0.375   6.642  15.748 -0.4730  0.2528 -0.3031
 3808TIP3    H135619   0.423   6.586  15.809 -0.3632  1.3413  0.6416
 3808TIP3    H235620   0.388   6.730  15.782 -3.0381  0.6075 -0.0739
 3809TIP3   OH235621   0.185   2.440  16.337  0.2331 -0.3708  0.1574
 3809TIP3    H135622   0.219   2.481  16.416  1.1838 -0.6575 -0.0839
 3809TIP3    H235623   0.185   2.509  16.272  0.0924 -0.3006  0.2319
 3810TIP3   OH235624   3.216   0.722  14.181  0.4450 -0.1220 -0.3408
 3810TIP3    H135625   3.259   0.799  14.220  0.5936 -0.8206  0.9386
 3810TIP3    H235626   3.131   0.754  14.152  1.1215  0.8862 -1.3077
 3811TIP3   OH235627   5.035   6.298  15.737  0.4764  0.4219 -0.2737
 3811TIP3    H135628   4.953   6.342  15.758  0.1606 -0.2104 -0.1385
 3811TIP3    H235629   5.053   6.244  15.814  0.9469  0.4508 -0.3635
 3812TIP3   OH235630   2.782   3.355  15.584  0.5117  0.1569  0.6992
 3812TIP3    H135631   2.746   3.324  15.501 -0.0427 -0.4598  1.1553
 3812TIP3    H235632   2.868   3.315  15.589  0.2772 -0.3555  0.7247
 3813TIP3   OH235633   0.829   3.226  15.007 -0.3925  0.2271 -0.7805
 3813TIP3    H135634   0.796   3.309  14.973 -0.9499  0.9447  1.3313
 3813TIP3    H235635   0.776   3.160  14.964 -2.6517  1.2051  0.3123
 3814TIP3   OH235636   0.185   6.311  15.972 -0.1794  0.1466 -1.3752
 3814TIP3    H135637   0.258   6.260  16.006  1.9354  2.4089 -2.2057
 3814TIP3    H235638   0.197   6.309  15.877 -0.8684  1.0023 -1.4866
 3815TIP3   OH235639   5.370   5.463  16.537 -0.1317  0.0983 -0.3768
 3815TIP3    H135640   5.299   5.422  16.586 -0.3622 -1.7061 -2.0580
 3815TIP3    H235641   5.326   5.505  16.463  0.5002 -1.2617 -1.5787
 3816TIP3   OH235642   6.561   2.591  14.495 -0.4164 -0.0720 -1.0412
 3816TIP3    H135643   6.636   2.549  14.452 -1.1556 -0.3143 -2.1502
 3816TIP3    H235644   6.513   2.519  14.535  0.2809  0.1560  0.2669
 3817TIP3   OH235645   2.564   4.970  15.800  0.3728  0.1663 -0.2251
 3817TIP3    H135646   2.596   4.880  15.808 -0.4984 -0.2416 -1.1152
 3817TIP3    H235647   2.563   4.987  15.706 -0.6170  0.6580 -0.1441
 3818TIP3   OH235648   0.505   2.029  15.069  0.0024 -0.4357 -0.2214
 3818TIP3    H135649   0.428   1.975  15.052 -0.6120  0.1287  0.7138
 3818TIP3    H235650   0.575   1.965  15.085 -0.1180 -0.9552 -1.6066
 3819TIP3   OH235651   4.927   3.846  16.736  0.7078 -0.0273  0.5539
 3819TIP3    H135652   4.969   3.774  16.688  0.2351 -1.6295  2.4204
 3819TIP3    H235653   4.844   3.859  16.690  1.4913  0.5051 -0.7913
 3820TIP3   OH235654   0.780   6.695  16.407  0.2671 -0.1438  0.5499
 3820TIP3    H135655   0.860   6.677  16.358  0.1257 -0.2333  0.3509
 3820TIP3    H235656   0.770   6.791  16.402 -1.1679 -0.3293 -1.8825
 3821TIP3   OH235657   2.374   0.245  15.993 -0.8020  0.2134  0.2450
 3821TIP3    H135658   2.375   0.170  15.933  0.1327  0.3858  0.0264
 3821TIP3    H235659   2.364   0.205  16.080 -0.4389 -0.1681  0.1184
 3822TIP3   OH235660   1.022   4.538  16.965  0.3331 -0.2173 -0.6186
 3822TIP3    H135661   1.059   4.451  16.948 -0.7971 -0.9058  0.2523
 3822TIP3    H235662   0.932   4.532  16.934 -0.0851  0.2836  0.4394
 3823TIP3   OH235663   6.119   5.986  15.056 -0.4609  0.3017  0.4536
 3823TIP3    H135664   6.119   6.056  15.122  1.7496 -0.4454  1.3178
 3823TIP3    H235665   6.175   6.019  14.986  0.1915 -0.3717  0.6440
 3824TIP3   OH235666   5.486   6.244  16.755  0.0004  0.0601 -0.5699
 3824TIP3    H135667   5.465   6.306  16.824  0.5087  0.1044 -0.4511
 3824TIP3    H235668   5.448   6.161  16.784 -1.6625  0.5459 -1.2536
 3825TIP3   OH235669   4.066   3.851  14.441 -0.3796 -0.2105 -0.4272
 3825TIP3    H135670   3.999   3.805  14.490  0.6973 -2.6827 -1.0880
 3825TIP3    H235671   4.135   3.785  14.428  1.0783  1.4930 -1.8395
 3826TIP3   OH235672   0.722   2.572  15.407 -0.3961 -0.0401 -0.3770
 3826TIP3    H135673   0.789   2.556  15.341  0.1923 -0.3151  0.2713
 3826TIP3    H235674   0.659   2.501  15.394  0.1660 -0.6049 -0.0893
 3827TIP3   OH235675   4.630   6.450  16.543 -0.0743 -0.2209 -0.4774
 3827TIP3    H135676   4.694   6.379  16.535  0.0911  0.0139 -1.2051
 3827TIP3    H235677   4.623   6.464  16.638  0.2967 -0.8389 -0.3493
 3828TIP3   OH235678   4.910   0.854  15.969 -0.1317 -0.0406  0.6598
 3828TIP3    H135679   5.002   0.839  15.989 -0.3367 -3.7103 -0.4168
 3828TIP3    H235680   4.873   0.889  16.050  1.6858 -1.0862  2.0026
 3829TIP3   OH235681   4.117   0.036  14.175 -0.5629 -0.6170 -0.0530
 3829TIP3    H135682   4.105  -0.058  14.186  2.0653 -0.9970  0.2266
 3829TIP3    H235683   4.147   0.046  14.084  0.5916 -0.2753  0.3382
 3830TIP3   OH235684   1.396   2.297  14.102 -0.2539 -0.1254 -0.0589
 3830TIP3    H135685   1.410   2.339  14.186 -0.7182 -1.0395  0.4897
 3830TIP3    H235686   1.317   2.244  14.114 -0.2883 -0.3255 -1.0439
 3831TIP3   OH235687   2.260   1.639  17.037 -0.4461 -0.1713 -0.3808
 3831TIP3    H135688   2.263   1.720  16.985 -0.2194 -1.1177 -1.9022
 3831TIP3    H235689   2.184   1.592  17.002  0.2324 -1.2224 -0.4834
 3832TIP3   OH235690   4.484   0.795  14.510  0.3059  0.6308 -0.3132
 3832TIP3    H135691   4.510   0.877  14.468  1.5327  0.7786  0.6629
 3832TIP3    H235692   4.393   0.782  14.484  0.3707  1.8268 -1.2156
 3833TIP3   OH235693   2.057   6.104  13.870  0.0777  0.0623  0.3623
 3833TIP3    H135694   1.963   6.123  13.870  0.4188  2.1515 -1.6630
 3833TIP3    H235695   2.071   6.047  13.795  0.3884 -0.4830  0.8320
 3834TIP3   OH235696   0.416   3.687  16.321  0.1835 -0.8438 -0.1968
 3834TIP3    H135697   0.470   3.608  16.327  3.0183  0.8822 -1.0035
 3834TIP3    H235698   0.366   3.688  16.403  1.3038 -2.6174  0.5675
 3835TIP3   OH235699   1.015   0.787  14.131 -0.2823 -0.8244  0.1173
 3835TIP3    H135700   0.970   0.772  14.049 -1.9746  2.6527  0.2493
 3835TIP3    H235701   1.089   0.727  14.129 -0.5336 -1.2270 -3.7006
 3836TIP3   OH235702   3.478   1.848  16.609 -0.7702  0.2262  0.0740
 3836TIP3    H135703   3.498   1.754  16.614  1.2439  0.5753 -0.6523
 3836TIP3    H235704   3.401   1.858  16.664 -0.3170 -1.6671  1.1558
 3837TIP3   OH235705   4.594   0.403  14.605 -0.0368 -0.8722  0.2466
 3837TIP3    H135706   4.610   0.387  14.512 -0.7535 -1.3076  0.1981
 3837TIP3    H235707   4.620   0.321  14.648 -1.2440 -1.2536  0.2613
 3838TIP3   OH235708   0.750   6.037  15.181  0.0105 -0.3887  0.2211
 3838TIP3    H135709   0.770   6.021  15.273  1.0495 -1.3728 -0.1528
 3838TIP3    H235710   0.699   6.118  15.181  0.7637  0.1164  1.5846
 3839TIP3   OH235711   1.767   2.547  14.834  0.8768  0.4995 -0.1040
 3839TIP3    H135712   1.850   2.502  14.849  0.9676  1.1948  1.7353
 3839TIP3    H235713   1.705   2.503  14.892 -0.1817 -0.2577 -1.7313
 3840TIP3   OH235714   2.950   3.723  16.185 -0.1241  0.0768 -0.1608
 3840TIP3    H135715   2.906   3.772  16.254  0.1047 -0.8064  0.6391
 3840TIP3    H235716   3.020   3.675  16.230 -0.6108 -1.3202 -0.8094
 3841TIP3   OH235717   2.940   3.682  16.583 -0.2722 -0.3684 -0.1519
 3841TIP3    H135718   2.907   3.771  16.593  0.0424 -0.0534 -1.6447
 3841TIP3    H235719   2.865   3.626  16.603 -0.6097  0.2326  0.3093
 3842TIP3   OH235720   6.208   1.811  14.342 -0.1219 -0.3797  0.0064
 3842TIP3    H135721   6.200   1.722  14.305 -1.4863  0.2502 -1.3210
 3842TIP3    H235722   6.130   1.821  14.396  0.2393 -0.1250  0.4819
 3843TIP3   OH235723   3.555   0.981  15.798  0.1003 -0.1880 -0.5607
 3843TIP3    H135724   3.552   1.059  15.854 -0.7485 -0.4597 -0.2148
 3843TIP3    H235725   3.464   0.966  15.774 -0.1165 -2.5054  1.3850
 3844TIP3   OH235726   3.429   3.090  15.948  0.1793  0.2152 -0.7047
 3844TIP3    H135727   3.475   3.005  15.947 -0.4809 -0.1940  0.7252
 3844TIP3    H235728   3.494   3.152  15.981 -0.6083 -0.6735  3.0435
 3845TIP3   OH235729   1.066   3.180  14.339 -0.6292  0.3581 -0.0056
 3845TIP3    H135730   1.029   3.232  14.268 -0.8879 -0.3787 -0.4215
 3845TIP3    H235731   1.007   3.195  14.413 -1.1099  0.1118 -0.3281
 3846TIP3   OH235732   1.263   4.796  15.340 -0.2479  0.1246  0.1812
 3846TIP3    H135733   1.343   4.843  15.316  1.0412 -2.7379 -1.6226
 3846TIP3    H235734   1.194   4.839  15.290  1.2924 -1.2807 -3.4573
 3847TIP3   OH235735   4.225   3.515  14.133  0.4819 -0.2839  0.1791
 3847TIP3    H135736   4.310   3.473  14.147  0.7088 -0.1334 -0.6551
 3847TIP3    H235737   4.221   3.528  14.038 -0.2969  0.0829  0.2582
 3848TIP3   OH235738   6.599   5.267  16.546  0.1284 -0.0112  0.0562
 3848TIP3    H135739   6.682   5.302  16.578 -0.0979  0.7214 -0.1528
 3848TIP3    H235740   6.575   5.200  16.610  0.9914 -0.3971 -0.0058
 3849TIP3   OH235741   2.385   0.575  15.894  0.1233  0.0149 -0.2609
 3849TIP3    H135742   2.367   0.531  15.977 -2.2442 -0.0763 -0.7486
 3849TIP3    H235743   2.356   0.665  15.908 -0.6312 -0.0868 -1.0591
 3850TIP3   OH235744   5.881   2.816  14.079  0.0782  0.0909  0.2184
 3850TIP3    H135745   5.855   2.745  14.138  3.3056 -0.2245  1.4754
 3850TIP3    H235746   5.906   2.772  13.998  1.7851 -0.2802  0.8947
 3851TIP3   OH235747   0.173   1.824  17.094 -0.0649  0.0015  0.1895
 3851TIP3    H135748   0.140   1.771  17.021  0.3011 -1.6976  1.2011
 3851TIP3    H235749   0.256   1.860  17.062 -1.8702  2.8445 -1.7295
 3852TIP3   OH235750   5.351   0.749  15.527  0.8929 -0.2961 -0.1104
 3852TIP3    H135751   5.256   0.760  15.529  0.8509 -0.4781 -0.9091
 3852TIP3    H235752   5.376   0.770  15.437  1.4856 -1.2227 -0.1738
 3853TIP3   OH235753   0.748   3.548  14.202 -0.0819 -0.3232 -0.3257
 3853TIP3    H135754   0.761   3.506  14.117  1.1816 -0.9737  0.1754
 3853TIP3    H235755   0.812   3.620  14.203 -0.8052  0.3312 -0.3356
 3854TIP3   OH235756   3.896   4.515  14.933  0.1355 -0.0006  0.6204
 3854TIP3    H135757   3.972   4.566  14.960  0.4421 -1.1744  2.1061
 3854TIP3    H235758   3.932   4.431  14.904 -0.3793  0.4464 -1.5216
 3855TIP3   OH235759   6.322   6.136  14.916  0.1710  0.4293 -0.1817
 3855TIP3    H135760   6.329   6.230  14.899 -1.8998  0.5290 -0.7526
 3855TIP3    H235761   6.403   6.113  14.960  1.1156  2.3076 -0.8459
 3856TIP3   OH235762   3.975   0.119  14.916  0.5559 -0.7831 -0.1126
 3856TIP3    H135763   3.984   0.114  14.821 -1.1887  0.6604 -0.4048
 3856TIP3    H235764   3.961   0.211  14.935 -1.9583 -1.3425  1.2270
 3857TIP3   OH235765   0.383   4.750  15.868 -0.2093 -0.4224  0.0872
 3857TIP3    H135766   0.338   4.713  15.792  0.1133  0.3551 -0.4957
 3857TIP3    H235767   0.443   4.681  15.896  0.3443 -0.3882 -0.9481
 3858TIP3   OH235768   6.639   6.470  14.076 -0.3716  0.3301  0.2705
 3858TIP3    H135769   6.667   6.379  14.062 -2.6904 -0.5294  0.7128
 3858TIP3    H235770   6.597   6.469  14.162 -1.3314  1.5844 -0.1488
 3859TIP3   OH235771   6.344   4.365  16.845  0.1868  0.3720  0.1036
 3859TIP3    H135772   6.280   4.425  16.807  0.2163 -0.4403 -1.3331
 3859TIP3    H235773   6.364   4.401  16.931 -1.0400  1.4809 -0.0518
 3860TIP3   OH235774   4.935   2.373  13.903  0.4545  0.0350 -0.2260
 3860TIP3    H135775   4.962   2.396  13.814  1.2423 -0.0311 -0.0144
 3860TIP3    H235776   5.001   2.310  13.932 -0.0621 -0.3022  0.2405
 3861TIP3   OH235777   0.453   5.167  16.200  0.3458  0.3813  0.0144
 3861TIP3    H135778   0.497   5.211  16.127  1.4922 -0.6416  0.0541
 3861TIP3    H235779   0.456   5.074  16.178  1.8240 -0.0839  1.8790
 3862TIP3   OH235780   4.138   3.253  16.714  0.0782  0.3928  0.5869
 3862TIP3    H135781   4.226   3.272  16.746  0.1560 -0.8592  1.1836
 3862TIP3    H235782   4.101   3.195  16.781 -0.3704 -0.9601 -0.7928
 3863TIP3   OH235783   2.214   2.895  14.089 -0.4291 -0.2815  0.3530
 3863TIP3    H135784   2.195   2.831  14.021 -1.6571  0.0777  0.3405
 3863TIP3    H235785   2.248   2.972  14.042 -0.9181 -0.1724  0.1759
 3864TIP3   OH235786   0.803   0.504  14.564 -0.3388 -0.1302  0.4304
 3864TIP3    H135787   0.851   0.536  14.487  1.3541  1.2751  1.9625
 3864TIP3    H235788   0.793   0.410  14.548  1.7288 -0.2394 -0.6364
 3865TIP3   OH235789   3.091   6.425  15.700  0.0406 -0.5982 -0.2579
 3865TIP3    H135790   3.044   6.452  15.779 -1.4156 -0.6964 -1.0623
 3865TIP3    H235791   3.167   6.483  15.697 -0.3048 -0.0697  0.8033
 3866TIP3   OH235792   2.861   2.962  14.782  0.0592 -0.3545  0.1535
 3866TIP3    H135793   2.870   3.009  14.865  0.1719 -0.5112  0.2323
 3866TIP3    H235794   2.949   2.926  14.766 -0.0153 -0.4993  0.0722
 3867TIP3   OH235795   5.481   2.653  12.925  0.8789 -0.0045 -0.1630
 3867TIP3    H135796   5.434   2.721  12.972 -0.3685 -0.3366 -0.8943
 3867TIP3    H235797   5.573   2.667  12.948  0.6288  1.7603 -0.1188
 3868TIP3   OH235798   0.060   1.855  16.049  0.1161  0.3795  0.3168
 3868TIP3    H135799   0.111   1.923  16.005  1.0604 -0.6362 -0.2101
 3868TIP3    H235800  -0.030   1.887  16.046  0.5367  1.6101  0.1065
 3869TIP3   OH235801   6.047   0.947  16.268 -0.4808 -0.3172  0.1993
 3869TIP3    H135802   5.998   0.948  16.186  2.1249  1.0272 -1.4979
 3869TIP3    H235803   6.018   1.026  16.315  0.7376  1.1232 -1.3244
 3870TIP3   OH235804   5.356   0.545  14.068 -0.0026  0.5710 -0.1115
 3870TIP3    H135805   5.294   0.475  14.089 -0.6710  1.3658  0.6556
 3870TIP3    H235806   5.412   0.551  14.145 -0.7114  1.6707  0.3294
 3871TIP3   OH235807   1.801   5.021  16.626  0.6061  0.0636  0.3165
 3871TIP3    H135808   1.827   5.014  16.718 -1.4482  0.0215  0.9519
 3871TIP3    H235809   1.816   4.933  16.591  3.6729  0.6556 -0.1223
 3872TIP3   OH235810   5.484   0.713  16.176 -0.3710  0.0617  0.7207
 3872TIP3    H135811   5.494   0.662  16.096 -1.2840  0.4089  0.3771
 3872TIP3    H235812   5.505   0.651  16.246 -1.9457 -0.9642  0.3423
 3873TIP3   OH235813   1.509   3.894  16.414 -0.1031 -0.7473 -0.1222
 3873TIP3    H135814   1.600   3.865  16.420 -0.2338 -0.9700  1.0715
 3873TIP3    H235815   1.465   3.849  16.487 -0.7599  0.8296  0.4840
 3874TIP3   OH235816   5.551   1.969  14.445  0.4461  0.0259  0.6892
 3874TIP3    H135817   5.606   1.952  14.521  1.1425  0.8653  0.3875
 3874TIP3    H235818   5.537   2.064  14.446  0.1012 -0.0119  0.0191
 3875TIP3   OH235819   3.995   4.617  16.497  0.3151 -0.0921  0.1102
 3875TIP3    H135820   3.980   4.646  16.407  0.8298 -1.2237 -0.3623
 3875TIP3    H235821   4.077   4.568  16.492 -0.0119 -0.7523  1.0666
 3876TIP3   OH235822   2.290   1.377  15.460 -0.2418 -0.4469 -0.0839
 3876TIP3    H135823   2.373   1.377  15.507 -1.0253 -2.1902  1.4301
 3876TIP3    H235824   2.271   1.469  15.445  2.6444 -0.0054 -1.8512
 3877TIP3   OH235825   3.654   3.165  14.254 -0.1463 -0.2663  0.4155
 3877TIP3    H135826   3.653   3.239  14.193 -1.6720  1.4237  2.3000
 3877TIP3    H235827   3.745   3.159  14.283 -0.0388  1.1270  0.4614
 3878TIP3   OH235828   1.035   5.640  15.373  0.1414  0.0086  0.2620
 3878TIP3    H135829   1.098   5.709  15.354  1.2543 -1.0831 -0.1450
 3878TIP3    H235830   1.017   5.649  15.467 -0.5158  1.4505  0.0310
 3879TIP3   OH235831   2.242   6.350  16.526  0.0926 -0.0834 -0.4413
 3879TIP3    H135832   2.175   6.360  16.459 -1.4080  1.2272  1.1672
 3879TIP3    H235833   2.212   6.277  16.580  0.4257 -0.0810 -0.2475
 3880TIP3   OH235834   0.291   0.341  16.818  0.2322  0.1703  0.5549
 3880TIP3    H135835   0.288   0.264  16.875 -0.1372 -0.4872 -0.3291
 3880TIP3    H235836   0.243   0.408  16.866 -0.8046 -0.6233  0.6576
 3881TIP3   OH235837   4.587   4.571  14.581 -1.0014  0.5226 -0.7746
 3881TIP3    H135838   4.501   4.539  14.555  0.2757 -2.3531 -1.9569
 3881TIP3    H235839   4.647   4.530  14.519  1.3701  1.2897  0.8625
 3882TIP3   OH235840   1.402   2.063  13.738  0.3430 -0.0594  0.4436
 3882TIP3    H135841   1.460   2.137  13.759 -0.6870  1.6810 -2.1994
 3882TIP3    H235842   1.459   1.987  13.737  1.9543  1.0833  0.9565
 3883TIP3   OH235843   1.197   0.558  13.991  0.4689  0.0943 -0.0515
 3883TIP3    H135844   1.228   0.520  13.909 -2.2651 -1.4177 -0.5075
 3883TIP3    H235845   1.137   0.493  14.027 -0.7553  1.9956  1.5933
 3884TIP3   OH235846   3.474   2.357  15.474  0.1880 -0.4226  0.1040
 3884TIP3    H135847   3.456   2.266  15.497 -0.8793  0.0188  1.1044
 3884TIP3    H235848   3.476   2.358  15.378 -1.5659 -1.1934  0.0337
 3885TIP3   OH235849   2.886   5.611  14.836  0.7389 -0.5575 -0.4056
 3885TIP3    H135850   2.978   5.634  14.834  0.6960 -0.2168  0.8973
 3885TIP3    H235851   2.842   5.679  14.785  1.0249  0.2215  0.3772
 3886TIP3   OH235852   5.666   0.321  17.202 -0.6670 -0.2811 -0.3415
 3886TIP3    H135853   5.618   0.305  17.283 -2.2080  1.0088 -0.9368
 3886TIP3    H235854   5.694   0.412  17.209 -0.4901 -0.2749 -1.0974
 3887TIP3   OH235855   5.248   3.136  16.510 -0.0180  0.1331  0.2418
 3887TIP3    H135856   5.251   3.167  16.601 -4.7672  0.9426  0.3800
 3887TIP3    H235857   5.258   3.215  16.458  1.9327 -0.2362 -0.0334
 3888TIP3   OH235858   2.057   5.282  16.323  0.0445 -0.0462 -0.2250
 3888TIP3    H135859   2.025   5.226  16.252 -0.1574 -1.0744  0.6519
 3888TIP3    H235860   2.146   5.306  16.295 -0.2139 -0.0133 -1.0548
 3889TIP3   OH235861   6.366   3.725  16.565 -0.1035  0.0672  0.2225
 3889TIP3    H135862   6.299   3.788  16.540  0.6305  0.0496 -2.0235
 3889TIP3    H235863   6.449   3.774  16.559  0.3485 -0.7247 -0.1500
 3890TIP3   OH235864   1.532   0.741  16.689  0.5801  0.4911  0.1915
 3890TIP3    H135865   1.442   0.767  16.672  0.2985  0.3042  1.3148
 3890TIP3    H235866   1.563   0.802  16.756 -0.2372 -2.0994  3.2269
 3891TIP3   OH235867   5.914   2.996  14.293 -0.1028  0.6614 -0.1177
 3891TIP3    H135868   5.825   3.011  14.325 -0.4057 -0.7358 -0.2330
 3891TIP3    H235869   5.906   2.920  14.236  1.3099 -0.0562  0.5882
 3892TIP3   OH235870   6.222   2.834  13.216 -0.0346 -0.1030  0.4837
 3892TIP3    H135871   6.204   2.855  13.124 -0.4867  1.8875  0.9827
 3892TIP3    H235872   6.318   2.836  13.222  0.2129 -3.1999 -0.5160
 3893TIP3   OH235873   0.239   1.589  14.503  0.1817  0.6645 -0.1461
 3893TIP3    H135874   0.189   1.516  14.541 -1.2515  2.0818  0.8293
 3893TIP3    H235875   0.173   1.645  14.464  1.1969  1.7481 -0.3539
 3894TIP3   OH235876   3.303   4.160  15.813  0.1584 -0.0572 -0.0946
 3894TIP3    H135877   3.212   4.136  15.832 -0.2920  0.9634 -0.8747
 3894TIP3    H235878   3.345   4.165  15.899 -0.8880  0.8266  0.3834
 3895TIP3   OH235879   2.906   3.916  15.193 -0.4100  0.0866 -0.1092
 3895TIP3    H135880   2.845   3.977  15.152 -2.3302 -2.0862 -0.6193
 3895TIP3    H235881   2.851   3.857  15.245  1.2587 -1.7834 -0.3427
 3896TIP3   OH235882   0.560   4.718  15.050 -0.0472  0.1019 -0.5668
 3896TIP3    H135883   0.548   4.811  15.070 -1.6069 -0.3041  0.5331
 3896TIP3    H235884   0.496   4.673  15.105  0.2225 -1.5851 -1.5712
 3897TIP3   OH235885   3.335   0.116  14.621  0.3814  0.0400 -0.1289
 3897TIP3    H135886   3.340   0.034  14.671 -1.7129 -0.3946 -0.5089
 3897TIP3    H235887   3.280   0.094  14.546 -1.1113  2.0011  0.3020
 3898TIP3   OH235888   5.175   6.548  14.009 -0.5205  0.2504  0.0518
 3898TIP3    H135889   5.108   6.591  13.955 -2.5024 -1.0697  1.3290
 3898TIP3    H235890   5.233   6.506  13.946 -1.5488  0.4822 -1.0949
 3899TIP3   OH235891   0.148   1.999  15.099  0.2792  0.6367 -0.3889
 3899TIP3    H135892   0.069   1.951  15.075  0.5087 -1.5310  2.7148
 3899TIP3    H235893   0.220   1.940  15.075  0.7002  0.5156  1.1124
 3900TIP3   OH235894   1.081   5.357  14.646 -0.2879  0.3665 -0.4235
 3900TIP3    H135895   1.168   5.321  14.631 -0.2830 -0.8788  2.0261
 3900TIP3    H235896   1.058   5.401  14.564  2.5700  0.6277 -1.1844
 3901TIP3   OH235897   4.955   5.336  14.025  0.1747  0.8922  0.6346
 3901TIP3    H135898   4.977   5.312  14.116 -2.4482  1.5890  1.5326
 3901TIP3    H235899   4.999   5.420  14.011 -2.8438  3.0601  2.9252
 3902TIP3   OH235900   1.774   0.976  14.047  0.5775  0.3330  0.5342
 3902TIP3    H135901   1.843   1.024  14.093  0.3115 -0.0454  1.3322
 3902TIP3    H235902   1.786   1.001  13.955  2.4950 -0.6021  0.4755
 3903TIP3   OH235903   0.317   4.405  16.343  0.2382  0.0681 -0.0801
 3903TIP3    H135904   0.248   4.467  16.320  1.8402  1.6479 -0.8989
 3903TIP3    H235905   0.321   4.345  16.268  0.1718  0.3475 -0.3079
 3904TIP3   OH235906   4.045   2.699  14.710  0.1187  0.5169  0.2123
 3904TIP3    H135907   4.055   2.788  14.744  0.6682  0.1934  0.9128
 3904TIP3    H235908   3.987   2.656  14.773 -0.8650  0.6150 -0.5916
 3905TIP3   OH235909   0.941   5.973  15.830  0.1815  0.6946 -0.2027
 3905TIP3    H135910   0.885   5.910  15.785 -0.9043  0.1327  1.8077
 3905TIP3    H235911   0.967   5.928  15.910  3.0010  1.1929 -0.7242
 3906TIP3   OH235912   0.029   6.528  16.006 -0.2071 -0.1718 -0.1195
 3906TIP3    H135913   0.087   6.452  16.013  0.5837  0.3803 -0.4442
 3906TIP3    H235914  -0.059   6.493  16.021  0.2247 -0.9942  0.5900
 3907TIP3   OH235915   0.889   0.601  16.290 -0.1853  0.1299  0.4985
 3907TIP3    H135916   0.795   0.598  16.308 -0.0848  1.6095  1.3971
 3907TIP3    H235917   0.919   0.512  16.307 -1.3249 -0.2255  0.7595
 3908TIP3   OH235918   1.388   0.859  14.481  0.2026  0.4414  0.4510
 3908TIP3    H135919   1.357   0.772  14.508  0.6444  0.1227 -0.0537
 3908TIP3    H235920   1.319   0.892  14.423 -0.1636  0.6097  0.9733
 3909TIP3   OH235921   4.061   4.688  15.898  0.3543 -0.3866 -0.0568
 3909TIP3    H135922   3.973   4.650  15.894  0.3911 -0.4087 -0.8659
 3909TIP3    H235923   4.094   4.665  15.985  0.4073 -2.2858 -0.5490
 3910TIP3   OH235924   4.980   3.283  14.832  0.3708 -0.1353  0.6753
 3910TIP3    H135925   4.994   3.372  14.802  0.2008 -0.0451  0.8656
 3910TIP3    H235926   4.974   3.231  14.751  1.1756 -0.0872  0.5753
 3911TIP3   OH235927   2.071   0.807  13.903 -0.2101  0.2453  0.4638
 3911TIP3    H135928   2.049   0.785  13.994 -4.2174  3.7769  0.6406
 3911TIP3    H235929   2.160   0.841  13.908 -0.1458 -0.0546  2.9604
 3912TIP3   OH235930   1.047   0.977  13.673  0.4734  0.0051 -0.0704
 3912TIP3    H135931   1.109   0.919  13.717  0.0483 -0.3757  0.0408
 3912TIP3    H235932   1.033   1.048  13.736 -0.1920 -0.5772  0.4649
 3913TIP3   OH235933   3.068   4.281  14.466  0.4231 -0.3949 -0.6073
 3913TIP3    H135934   3.019   4.228  14.404 -1.9971 -0.1186  0.9337
 3913TIP3    H235935   3.156   4.243  14.466 -0.4128 -2.4890 -1.7167
 3914TIP3   OH235936   2.550   4.482  14.327  0.2279  0.0973  0.0765
 3914TIP3    H135937   2.466   4.447  14.298  0.6031 -0.0313 -0.8914
 3914TIP3    H235938   2.542   4.488  14.422  0.3200 -3.1823  0.4166
 3915TIP3   OH235939   1.045   3.377  16.884  0.1486  0.4129  0.3367
 3915TIP3    H135940   1.100   3.372  16.962  0.4691  0.9407  0.1546
 3915TIP3    H235941   1.099   3.425  16.820 -0.6490  1.2469  0.2647
 3916TIP3   OH235942   0.471   4.498  15.997  0.1617  0.7105  0.5448
 3916TIP3    H135943   0.558   4.475  15.964 -0.5595 -0.4539 -0.6036
 3916TIP3    H235944   0.429   4.414  16.014 -0.3051  1.2565  2.3813
 3917TIP3   OH235945   3.668   5.283  13.614 -0.1512 -0.0181 -0.0195
 3917TIP3    H135946   3.632   5.211  13.562  1.3608 -1.3719  0.7318
 3917TIP3    H235947   3.602   5.352  13.608 -0.7212 -0.6919 -2.4356
 3918TIP3   OH235948   5.773   6.220  16.325 -0.7935  0.0912  0.3279
 3918TIP3    H135949   5.778   6.175  16.241  1.7126 -1.2117  1.0677
 3918TIP3    H235950   5.855   6.269  16.331 -0.4556 -0.5987  2.3501
 3919TIP3   OH235951   6.073   4.620  14.560 -0.4588  0.2038 -0.7109
 3919TIP3    H135952   5.979   4.614  14.542 -0.0896  2.4668 -4.3856
 3919TIP3    H235953   6.083   4.702  14.608 -0.3682 -0.3713  0.2832
 3920TIP3   OH235954   2.043   0.531  13.327 -0.2099 -0.5187  0.7503
 3920TIP3    H135955   2.047   0.624  13.344 -3.1065 -0.4023  1.3156
 3920TIP3    H235956   2.083   0.521  13.240  0.6758  1.1313  0.9353
 3921TIP3   OH235957   0.092   2.975  14.104  0.2765 -0.0978 -0.1245
 3921TIP3    H135958   0.114   2.949  14.014 -1.9804  1.9143 -1.3816
 3921TIP3    H235959   0.121   3.066  14.110 -1.7194  0.5453  0.3268
 3922TIP3   OH235960   5.449   1.167  15.079 -0.3025 -0.0787 -0.1304
 3922TIP3    H135961   5.478   1.076  15.084 -1.3617 -0.4513 -0.4116
 3922TIP3    H235962   5.482   1.199  14.995 -0.9485 -0.5977 -0.5955
 3923TIP3   OH235963   5.786   2.406  14.049 -0.3222 -0.6813 -0.4177
 3923TIP3    H135964   5.714   2.469  14.047  2.8935  3.4096 -1.9815
 3923TIP3    H235965   5.820   2.405  13.960  2.6536 -0.9396  0.5938
 3924TIP3   OH235966   0.431   1.488  15.617  0.1628 -0.1970  0.5799
 3924TIP3    H135967   0.442   1.488  15.522 -0.2725  0.0267  0.5243
 3924TIP3    H235968   0.458   1.576  15.644 -1.2937  0.3134  0.4567
 3925TIP3   OH235969   4.084   3.096  14.794  0.2931 -0.1585  0.4002
 3925TIP3    H135970   4.007   3.047  14.765 -0.2836  0.7334  0.3705
 3925TIP3    H235971   4.049   3.160  14.857  0.6906  1.5256 -1.0153
 3926TIP3   OH235972   0.037   1.265  16.588 -0.3439  0.4383 -0.3475
 3926TIP3    H135973   0.038   1.175  16.621  0.1152  0.3971 -0.4671
 3926TIP3    H235974   0.119   1.302  16.619  0.7007  0.0271 -2.4409
 3927TIP3   OH235975   4.951   1.596  14.374 -0.8062 -0.0369 -0.1546
 3927TIP3    H135976   4.867   1.638  14.357 -1.5870 -0.9614  1.1744
 3927TIP3    H235977   4.932   1.530  14.441  0.6424 -1.4960 -1.0979
 3928TIP3   OH235978   4.913   2.045  14.344  0.3733  0.4933 -0.2641
 3928TIP3    H135979   4.949   2.058  14.256  1.4691  1.5053  0.3164
 3928TIP3    H235980   4.889   2.133  14.374  1.6792  0.4191  1.1321
 3929TIP3   OH235981   1.464   1.657  14.044 -0.4507 -0.2828  0.0178
 3929TIP3    H135982   1.381   1.609  14.055 -0.2577 -0.2006  2.4208
 3929TIP3    H235983   1.525   1.592  14.009 -1.4192 -0.4003 -1.5817
 3930TIP3   OH235984   2.627   5.285  13.950  0.5106  0.6324 -0.0877
 3930TIP3    H135985   2.695   5.317  14.009  0.9615  2.3218 -1.4451
 3930TIP3    H235986   2.573   5.362  13.930 -0.5008 -0.2080 -0.7298
 3931TIP3   OH235987   0.781   2.723  14.999  0.4866 -0.0933 -0.1561
 3931TIP3    H135988   0.721   2.700  15.071  1.1439  2.2097  1.2293
 3931TIP3    H235989   0.868   2.708  15.035  0.8133  0.6354 -0.6251
 3932TIP3   OH235990   5.556   1.552  17.363  0.3355  0.0205  0.1254
 3932TIP3    H135991   5.591   1.463  17.350 -1.2983 -0.6435 -0.0347
 3932TIP3    H235992   5.531   1.554  17.455  0.6196  0.4036  0.1898
 3933TIP3   OH235993   2.484   6.346  16.673 -0.0704 -0.1071 -0.3257
 3933TIP3    H135994   2.462   6.262  16.713  0.8087 -0.7282 -1.1037
 3933TIP3    H235995   2.414   6.361  16.609 -0.4760 -0.0110  0.1322
 3934TIP3   OH235996   4.079   5.906  14.291 -0.5021 -0.1975  0.4374
 3934TIP3    H135997   4.108   5.992  14.260  0.8327 -0.2502  1.3975
 3934TIP3    H235998   4.104   5.905  14.384  0.9268 -2.1617  0.1139
 3935TIP3   OH235999   5.039   1.148  14.631 -0.2328  0.3992 -0.2059
 3935TIP3    H136000   4.963   1.115  14.679 -0.6980  1.6402 -0.0417
 3935TIP3    H236001   5.112   1.094  14.661 -0.8914 -0.2284  0.3018
 3936TIP3   OH236002   1.188   1.219  16.091  0.3652  0.6825  0.3217
 3936TIP3    H136003   1.097   1.249  16.083 -0.0775  0.0546  2.3080
 3936TIP3    H236004   1.196   1.148  16.028 -1.1273 -0.4857  1.3801
 3937TIP3   OH236005   4.244   6.033  15.182 -0.4466  0.0223  0.0732
 3937TIP3    H136006   4.320   6.031  15.241 -0.6134  1.3012  0.3673
 3937TIP3    H236007   4.177   5.981  15.227  0.4565 -1.7574 -0.5351
 3938TIP3   OH236008   5.294   5.759  16.731  0.5568  0.3832 -0.0757
 3938TIP3    H136009   5.202   5.735  16.735  0.9848 -1.3588 -0.0095
 3938TIP3    H236010   5.306   5.794  16.643  0.2641 -1.3388 -0.8275
 3939TIP3   OH236011   4.622   1.816  15.092  0.2949 -0.4080  0.1338
 3939TIP3    H136012   4.535   1.842  15.121  0.4626  2.1251 -1.4051
 3939TIP3    H236013   4.611   1.794  15.000  1.4245  0.8693 -0.3269
 3940TIP3   OH236014   5.669   0.611  14.290 -0.4363 -0.4706 -0.4531
 3940TIP3    H136015   5.685   0.630  14.197  0.4413 -0.4012 -0.2914
 3940TIP3    H236016   5.657   0.516  14.293 -1.6055 -0.3535 -0.7899
 3941TIP3   OH236017   4.744   2.664  15.315 -0.3024  0.0672 -0.1828
 3941TIP3    H136018   4.767   2.706  15.398  0.1788  0.2823 -0.4189
 3941TIP3    H236019   4.809   2.697  15.253 -1.4341  0.9244 -0.9485
 3942TIP3   OH236020   1.030   2.691  15.086  0.0302  0.5550  0.4615
 3942TIP3    H136021   1.091   2.710  15.015 -0.6803 -0.9012 -0.6209
 3942TIP3    H236022   1.078   2.709  15.166  0.6962  2.7432 -0.3753
 3943TIP3   OH236023   0.865   3.049  15.847  0.3733  0.6487  0.2779
 3943TIP3    H136024   0.815   3.107  15.903 -1.3844 -0.2156 -0.3188
 3943TIP3    H236025   0.828   3.062  15.759  0.2749 -0.9557  0.0450
 3944TIP3   OH236026   4.206   1.504  14.602 -0.1810 -0.0167 -0.6248
 3944TIP3    H136027   4.227   1.499  14.508 -2.3701 -0.3730 -1.1576
 3944TIP3    H236028   4.126   1.556  14.606 -0.5502 -0.6432  0.9772
 3945TIP3   OH236029   2.766   0.440  16.116  0.1758  0.0452  0.1287
 3945TIP3    H136030   2.785   0.534  16.110  0.1000 -0.0088 -1.7154
 3945TIP3    H236031   2.711   0.422  16.040  0.6480 -1.6000  0.1292
 3946TIP3   OH236032   3.888   6.369  15.181 -0.3391 -0.3316  0.1875
 3946TIP3    H136033   3.856   6.450  15.140  0.1806 -0.5280 -0.6392
 3946TIP3    H236034   3.808   6.324  15.209 -0.7529 -0.3155 -0.8817
 3947TIP3   OH236035   5.713   5.647  15.171 -0.4401 -0.5008  0.5804
 3947TIP3    H136036   5.641   5.623  15.112 -0.0435  0.1303 -0.1845
 3947TIP3    H236037   5.670   5.690  15.244 -0.7353  2.1395 -1.0191
 3948TIP3   OH236038   1.533   3.394  14.228  0.0709 -0.1162 -0.0036
 3948TIP3    H136039   1.446   3.384  14.267 -0.6785 -0.8410 -1.7588
 3948TIP3    H236040   1.593   3.383  14.302 -1.3098  0.3599  1.2404
 3949TIP3   OH236041   0.376   6.721  14.840 -0.0300 -0.0632  0.1251
 3949TIP3    H136042   0.351   6.772  14.763  0.1012 -0.2084 -0.0148
 3949TIP3    H236043   0.294   6.680  14.868 -0.6363  2.0472  1.6345
 3950TIP3   OH236044   1.927   2.834  16.144  0.1610  0.4660  0.0812
 3950TIP3    H136045   1.940   2.846  16.238 -0.5678  0.2766  0.2125
 3950TIP3    H236046   1.999   2.777  16.117  1.3679  1.8962  0.1899
 3951TIP3   OH236047   6.404   4.888  16.576  0.0834 -0.2675  0.0957
 3951TIP3    H136048   6.398   4.941  16.497 -0.2255 -0.6627 -0.1492
 3951TIP3    H236049   6.317   4.848  16.586  0.0900 -0.1556  0.6813
 3952TIP3   OH236050   0.455   3.594  15.256  0.0652  0.3821 -0.0808
 3952TIP3    H136051   0.487   3.507  15.231 -1.5431 -0.4364  0.5807
 3952TIP3    H236052   0.519   3.654  15.217  1.4457 -1.0820 -0.2197
 3953TIP3   OH236053   4.738   1.602  15.396 -0.4782 -0.7735  0.1178
 3953TIP3    H136054   4.781   1.683  15.423  0.0203 -0.8070 -0.5685
 3953TIP3    H236055   4.782   1.534  15.446 -1.8839 -0.5049  1.8286
 3954TIP3   OH236056   4.071   4.560  15.253 -0.4724  1.1268  0.0423
 3954TIP3    H136057   4.115   4.615  15.189 -0.3712  0.7465 -0.2143
 3954TIP3    H236058   4.013   4.504  15.202  0.0147  0.4369  0.2248
 3955TIP3   OH236059   2.647   2.717  14.481  0.4170  0.1112 -0.0600
 3955TIP3    H136060   2.677   2.673  14.401 -1.7637 -1.6438 -0.0016
 3955TIP3    H236061   2.693   2.673  14.552 -0.8383 -1.3443 -0.0955
 3956TIP3   OH236062   5.387   2.182  14.134 -0.0521 -0.1477  0.4330
 3956TIP3    H136063   5.459   2.188  14.072  0.9927 -0.9353  1.5246
 3956TIP3    H236064   5.347   2.269  14.133 -0.8657 -0.4589 -2.2197
 3957TIP3   OH236065   2.822   5.311  14.948 -0.1268 -0.0269  0.3318
 3957TIP3    H136066   2.867   5.378  14.897 -0.7421  0.7848  0.8304
 3957TIP3    H236067   2.864   5.229  14.923  1.2573  0.6471  0.4009
 3958TIP3   OH236068   2.978   3.258  16.562 -0.1794  0.2523  0.1318
 3958TIP3    H136069   3.054   3.224  16.610 -0.4326 -1.3781 -0.5541
 3958TIP3    H236070   3.013   3.284  16.477 -0.3217 -0.1360 -0.0461
 3959TIP3   OH236071   5.728   0.028  16.842 -0.0169 -0.1854 -0.2846
 3959TIP3    H136072   5.714   0.044  16.935 -0.2497 -1.0833 -0.1526
 3959TIP3    H236073   5.819   0.000  16.836  0.3634  1.0544 -0.5018
 3960TIP3   OH236074   4.709   4.691  14.012 -0.4479  0.1605  0.3075
 3960TIP3    H136075   4.634   4.745  14.038 -0.7806 -0.4910  0.7274
 3960TIP3    H236076   4.737   4.729  13.928 -0.7913  0.8619  0.4981
 3961TIP3   OH236077   4.399   0.956  15.273 -0.0010 -0.3997  0.2047
 3961TIP3    H136078   4.477   0.900  15.270  0.1416 -0.3239  1.6558
 3961TIP3    H236079   4.329   0.902  15.239  0.2541 -1.2810  1.0266
 3962TIP3   OH236080   5.561   3.506  15.888 -0.1967 -0.1426  0.0903
 3962TIP3    H136081   5.479   3.551  15.907  0.3844  0.6212  0.9268
 3962TIP3    H236082   5.559   3.428  15.944 -1.7781 -1.9476 -2.3031
 3963TIP3   OH236083   3.803   2.285  14.972 -0.5166  0.7331 -0.5341
 3963TIP3    H136084   3.866   2.277  15.044 -0.0644  0.4134 -0.9531
 3963TIP3    H236085   3.758   2.201  14.969 -3.3869  1.9957  1.8955
 3964TIP3   OH236086   1.539   1.177  15.977  0.1726  0.2159 -0.6026
 3964TIP3    H136087   1.590   1.127  15.913  1.0577  0.2424  0.0618
 3964TIP3    H236088   1.492   1.111  16.027  0.3269  0.1245 -0.5762
 3965TIP3   OH236089   5.206   1.169  15.468  0.1396  0.1502  0.2851
 3965TIP3    H136090   5.116   1.156  15.499  0.4381 -2.5519  0.3172
 3965TIP3    H236091   5.201   1.155  15.374  0.4682  0.4399  0.2236
 3966TIP3   OH236092   0.852   4.413  15.030  0.1657  0.1245 -0.4183
 3966TIP3    H136093   0.827   4.497  14.990 -0.7122  0.2768  0.4302
 3966TIP3    H236094   0.854   4.431  15.124  0.1584 -0.7705 -0.2436
 3967TIP3   OH236095   1.008   3.884  15.012  0.0993  0.3419  0.3020
 3967TIP3    H136096   1.016   3.874  15.107 -0.3395  2.0421  0.5496
 3967TIP3    H236097   1.090   3.926  14.986 -0.5197  1.5517  0.2272
 3968TIP3   OH236098   3.040   0.569  14.850  0.3371 -0.0271  0.4962
 3968TIP3    H136099   3.064   0.624  14.925 -0.2549 -0.5978  1.1189
 3968TIP3    H236100   3.016   0.484  14.889  5.7814 -2.5078 -0.6688
 3969TIP3   OH236101   5.305   3.427  15.622 -0.1611 -0.1834 -0.2266
 3969TIP3    H136102   5.269   3.516  15.631  1.4784  0.5978 -1.0577
 3969TIP3    H236103   5.384   3.438  15.570  0.7761 -1.9705  0.7289
 3970TIP3   OH236104   2.143   2.556  14.344  0.2821 -0.5767 -0.2335
 3970TIP3    H136105   2.232   2.544  14.313  0.8723  0.9902  0.7096
 3970TIP3    H236106   2.135   2.498  14.419  0.6947 -0.3308  0.0030
 3971TIP3   OH236107   6.662   6.459  17.000 -0.1004 -0.2297  0.3446
 3971TIP3    H136108   6.584   6.506  16.970 -0.5441 -0.5135  1.0228
 3971TIP3    H236109   6.701   6.517  17.066  0.1308 -0.1962  0.1803
 3972TIP3   OH236110   4.867   2.365  15.282 -0.7155 -0.3884  0.2360
 3972TIP3    H136111   4.882   2.459  15.281 -3.1417  0.0583 -0.0598
 3972TIP3    H236112   4.896   2.336  15.195  0.5198 -0.0466  0.5060
 3973TIP3   OH236113   3.065   3.843  14.640  0.9436 -0.2980  0.1182
 3973TIP3    H136114   3.049   3.750  14.659  2.4241 -0.5538  0.2529
 3973TIP3    H236115   3.091   3.844  14.548  0.5503  0.0472  0.0066
 3974TIP3   OH236116   0.392   0.333  14.281  0.2022 -0.3563 -0.6015
 3974TIP3    H136117   0.354   0.344  14.194 -0.8001  0.1367 -0.1155
 3974TIP3    H236118   0.485   0.349  14.268 -0.0711  0.7352 -1.4032
 3975TIP3   OH236119   1.106   0.141  14.955 -0.3563 -0.0104 -0.3625
 3975TIP3    H136120   1.015   0.112  14.959 -0.3021 -0.1882 -0.3833
 3975TIP3    H236121   1.146   0.106  15.035 -0.1676 -0.4294 -0.6353
 3976TIP3   OH236122   2.142   4.130  14.841 -0.3826 -0.0409  0.2319
 3976TIP3    H136123   2.106   4.215  14.813  0.1989  0.8439  1.9765
 3976TIP3    H236124   2.068   4.070  14.836 -1.2203  0.9368  0.4214
 3977TIP3   OH236125   3.951   6.010  16.609  0.4850 -0.2398  0.0021
 3977TIP3    H136126   3.936   5.916  16.599  0.9762 -0.2673 -0.5469
 3977TIP3    H236127   4.027   6.028  16.554  0.7232  0.3856  0.5261
 3978TIP3   OH236128   1.885   3.162  15.738 -0.3583 -0.5223 -0.3533
 3978TIP3    H136129   1.906   3.097  15.671  1.1141  1.4662 -1.9265
 3978TIP3    H236130   1.846   3.235  15.690  0.9553  1.0626  0.8536
 3979TIP3   OH236131   5.795   2.702  15.851  0.0657 -0.1877 -0.4066
 3979TIP3    H136132   5.834   2.652  15.922  2.7532 -0.9659 -2.2524
 3979TIP3    H236133   5.713   2.656  15.831 -0.9773  0.3122  2.3503
 3980TIP3   OH236134   1.142   4.822  15.016 -0.4479  0.0868  0.3302
 3980TIP3    H136135   1.234   4.796  15.011 -1.1568 -2.3829 -1.9587
 3980TIP3    H236136   1.138   4.905  14.968  0.3528 -0.6272 -1.0344
 3981TIP3   OH236137   4.039   6.734  17.103 -0.3691  0.6287  0.5430
 3981TIP3    H136138   3.985   6.729  17.024 -0.7655  1.3886  0.7614
 3981TIP3    H236139   4.022   6.821  17.139  0.8214  0.8028  0.7420
 3982TIP3   OH236140   3.659   6.608  14.604 -0.4459 -0.5917 -0.3760
 3982TIP3    H136141   3.723   6.616  14.676  0.3795  0.1072 -1.1667
 3982TIP3    H236142   3.635   6.698  14.584 -0.3587 -0.7634 -1.2560
 3983TIP3   OH236143   4.365   3.442  15.034 -0.0906  0.3387  0.2062
 3983TIP3    H136144   4.401   3.374  14.977  0.4950  0.4239  0.4630
 3983TIP3    H236145   4.270   3.434  15.025 -0.0931 -1.5814  1.4634
 3984TIP3   OH236146   1.711   6.413  15.406 -0.8632 -0.3394 -0.5335
 3984TIP3    H136147   1.764   6.473  15.354  2.1917 -1.4646  1.0082
 3984TIP3    H236148   1.741   6.326  15.380 -0.3307 -0.9615  1.9011
 3985TIP3   OH236149   4.530   0.033  16.600  0.2318 -0.1316  0.5075
 3985TIP3    H136150   4.511   0.067  16.513 -0.1206 -0.7697  0.3220
 3985TIP3    H236151   4.625   0.026  16.603  0.2225 -0.5407 -0.0046
 3986TIP3   OH236152   5.836   5.685  16.445  0.2223 -0.0792 -0.3356
 3986TIP3    H136153   5.871   5.603  16.408  1.0928  0.7380 -1.3739
 3986TIP3    H236154   5.848   5.674  16.540  1.7939 -0.5338 -0.5500
 3987TIP3   OH236155   4.917   2.684  12.896  0.2204 -0.6056  0.1041
 3987TIP3    H136156   5.001   2.645  12.919  0.8033  0.1015 -0.7419
 3987TIP3    H236157   4.931   2.721  12.809 -0.3222  1.3832  0.8080
 3988TIP3   OH236158   4.028   2.485  16.134  0.4250 -1.0964  0.2012
 3988TIP3    H136159   4.065   2.508  16.049 -0.0010 -0.2017  0.2493
 3988TIP3    H236160   3.935   2.471  16.117 -0.6126  3.2252  1.1305
 3989TIP3   OH236161   5.791   4.684  14.943  0.8593  0.3358 -0.0860
 3989TIP3    H136162   5.810   4.624  14.870  0.3421 -0.2147  0.2210
 3989TIP3    H236163   5.877   4.705  14.979  1.0658 -0.0676 -0.3249
 3990TIP3   OH236164   6.400   0.418  15.718 -0.4371  0.7022 -0.4173
 3990TIP3    H136165   6.438   0.336  15.749 -2.7779 -1.1382 -2.0818
 3990TIP3    H236166   6.448   0.438  15.638 -0.5600  0.3784 -0.5717
 3991TIP3   OH236167   4.218   1.239  15.155 -0.1533 -0.1543 -0.0181
 3991TIP3    H136168   4.175   1.176  15.097 -1.7853  1.3509 -0.5466
 3991TIP3    H236169   4.298   1.263  15.108  0.8864 -2.3050  0.5356
 3992TIP3   OH236170   5.415   6.658  13.432  0.0183  0.0917 -0.2037
 3992TIP3    H136171   5.446   6.745  13.406 -0.4732  0.5893  0.8314
 3992TIP3    H236172   5.361   6.673  13.509  0.6940 -1.2391  0.5808
 3993TIP3   OH236173   4.671   0.100  13.959  0.2063  0.2074  0.3939
 3993TIP3    H136174   4.694   0.187  13.926 -1.0606  0.2952 -0.3168
 3993TIP3    H236175   4.700   0.040  13.890  0.7268  0.0836  0.7116
 3994TIP3   OH236176   3.614   6.526  16.283  0.4938 -0.3812 -0.0085
 3994TIP3    H136177   3.653   6.495  16.365  0.2262 -1.4128 -0.2575
 3994TIP3    H236178   3.590   6.446  16.236 -3.0836  0.1340  0.6462
 3995TIP3   OH236179   4.614   5.612  14.449  0.0209  0.5209  0.8013
 3995TIP3    H136180   4.693   5.663  14.431  0.3059 -0.1273  0.1714
 3995TIP3    H236181   4.547   5.678  14.467 -0.0614  1.2529 -1.7465
 3996TIP3   OH236182   2.678   3.255  13.682 -0.5760  0.1313  0.4173
 3996TIP3    H136183   2.629   3.210  13.750 -1.3113 -1.7869 -1.2650
 3996TIP3    H236184   2.760   3.206  13.675 -0.0423  0.9675  0.6010
 3997TIP3   OH236185   4.821   5.362  16.924 -0.4540  0.3205  0.0683
 3997TIP3    H136186   4.797   5.454  16.928 -1.2934  0.1417 -0.5446
 3997TIP3    H236187   4.776   5.322  16.999 -2.1724 -0.0207 -1.0982
 3998TIP3   OH236188   5.641   0.588  16.661  0.0794 -0.1682 -0.0327
 3998TIP3    H136189   5.709   0.654  16.669 -0.5045  0.2134  3.0892
 3998TIP3    H236190   5.651   0.534  16.739 -1.6719 -1.6099 -0.7433
 3999TIP3   OH236191   4.111   0.527  14.276 -0.4450 -0.0034 -0.1083
 3999TIP3    H136192   4.173   0.454  14.279  0.3667  0.6115 -1.1551
 3999TIP3    H236193   4.029   0.489  14.248 -0.2073 -0.6185  0.0172
 4000TIP3   OH236194   0.494   3.956  16.074 -0.0934  0.3531  0.0694
 4000TIP3    H136195   0.436   3.886  16.105  1.4457 -0.6046  0.9361
 4000TIP3    H236196   0.466   3.973  15.984 -1.1959 -0.6202  0.2036
 4001TIP3   OH236197   4.702   5.125  16.150 -0.5946  0.4132 -0.5099
 4001TIP3    H136198   4.712   5.078  16.066  0.8170 -2.6413  1.1896
 4001TIP3    H236199   4.623   5.087  16.188 -0.6524  1.0351 -0.0003
 4002TIP3   OH236200   5.936   4.734  15.537 -0.1983 -0.3766  0.2647
 4002TIP3    H136201   5.936   4.743  15.632 -2.5879 -2.6220  0.5681
 4002TIP3    H236202   6.004   4.796  15.507  0.8302  0.1648  3.3895
 4003TIP3   OH236203   4.826   5.921  14.793  0.4989 -0.0032 -1.0550
 4003TIP3    H136204   4.840   5.999  14.739 -0.1040  0.4019 -0.6403
 4003TIP3    H236205   4.766   5.950  14.862 -1.0485 -1.2359 -1.8140
 4004TIP3   OH236206   1.538   1.797  15.669 -0.5109 -0.5464 -0.3837
 4004TIP3    H136207   1.508   1.709  15.644 -0.0487 -0.4616 -1.2948
 4004TIP3    H236208   1.471   1.829  15.729 -1.4664 -0.9414 -1.2026
 4005TIP3   OH236209   0.051   5.516  16.039  0.1619  0.1023 -0.0721
 4005TIP3    H136210   0.133   5.550  16.074 -0.9018  1.5094  1.1997
 4005TIP3    H236211   0.015   5.463  16.110  0.0446 -0.6574 -0.6873
 4006TIP3   OH236212   0.181   3.473  16.687 -0.0639 -0.3987 -0.5186
 4006TIP3    H136213   0.214   3.456  16.599 -1.9231 -0.7180 -1.2061
 4006TIP3    H236214   0.221   3.557  16.711 -1.4895  1.0749 -2.7868
 4007TIP3   OH236215   0.962   5.074  16.877 -0.2683  0.6679  0.0096
 4007TIP3    H136216   1.054   5.095  16.860  0.4015 -2.0273 -0.2240
 4007TIP3    H236217   0.962   5.031  16.962 -1.0746 -0.5126 -0.5521
 4008TIP3   OH236218   3.334   0.820  16.370  0.2517 -0.3083  0.0897
 4008TIP3    H136219   3.346   0.729  16.345 -1.1549 -0.3673 -0.4302
 4008TIP3    H236220   3.243   0.825  16.399  0.9974  0.3816  2.5423
 4009TIP3   OH236221   6.183   4.398  16.008  0.0458  0.5015 -0.5478
 4009TIP3    H136222   6.203   4.463  16.075 -0.8604  1.6866 -1.3810
 4009TIP3    H236223   6.262   4.345  16.001  0.6108  1.1640  0.5335
 4010TIP3   OH236224   4.170   1.014  16.118  0.2161  0.1506 -0.1968
 4010TIP3    H136225   4.145   1.099  16.081 -0.7347  0.9983  2.1790
 4010TIP3    H236226   4.256   0.997  16.082 -0.0408  1.5834 -1.6083
 4011TIP3   OH236227   3.477   6.051  17.116  0.2811 -0.2237 -0.9572
 4011TIP3    H136228   3.557   6.097  17.144 -0.4376  0.8734 -0.6383
 4011TIP3    H236229   3.489   6.039  17.022  1.7256 -1.9388 -0.6071
 4012TIP3   OH236230   4.757   2.884  15.590 -0.3747 -0.1284  0.2809
 4012TIP3    H136231   4.763   2.814  15.654  3.4359 -2.3421 -2.0970
 4012TIP3    H236232   4.792   2.961  15.635 -0.7474 -0.7789  1.7407
 4013TIP3   OH236233   5.956   5.830  14.092  0.4398 -0.1379  0.6471
 4013TIP3    H136234   5.901   5.849  14.167  1.1754 -3.0209  2.0700
 4013TIP3    H236235   5.910   5.868  14.018 -0.7652  2.0252  2.4042
 4014TIP3   OH236236   1.506   0.643  13.432 -0.3582 -0.2383  0.5503
 4014TIP3    H136237   1.542   0.668  13.347 -1.7798 -0.3424 -0.1165
 4014TIP3    H236238   1.478   0.726  13.471  1.6301 -0.0032  1.6137
 4015TIP3   OH236239   1.780   1.671  16.281 -0.9499  0.2921 -0.0712
 4015TIP3    H136240   1.834   1.735  16.236 -1.4819 -1.0634 -2.8408
 4015TIP3    H236241   1.828   1.652  16.362 -0.0012  2.9106  0.0728
 4016TIP3   OH236242   1.082   5.518  15.993  0.4380 -0.2567  0.1256
 4016TIP3    H136243   1.042   5.567  16.065  0.1996 -0.7654  0.3476
 4016TIP3    H236244   1.012   5.459  15.963  0.9696 -1.0549  0.4219
 4017TIP3   OH236245   2.064   4.184  15.505  0.5695 -0.8498  0.1022
 4017TIP3    H136246   2.038   4.250  15.569 -0.6285 -2.6780  1.5975
 4017TIP3    H236247   2.136   4.137  15.547  0.9435 -0.9673 -0.6522
 4018TIP3   OH236248   1.991   3.141  14.627  0.0899 -0.2373 -0.2998
 4018TIP3    H136249   2.011   3.230  14.657  0.1318 -0.5202  0.5360
 4018TIP3    H236250   1.906   3.121  14.667  0.4984 -0.9005  0.2744
 4019TIP3   OH236251   0.557   6.648  16.196  0.1401 -0.1227 -0.2010
 4019TIP3    H136252   0.578   6.557  16.215 -1.6867 -0.2976  1.3240
 4019TIP3    H236253   0.523   6.682  16.278  0.8977  1.9997 -0.7035
 4020TIP3   OH236254   4.886   4.265  14.705  0.4726  0.0285  0.1512
 4020TIP3    H136255   4.917   4.316  14.631  0.2942 -0.9416 -0.6280
 4020TIP3    H236256   4.796   4.294  14.718  1.0808  1.5537  1.2455
 4021TIP3   OH236257   3.485   3.663  14.529  0.0793 -0.0679 -0.1414
 4021TIP3    H136258   3.424   3.735  14.516 -0.0026 -0.3369 -1.3488
 4021TIP3    H236259   3.531   3.654  14.445  0.5201 -1.0246  0.1813
 4022TIP3   OH236260   1.638   1.790  14.212 -0.2239  0.1955 -0.1455
 4022TIP3    H136261   1.653   1.883  14.197 -0.8287 -0.0568 -2.9525
 4022TIP3    H236262   1.628   1.753  14.124  3.0079 -3.0609  0.5895
 4023TIP3   OH236263   3.550   0.345  13.132  0.2148 -0.2585 -0.1072
 4023TIP3    H136264   3.607   0.268  13.135  0.2632 -0.2395 -0.5398
 4023TIP3    H236265   3.548   0.370  13.040  0.5572  0.5318  0.0975
 4024TIP3   OH236266   2.670   4.699  16.903 -0.2197 -0.1049 -0.3352
 4024TIP3    H136267   2.655   4.793  16.889  0.1673  0.0460  0.2405
 4024TIP3    H236268   2.733   4.675  16.835 -1.7065 -0.3814 -1.6965
 4025TIP3   OH236269   6.399   0.411  15.256 -0.1372  0.7836 -0.5014
 4025TIP3    H136270   6.406   0.316  15.255 -1.7093  0.5185  2.4038
 4025TIP3    H236271   6.489   0.442  15.267  0.1157 -0.6167  2.0916
 4026TIP3   OH236272   4.604   2.559  13.926 -0.1019 -0.0680 -0.1985
 4026TIP3    H136273   4.549   2.632  13.900  2.0278  1.6413 -0.1452
 4026TIP3    H236274   4.566   2.483  13.881 -3.6326  0.5698  1.3629
 4027TIP3   OH236275   0.181   5.465  16.361 -0.2799  0.0010 -0.6334
 4027TIP3    H136276   0.131   5.386  16.381  0.2584 -0.3490 -0.6543
 4027TIP3    H236277   0.229   5.444  16.280 -0.6549  0.5878 -1.0175
 4028TIP3   OH236278   2.415   0.543  14.202  0.0065  0.1096 -0.4229
 4028TIP3    H136279   2.372   0.592  14.272  1.3768 -0.8938  1.2120
 4028TIP3    H236280   2.347   0.530  14.137 -0.7181  3.1408 -0.4298
 4029TIP3   OH236281   3.162   5.279  14.388  0.1303  0.4203 -0.0412
 4029TIP3    H136282   3.127   5.290  14.300  0.4518 -0.3486 -0.2785
 4029TIP3    H236283   3.179   5.185  14.395 -1.3421  0.2152  1.4059
 4030TIP3   OH236284   6.545   2.703  15.522  0.2862  0.1424 -0.3548
 4030TIP3    H136285   6.462   2.679  15.564 -0.1518  1.5283 -0.3843
 4030TIP3    H236286   6.530   2.684  15.429  0.4378 -0.7527 -0.2016
 4031TIP3   OH236287   2.996   3.257  15.447 -0.0966 -0.4784 -0.4193
 4031TIP3    H136288   3.006   3.179  15.391  0.9890 -0.8000  0.1928
 4031TIP3    H236289   3.043   3.326  15.400  1.0837 -0.8238  0.1996
 4032TIP3   OH236290   1.519   5.238  14.365  0.0591 -0.5080  0.3200
 4032TIP3    H136291   1.591   5.276  14.314  1.5288 -1.7214  1.4246
 4032TIP3    H236292   1.510   5.149  14.330 -1.3420 -0.1820 -0.2120
 4033TIP3   OH236293   0.564   3.968  15.048  0.5160 -0.0270  0.4378
 4033TIP3    H136294   0.635   4.032  15.055  0.0407  0.6855 -0.8984
 4033TIP3    H236295   0.485   4.020  15.064  0.0053  0.0817 -2.0335
 4034TIP3   OH236296   2.159   5.166  15.028  0.4156  0.1814 -0.0293
 4034TIP3    H136297   2.086   5.170  14.966 -0.0070  1.4160  0.5133
 4034TIP3    H236298   2.219   5.102  14.990 -2.3928 -3.4995  1.0982
 4035TIP3   OH236299   6.215   0.874  14.175 -0.6583  0.7551 -0.0682
 4035TIP3    H136300   6.251   0.871  14.086 -4.3233  0.4957 -1.7406
 4035TIP3    H236301   6.225   0.785  14.207  0.3195  0.7456 -0.3468
 4036TIP3   OH236302   2.945   6.567  16.511  0.1557 -0.3317 -0.0525
 4036TIP3    H136303   2.857   6.551  16.543 -1.0396  1.2735 -2.2532
 4036TIP3    H236304   2.937   6.645  16.456  3.1155  0.3370  0.2971
 4037TIP3   OH236305   2.596   1.729  16.520  0.4496 -0.7221 -0.3263
 4037TIP3    H136306   2.597   1.681  16.437  0.0653  0.4146 -1.0053
 4037TIP3    H236307   2.687   1.723  16.551  0.0759 -3.3845  0.5396
 4038TIP3   OH236308   6.089   4.850  15.355 -0.2672  0.4599  0.6599
 4038TIP3    H136309   6.135   4.872  15.274 -0.2362  0.5709  0.7084
 4038TIP3    H236310   6.128   4.907  15.421 -0.4611  0.5403  0.7062
 4039TIP3   OH236311   3.678   3.912  15.194  0.2933  0.4131  0.7296
 4039TIP3    H136312   3.635   3.993  15.168 -0.3682  0.0645  0.7166
 4039TIP3    H236313   3.655   3.850  15.125  1.9357  0.5703  0.0096
 4040TIP3   OH236314   6.491   4.805  15.070  0.3214 -0.0844 -0.1964
 4040TIP3    H136315   6.448   4.837  14.991  1.0245  0.7753 -0.2400
 4040TIP3    H236316   6.424   4.752  15.113 -0.1577 -0.3487 -1.2272
 4041TIP3   OH236317   1.165   0.260  16.960 -0.1203 -0.7751  0.9864
 4041TIP3    H136318   1.231   0.211  17.008  0.8336 -3.2710 -2.5242
 4041TIP3    H236319   1.096   0.196  16.941 -0.3174 -0.0085 -1.1440
 4042TIP3   OH236320   6.134   3.559  15.379 -0.1308  0.3202  0.2559
 4042TIP3    H136321   6.144   3.483  15.436 -0.1149 -0.6499 -1.0126
 4042TIP3    H236322   6.194   3.544  15.306  0.0668  1.6788  0.1032
 4043TIP3   OH236323   0.474   4.487  16.576  0.0501  0.1034  0.1709
 4043TIP3    H136324   0.443   4.420  16.515  0.3540  0.6696 -0.6260
 4043TIP3    H236325   0.501   4.560  16.520  2.0679 -0.0548  0.8746
 4044TIP3   OH236326   5.719   5.853  16.720  0.2223 -0.3440 -0.4797
 4044TIP3    H136327   5.700   5.901  16.640 -0.3209  1.1369  0.4746
 4044TIP3    H236328   5.803   5.889  16.750  0.4410 -0.9115 -0.3923
 4045TIP3   OH236329   1.253   0.283  16.255  0.0560  0.0642  0.3304
 4045TIP3    H136330   1.297   0.318  16.333  0.5458  0.1016  0.0399
 4045TIP3    H236331   1.160   0.296  16.273 -0.0550 -2.4513  2.1347
 4046TIP3   OH236332   5.480   4.448  14.633 -0.3530 -0.4008  0.5573
 4046TIP3    H136333   5.462   4.496  14.714 -0.1550  0.4003  0.1432
 4046TIP3    H236334   5.564   4.406  14.648 -0.0111  0.2679  0.5455
 4047TIP3   OH236335   5.123   6.222  17.111  0.1287 -0.3974 -0.2990
 4047TIP3    H136336   5.041   6.223  17.160 -0.4494 -2.6793 -1.0695
 4047TIP3    H236337   5.098   6.242  17.021  0.3936 -1.0960 -0.5366
 4048TIP3   OH236338   5.670   3.506  14.814  0.1312  0.3308  0.3653
 4048TIP3    H136339   5.744   3.518  14.753 -0.1985  0.6254  0.0123
 4048TIP3    H236340   5.697   3.435  14.871  0.2576 -0.2885 -0.4376
 4049TIP3   OH236341   3.569   0.352  15.770  0.8858  0.6575 -0.3603
 4049TIP3    H136342   3.488   0.304  15.789  2.1275 -1.6989 -0.6502
 4049TIP3    H236343   3.547   0.406  15.695 -0.2344 -0.5954 -0.9912
 4050TIP3   OH236344   2.327   4.037  14.449 -0.0039  0.2531 -0.3321
 4050TIP3    H136345   2.361   4.079  14.528  0.9381  0.6663 -0.9435
 4050TIP3    H236346   2.399   3.983  14.417  0.0645  1.0852 -1.6160
 4051TIP3   OH236347   2.969   1.390  17.009 -0.0769 -0.1539 -0.1223
 4051TIP3    H136348   3.054   1.433  17.021  0.3865 -0.7550 -1.1662
 4051TIP3    H236349   2.911   1.460  16.979  0.5924 -0.1539 -1.4972
 4052TIP3   OH236350   0.153   4.699  16.925  0.1597  0.0074  0.1794
 4052TIP3    H136351   0.201   4.718  17.006 -1.9333 -0.8070  1.6834
 4052TIP3    H236352   0.205   4.631  16.882  2.1438  1.5686 -0.0227
 4053TIP3   OH236353   5.330   0.193  16.336 -0.6996  0.1419 -0.3445
 4053TIP3    H136354   5.283   0.119  16.374  0.9976 -1.4904 -1.2798
 4053TIP3    H236355   5.367   0.159  16.255 -0.7200  2.3364 -1.3355
 4054TIP3   OH236356   0.178   6.182  15.691  0.3128  0.6779 -0.1505
 4054TIP3    H136357   0.234   6.251  15.655  1.1615  0.4755  0.7603
 4054TIP3    H236358   0.222   6.100  15.667  0.5951  0.5269  0.8377
 4055TIP3   OH236359   4.523   3.701  15.108 -0.3360  0.2993 -0.2086
 4055TIP3    H136360   4.477   3.631  15.064  1.0170 -0.2507 -0.7981
 4055TIP3    H236361   4.457   3.770  15.120 -1.3588 -0.5660 -0.7412
 4056TIP3   OH236362   4.405   5.007  15.051  0.5191  0.6465 -0.2505
 4056TIP3    H136363   4.478   4.964  15.007  0.0759  1.6988 -2.1383
 4056TIP3    H236364   4.393   4.958  15.133  0.3542 -2.4709 -1.9903
 4057TIP3   OH236365   5.549   3.713  16.700  0.3461  0.3531 -0.1889
 4057TIP3    H136366   5.482   3.759  16.750 -0.8470 -0.2957 -1.1483
 4057TIP3    H236367   5.619   3.777  16.688  1.0276  0.3405  2.8816
 4058TIP3   OH236368   3.909   1.021  15.567 -0.3317 -0.0449 -0.0331
 4058TIP3    H136369   3.968   0.969  15.513  1.4820  1.8508 -0.0348
 4058TIP3    H236370   3.924   0.990  15.656  0.2361  0.0341 -0.1000
 4059TIP3   OH236371   6.036   0.253  17.002 -0.1682 -0.4992  0.3152
 4059TIP3    H136372   5.959   0.310  17.001  0.1137 -0.1194  0.2760
 4059TIP3    H236373   6.102   0.300  16.951  0.0185 -0.9245  0.1572
 4060TIP3   OH236374   4.443   1.777  14.710  0.3491  0.0259 -0.5272
 4060TIP3    H136375   4.413   1.698  14.756 -1.1433  0.5100 -0.6088
 4060TIP3    H236376   4.532   1.791  14.742  0.3241 -1.1846  0.1485
 4061TIP3   OH236377   3.179   1.256  14.929  0.0784  0.0856  0.7433
 4061TIP3    H136378   3.126   1.329  14.960 -0.2562  0.3883 -0.4714
 4061TIP3    H236379   3.150   1.242  14.839  2.5219  0.7154 -0.2188
 4062TIP3   OH236380   0.950   0.247  15.724  0.8172  0.1012  0.3008
 4062TIP3    H136381   0.865   0.281  15.694  0.0518 -1.1625  0.9681
 4062TIP3    H236382   1.011   0.271  15.654 -0.4295 -0.5289 -1.0458
 4063TIP3   OH236383   1.227   3.496  16.676 -0.5867 -0.1794  0.2085
 4063TIP3    H136384   1.283   3.545  16.737 -1.1957  0.1937  0.4763
 4063TIP3    H236385   1.288   3.449  16.620 -0.0154 -0.3754  0.9879
 4064TIP3   OH236386   1.882   3.520  14.273  0.4141 -0.2743 -0.2689
 4064TIP3    H136387   1.841   3.541  14.189  1.4542  0.7235 -0.5434
 4064TIP3    H236388   1.808   3.500  14.331 -0.2851 -2.1303 -1.6753
 4065TIP3   OH236389   2.390   4.664  16.838 -0.2839  0.3516  0.6234
 4065TIP3    H136390   2.458   4.685  16.901  2.5689  0.4792 -2.2480
 4065TIP3    H236391   2.393   4.569  16.830  0.6530  0.4564 -0.5463
 4066TIP3   OH236392   4.657   4.328  16.436  0.2161 -0.3838 -0.6010
 4066TIP3    H136393   4.687   4.404  16.486 -1.9186 -0.0264  0.2710
 4066TIP3    H236394   4.605   4.366  16.364  1.3106 -0.9712 -1.7360
 4067TIP3   OH236395   3.498   0.362  15.438  0.2755  0.0939 -0.0841
 4067TIP3    H136396   3.500   0.445  15.392  1.1626 -0.6375 -1.4306
 4067TIP3    H236397   3.447   0.304  15.381 -0.7603 -0.1847  1.0714
 4068TIP3   OH236398   5.120   0.635  13.831 -0.1281 -0.0356 -0.1119
 4068TIP3    H136399   5.199   0.688  13.842 -0.2612  1.0047 -3.1553
 4068TIP3    H236400   5.152   0.549  13.804 -0.0231 -0.3584  0.9841
 4069TIP3   OH236401   0.652   2.999  14.895 -0.2743 -0.5601 -0.1325
 4069TIP3    H136402   0.562   3.032  14.888 -0.8733 -2.1479 -0.3235
 4069TIP3    H236403   0.648   2.933  14.964  0.1097 -2.6016 -1.9751
 4070TIP3   OH236404   0.600   3.644  16.005 -0.1624 -0.4150 -0.2778
 4070TIP3    H136405   0.557   3.671  15.924  1.0037 -0.8370 -1.0543
 4070TIP3    H236406   0.640   3.725  16.039 -0.7936 -0.2051 -0.0244
 4071TIP3   OH236407   0.197   5.906  15.831 -0.3711 -0.2034  0.5338
 4071TIP3    H136408   0.131   5.838  15.829 -0.8646  0.2290  1.5388
 4071TIP3    H236409   0.240   5.900  15.745 -1.2803 -0.8980  0.1069
 4072TIP3   OH236410   5.081   5.409  15.879  0.3288 -0.3518  0.1941
 4072TIP3    H136411   5.119   5.449  15.957 -0.5954  2.7978 -0.8032
 4072TIP3    H236412   4.994   5.380  15.906 -0.0387  0.8478  0.3462
 4073TIP3   OH236413   5.141   0.617  17.039  0.0721  0.0086  0.4550
 4073TIP3    H136414   5.109   0.594  16.952  0.2421 -2.6587  1.0202
 4073TIP3    H236415   5.066   0.599  17.097  0.6643 -0.4641  1.0942
 4074TIP3   OH236416   0.264   5.639  13.649  0.6278 -0.0757  0.1174
 4074TIP3    H136417   0.221   5.675  13.727 -0.8979 -0.3566 -0.5423
 4074TIP3    H236418   0.357   5.648  13.666  0.3235  0.1957  1.8172
 4075TIP3   OH236419   0.273   0.582  15.229  0.4173 -0.4463 -0.3077
 4075TIP3    H136420   0.295   0.673  15.246  0.6809 -0.3994 -0.8833
 4075TIP3    H236421   0.357   0.538  15.222  0.2998 -0.9405  0.9796
 4076TIP3   OH236422   1.486   4.945  14.355 -0.0086 -0.0134  0.1571
 4076TIP3    H136423   1.569   4.917  14.317  0.1918  0.9186 -0.0976
 4076TIP3    H236424   1.451   4.866  14.396  0.8767 -0.4732  0.0424
 4077TIP3   OH236425   5.623   4.688  15.567  0.6085 -0.1058 -0.2004
 4077TIP3    H136426   5.575   4.658  15.490  0.9425 -1.1038 -0.0270
 4077TIP3    H236427   5.663   4.771  15.539 -0.8964  0.5770 -0.4565
 4078TIP3   OH236428   4.118   3.153  13.937 -0.4904  0.0249  0.5941
 4078TIP3    H136429   4.144   3.216  13.870  0.3048  0.6393  1.4569
 4078TIP3    H236430   4.091   3.076  13.887  2.2695 -0.4127 -0.4589
 4079TIP3   OH236431   1.888   4.900  15.295 -0.0775  0.0072  0.2178
 4079TIP3    H136432   1.883   4.813  15.256 -1.7882  0.1171  0.1182
 4079TIP3    H236433   1.862   4.960  15.225  0.5179  0.5587  0.4528
 4080TIP3   OH236434   1.790   1.023  16.264 -0.1565 -0.1832 -0.1296
 4080TIP3    H136435   1.879   1.013  16.298 -0.4580  0.3531  0.8600
 4080TIP3    H236436   1.769   0.938  16.224  0.1936 -0.8673  1.1047
 4081TIP3   OH236437   0.509   0.076  17.235  0.3942 -0.0778 -0.1348
 4081TIP3    H136438   0.488   0.142  17.300 -0.5456 -1.1750  0.7377
 4081TIP3    H236439   0.560   0.122  17.169  1.7422  0.9776  1.5637
 4082TIP3   OH236440   6.203   0.360  16.829 -0.2745 -0.0344 -0.5154
 4082TIP3    H136441   6.192   0.345  16.735 -3.0460 -0.6809 -0.1633
 4082TIP3    H236442   6.199   0.455  16.838 -2.4093 -0.0364 -0.8830
 4083TIP3   OH236443   0.683   3.035  14.626  0.1108  0.0067 -0.2152
 4083TIP3    H136444   0.653   2.945  14.618  1.6148 -0.4712 -0.9255
 4083TIP3    H236445   0.676   3.054  14.720  1.6577 -1.5767  0.2815
 4084TIP3   OH236446   1.854   6.185  15.322  0.0950  0.6604  0.0178
 4084TIP3    H136447   1.876   6.224  15.237  0.7994  0.4774  0.1144
 4084TIP3    H236448   1.937   6.150  15.355 -0.2193  0.5310  0.6810
 4085TIP3   OH236449   4.105   4.163  15.303 -0.2643  0.5295  0.5123
 4085TIP3    H136450   4.073   4.171  15.393  1.3491 -0.5488  1.2364
 4085TIP3    H236451   4.050   4.095  15.264 -0.9805  1.0083  0.6683
 4086TIP3   OH236452   4.239   1.746  15.968 -0.0022 -0.5544  0.6043
 4086TIP3    H136453   4.220   1.697  15.888  3.0536 -1.0834  0.0767
 4086TIP3    H236454   4.283   1.826  15.936 -0.0952 -0.0526  1.6997
 4087TIP3   OH236455   6.128   1.378  15.813 -0.3056  0.5256  0.2776
 4087TIP3    H136456   6.154   1.376  15.905  1.5168  3.0902 -0.0759
 4087TIP3    H236457   6.207   1.355  15.765 -0.8199  0.6961 -0.6781
 4088TIP3   OH236458   3.118   4.724  13.910 -0.2474  0.0234  0.1200
 4088TIP3    H136459   3.080   4.648  13.864  0.3697 -0.6227  0.6522
 4088TIP3    H236460   3.212   4.717  13.892 -0.0138 -0.1529  1.3378
 4089TIP3   OH236461   3.808   6.643  13.632 -0.1819  0.2482 -0.3548
 4089TIP3    H136462   3.717   6.656  13.656  0.1743  0.4883  0.9118
 4089TIP3    H236463   3.847   6.730  13.634  0.2172  0.0731 -0.2738
 4090TIP3   OH236464   0.065   2.813  16.524  0.7682 -0.5126  0.1255
 4090TIP3    H136465   0.100   2.901  16.509 -1.5370  0.5005  0.2299
 4090TIP3    H236466   0.036   2.784  16.438  1.1097 -0.9997  0.1704
 4091TIP3   OH236467   3.110   4.942  16.982  0.5098  0.6542  0.1186
 4091TIP3    H136468   3.176   4.931  16.913  1.9751  1.7730  1.2642
 4091TIP3    H236469   3.109   4.858  17.028 -0.6456 -0.1829 -1.3410
 4092TIP3   OH236470   2.605   5.468  15.782 -0.2989 -0.1554 -0.0312
 4092TIP3    H136471   2.586   5.472  15.876 -0.1206 -0.2400  0.0093
 4092TIP3    H236472   2.695   5.499  15.774 -0.6198  0.7318 -0.2813
 4093TIP3   OH236473   2.263   2.200  15.756 -0.0978 -0.3036  0.6902
 4093TIP3    H136474   2.185   2.152  15.783  0.0659 -0.6515  0.5555
 4093TIP3    H236475   2.266   2.191  15.661  0.8025 -1.3932  0.8046
 4094TIP3   OH236476   0.798   3.050  16.675  0.1393 -0.5574  0.5651
 4094TIP3    H136477   0.835   3.004  16.750  1.4241  0.8420  0.8424
 4094TIP3    H236478   0.718   3.090  16.709  0.4579 -0.3320  1.0663
 4095TIP3   OH236479   1.026   1.496  14.972 -0.5942  0.2608  0.1386
 4095TIP3    H136480   1.120   1.480  14.961 -0.2375  1.3091  1.3260
 4095TIP3    H236481   1.000   1.543  14.893  0.3443  1.6566  0.6040
 4096TIP3   OH236482   5.983   2.678  14.934  0.0189  0.3640 -0.4085
 4096TIP3    H136483   5.918   2.720  14.990 -1.3929 -1.6879 -0.3831
 4096TIP3    H236484   5.964   2.584  14.941  1.2493 -0.1245 -2.5660
 4097TIP3   OH236485   4.998   6.375  16.061 -0.2726 -0.3454  0.6017
 4097TIP3    H136486   5.010   6.470  16.064 -0.5939 -0.2568 -0.5405
 4097TIP3    H236487   4.903   6.363  16.069 -0.4488 -0.4391 -1.1862
 4098TIP3   OH236488   3.938   0.824  14.488 -0.3805  0.1423  0.0008
 4098TIP3    H136489   3.915   0.917  14.489 -0.6490  0.0705  0.5347
 4098TIP3    H236490   3.925   0.798  14.396 -1.9174  0.2440  0.1577
 4099TIP3   OH236491   4.965   5.582  14.237 -0.3042  0.3688  0.7776
 4099TIP3    H136492   5.054   5.547  14.241  0.6775  2.6731  0.7632
 4099TIP3    H236493   4.929   5.565  14.324  0.8107  0.9456  1.3789
 4100TIP3   OH236494   2.963   0.096  14.216  0.0448 -0.0218 -0.2242
 4100TIP3    H136495   2.887   0.117  14.160  0.3790  1.0669 -0.2864
 4100TIP3    H236496   3.024   0.051  14.157  0.3944  1.1194 -0.7593
 4101TIP3   OH236497   2.127   2.055  15.244 -1.4509 -0.4590  0.1603
 4101TIP3    H136498   2.167   2.142  15.246  0.5250 -1.2757  2.5723
 4101TIP3    H236499   2.036   2.069  15.269 -1.4905  0.9893 -0.6717
 4102TIP3   OH236500   2.336   3.113  16.657  0.0552  0.2468  0.0993
 4102TIP3    H136501   2.409   3.052  16.647  0.0502  0.4358 -1.2885
 4102TIP3    H236502   2.258   3.059  16.645 -0.0128  0.2209  0.6250
 4103TIP3   OH236503   3.206   2.728  16.244  0.2116  0.4829  0.6638
 4103TIP3    H136504   3.213   2.816  16.282 -0.0838  0.8728 -0.1683
 4103TIP3    H236505   3.128   2.732  16.189  0.3457 -0.2287  0.4199
 4104TIP3   OH236506   2.677   5.802  15.464  0.3706  0.3802  0.3499
 4104TIP3    H136507   2.715   5.886  15.439  0.5127  0.4721  0.8615
 4104TIP3    H236508   2.594   5.824  15.506  0.5547  0.2911  0.7709
 4105TIP3   OH236509   3.008   1.689  16.768  0.0060 -0.1788 -0.0887
 4105TIP3    H136510   2.962   1.679  16.851 -0.0043  2.7355  0.3334
 4105TIP3    H236511   3.010   1.600  16.731 -2.2182 -1.1167  1.8118
 4106TIP3   OH236512   6.616   2.966  16.413  0.2217 -0.4961 -0.4553
 4106TIP3    H136513   6.582   2.876  16.419 -0.4685 -0.2234 -0.2967
 4106TIP3    H236514   6.710   2.955  16.427  0.5960 -1.5329 -3.1937
 4107TIP3   OH236515   3.645   6.689  16.592  0.1138  0.0353 -0.1072
 4107TIP3    H136516   3.579   6.683  16.662 -2.3238 -1.1144 -2.3316
 4107TIP3    H236517   3.652   6.600  16.558  0.3008  0.7656 -2.0896
 4108TIP3   OH236518   1.463   4.014  15.912  0.7582 -0.3480 -0.1966
 4108TIP3    H136519   1.517   4.009  15.991 -0.6124  0.0937  0.7958
 4108TIP3    H236520   1.478   4.103  15.878 -1.4203  0.8287  1.6646
 4109TIP3   OH236521   6.526   3.257  14.525  0.4639 -0.4660 -0.4135
 4109TIP3    H136522   6.444   3.231  14.484 -0.2211 -1.1466  1.2758
 4109TIP3    H236523   6.515   3.350  14.544  0.4225 -0.3644 -0.9223
 4110TIP3   OH236524   5.155   4.738  16.857 -0.4326 -0.6801 -0.5585
 4110TIP3    H136525   5.146   4.679  16.782 -0.2133  0.9007 -1.8771
 4110TIP3    H236526   5.208   4.689  16.920 -2.3838 -2.8595 -0.4875
 4111TIP3   OH236527   3.953   5.786  13.996  0.4575 -0.5498  0.1258
 4111TIP3    H136528   3.915   5.850  14.058  2.2911  0.7195  0.0027
 4111TIP3    H236529   4.041   5.771  14.029  0.6800 -1.6102 -0.9189
 4112TIP3   OH236530   3.897   0.498  16.387  0.3088  0.3179 -0.3193
 4112TIP3    H136531   3.972   0.555  16.367 -0.7401  1.9186  0.1583
 4112TIP3    H236532   3.935   0.410  16.392  2.1431  1.0692 -0.1950
 4113TIP3   OH236533   1.793   0.803  16.039 -0.8725 -0.0363  0.3934
 4113TIP3    H136534   1.760   0.732  15.983  2.6413 -2.4022  1.0144
 4113TIP3    H236535   1.804   0.877  15.979 -1.6403 -0.9837 -0.9911
 4114TIP3   OH236536   5.603   5.516  16.375 -0.2752 -0.5610 -0.5283
 4114TIP3    H136537   5.695   5.513  16.403  0.2035 -1.0557 -2.0459
 4114TIP3    H236538   5.553   5.520  16.457  1.1046  0.0909  0.3167
 4115TIP3   OH236539   3.167   2.356  16.193 -0.0826 -0.1678  0.5498
 4115TIP3    H136540   3.120   2.431  16.229 -0.1424 -0.1248  0.3845
 4115TIP3    H236541   3.114   2.281  16.217 -0.2536 -0.1169  0.3401
 4116TIP3   OH236542   4.138   3.949  14.779 -0.3966  0.2400  0.4445
 4116TIP3    H136543   4.208   3.930  14.717 -0.9107  0.4978 -0.2355
 4116TIP3    H236544   4.061   3.906  14.741 -0.5525 -0.2404  1.3011
 4117TIP3   OH236545   6.028   2.312  14.175 -0.5325  0.7436  0.7927
 4117TIP3    H136546   5.989   2.267  14.249 -0.5554  1.9360  1.5440
 4117TIP3    H236547   5.955   2.360  14.135 -0.4332  0.4698  0.2810
 4118TIP3   OH236548   1.934   2.783  16.442  0.0391  0.1017  0.2382
 4118TIP3    H136549   1.897   2.695  16.434  0.9500 -0.2041 -0.9969
 4118TIP3    H236550   1.864   2.836  16.478 -0.3993 -1.2174  1.4036
 4119TIP3   OH236551   1.519   2.766  15.131  0.0590  0.2344 -0.0757
 4119TIP3    H136552   1.479   2.851  15.146  1.3217  0.5596  1.7041
 4119TIP3    H236553   1.448   2.703  15.145 -0.5656  0.9182 -0.1274
 4120TIP3   OH236554   5.343   3.823  13.312 -0.1383  0.2394 -0.0843
 4120TIP3    H136555   5.434   3.795  13.314 -0.1985 -0.1535 -1.6679
 4120TIP3    H236556   5.297   3.752  13.268 -0.7250  1.6408 -1.8531
 4121TIP3   OH236557   4.878   1.492  14.898  0.0733 -0.7225  0.3522
 4121TIP3    H136558   4.915   1.531  14.819  1.7824 -1.8611  0.5411
 4121TIP3    H236559   4.922   1.536  14.970 -1.2508  0.0914  0.7040
 4122TIP3   OH236560   2.250   5.884  15.368  0.5929  0.2726  0.5408
 4122TIP3    H136561   2.181   5.843  15.316 -0.0889 -0.0388  1.6450
 4122TIP3    H236562   2.332   5.847  15.333  0.1267 -0.2776  0.0103
 4123TIP3   OH236563   4.335   3.016  15.141  0.4616 -0.0811  0.6385
 4123TIP3    H136564   4.425   3.029  15.111  0.6078  1.5321  1.7071
 4123TIP3    H236565   4.332   2.924  15.167  1.1875 -0.7173 -1.3279
 4124TIP3   OH236566   6.410   0.857  15.181 -0.5809 -0.2982 -0.2474
 4124TIP3    H136567   6.400   0.831  15.272 -0.2950 -1.1184 -0.4426
 4124TIP3    H236568   6.482   0.921  15.182  0.5146 -1.4924 -0.0909
 4125TIP3   OH236569   2.696   3.166  16.565 -0.1710  0.2147 -0.0923
 4125TIP3    H136570   2.690   3.226  16.639 -0.5495 -2.2575  1.9908
 4125TIP3    H236571   2.787   3.136  16.566 -0.8470 -1.9802  1.2499
 4126TIP3   OH236572   5.219   1.281  17.013  0.5529 -0.0203 -0.4364
 4126TIP3    H136573   5.187   1.340  16.944 -1.3591 -0.0041  0.4077
 4126TIP3    H236574   5.310   1.307  17.026  0.2121  1.6905 -1.1771
 4127TIP3   OH236575   5.326   3.042  13.699 -0.0053  0.5509  0.1865
 4127TIP3    H136576   5.303   2.984  13.627  0.6047  0.2879  0.1930
 4127TIP3    H236577   5.372   3.115  13.656  1.9559 -0.4549  0.4286
 4128TIP3   OH236578   2.811   2.915  15.165 -0.0931 -0.1937  0.1936
 4128TIP3    H136579   2.754   2.948  15.095  0.0187 -1.4157 -0.4899
 4128TIP3    H236580   2.751   2.898  15.239 -0.4764 -0.5593 -0.1964
 4129TIP3   OH236581   0.835   5.676  14.540 -0.3653 -0.0478 -0.3427
 4129TIP3    H136582   0.771   5.690  14.470  0.2361 -2.0479 -1.3772
 4129TIP3    H236583   0.856   5.582  14.535  0.2960 -0.0974  2.0294
 4130TIP3   OH236584   2.295   2.971  16.382 -0.6720  0.7328  0.3888
 4130TIP3    H136585   2.341   2.888  16.372  0.6499  1.4231  0.4655
 4130TIP3    H236586   2.259   2.968  16.471 -0.6885  0.2069  0.3638
 4131TIP3   OH236587   4.326   1.939  15.369 -0.1615 -0.2301 -0.0299
 4131TIP3    H136588   4.421   1.929  15.364 -0.1530 -0.2820  0.2033
 4131TIP3    H236589   4.299   1.877  15.437 -0.4596 -0.8201 -0.6745
 4132TIP3   OH236590   6.524   4.956  16.804 -0.2848 -0.0542 -0.1968
 4132TIP3    H136591   6.537   5.050  16.790  1.2438 -0.4893 -2.0699
 4132TIP3    H236592   6.486   4.924  16.722 -1.7187 -0.9513  0.7631
 4133TIP3   OH236593   0.758   5.772  15.819 -0.2086 -0.2372  0.1962
 4133TIP3    H136594   0.686   5.756  15.759  0.2340  3.3599 -1.5560
 4133TIP3    H236595   0.717   5.813  15.896 -0.2189  0.2823 -0.0841
 4134TIP3   OH236596   3.444   4.481  16.708 -0.2954 -0.0364  0.5162
 4134TIP3    H136597   3.492   4.399  16.709  0.5258  0.4328  0.3096
 4134TIP3    H236598   3.369   4.465  16.651  1.2322  0.1231 -1.6156
 4135TIP3   OH236599   2.974   1.996  14.615  0.1011  0.2978  0.5963
 4135TIP3    H136600   3.002   1.943  14.540  0.5861 -1.2676  1.8371
 4135TIP3    H236601   2.880   1.979  14.622 -0.0968  1.0420 -0.0884
 4136TIP3   OH236602   2.848   3.207  14.636  0.0174  0.2957 -0.5119
 4136TIP3    H136603   2.872   3.165  14.719 -1.8403  0.6135  0.2486
 4136TIP3    H236604   2.929   3.247  14.605  1.0903 -1.0764  0.3861
 4137TIP3   OH236605   5.232   3.993  14.514 -0.2483 -0.4410  0.3135
 4137TIP3    H136606   5.252   4.063  14.577 -2.0283 -0.1179  0.5832
 4137TIP3    H236607   5.175   4.035  14.450  1.9968 -0.6010 -1.9660
 4138TIP3   OH236608   6.602   1.189  16.843 -0.1156 -0.0455 -0.1708
 4138TIP3    H136609   6.530   1.132  16.869  0.7162 -1.0411  0.0293
 4138TIP3    H236610   6.566   1.277  16.848 -1.2106 -0.4967  0.2620
 4139TIP3   OH236611   6.717   1.417  15.540  0.3103 -0.5698 -0.2614
 4139TIP3    H136612   6.692   1.328  15.562 -2.1176  0.1064 -0.0064
 4139TIP3    H236613   6.722   1.462  15.625  0.7166 -0.2558 -0.4447
 4140TIP3   OH236614   2.124   1.790  15.323  0.4723 -0.6025 -0.3462
 4140TIP3    H136615   2.137   1.874  15.281  1.4215 -0.8718 -0.6359
 4140TIP3    H236616   2.033   1.767  15.307  0.1715  0.4268 -0.1371
 4141TIP3   OH236617   1.110   3.580  16.051  0.3784 -0.0748  0.2083
 4141TIP3    H136618   1.086   3.671  16.034 -1.9433 -0.5638  0.5753
 4141TIP3    H236619   1.153   3.582  16.137 -0.4020  0.5841  0.5949
 4142TIP3   OH236620   5.820   1.845   6.947  0.6964  0.6007  0.3251
 4142TIP3    H136621   5.840   1.921   7.001 -1.5897  0.9870  0.7320
 4142TIP3    H236622   5.867   1.773   6.989  1.9811  1.5731  0.5910
 4143TIP3   OH236623   0.980   3.360  14.125  0.6153  0.0244 -0.0404
 4143TIP3    H136624   1.036   3.432  14.153  0.5799 -0.4913  1.4096
 4143TIP3    H236625   1.028   3.319  14.052  0.4976  1.6553 -1.0843
 4144TIP3   OH236626   5.238   2.456  16.311 -0.0375 -0.3875 -0.3005
 4144TIP3    H136627   5.206   2.445  16.400  1.2741  0.7947  0.3493
 4144TIP3    H236628   5.238   2.367  16.274  0.8659 -1.1420  1.4060
 4145TIP3   OH236629   2.312   0.243  16.566 -0.4531 -0.2995 -0.5358
 4145TIP3    H136630   2.217   0.244  16.563 -0.5184  1.3637  0.5626
 4145TIP3    H236631   2.334   0.260  16.658  0.9112 -1.0504 -0.6862
 4146TIP3   OH236632   6.223   2.738  15.766 -0.2756  0.5812  0.2758
 4146TIP3    H136633   6.248   2.653  15.801  0.0457  0.4697 -0.2113
 4146TIP3    H236634   6.196   2.788  15.843  0.8616  0.5030  0.7559
 4147TIP3   OH236635   5.017   2.917  14.063  0.3957 -0.4268  0.4586
 4147TIP3    H136636   4.959   2.982  14.022 -0.1478 -1.3653 -0.3000
 4147TIP3    H236637   5.038   2.856  13.993  1.5232 -0.6485  0.9765
 4148TIP3   OH236638   5.878   5.270  14.431  0.3108 -0.3309 -0.4509
 4148TIP3    H136639   5.808   5.323  14.391  0.6472  1.2086  0.8783
 4148TIP3    H236640   5.855   5.180  14.410 -2.5181  0.0658  0.5894
 4149TIP3   OH236641   5.087   1.424  16.841 -0.2326  0.8803  0.0952
 4149TIP3    H136642   5.028   1.405  16.768 -0.5457  1.5160  0.1776
 4149TIP3    H236643   5.038   1.485  16.896 -1.0969 -1.5992  2.2681
 4150TIP3   OH236644   4.270   3.255  14.346 -0.1689  0.1328  0.6361
 4150TIP3    H136645   4.221   3.174  14.335 -2.0258  1.4347 -1.3807
 4150TIP3    H236646   4.327   3.260  14.269 -0.8070  1.1926  0.2156
 4151TIP3   OH236647   0.663   5.235  14.997  0.0133  0.2866  0.2690
 4151TIP3    H136648   0.602   5.271  14.933  0.8330  0.0287 -0.6748
 4151TIP3    H236649   0.743   5.217  14.948  1.0596  1.1215  1.5830
 4152TIP3   OH236650   1.529   2.287  13.856  0.0926 -0.1878  0.3474
 4152TIP3    H136651   1.614   2.316  13.888  1.3310 -3.5891  0.4785
 4152TIP3    H236652   1.470   2.295  13.931  0.6183  0.8695  0.6580
 4153TIP3   OH236653   6.695   3.978  16.709 -0.5947  0.0819 -0.2450
 4153TIP3    H136654   6.611   4.018  16.730 -0.6801 -0.5513  0.7282
 4153TIP3    H236655   6.753   4.009  16.779 -0.1311  0.1680 -0.6684
 4154TIP3   OH236656   1.109   3.113  16.676  0.3479 -0.4018 -0.4420
 4154TIP3    H136657   1.043   3.053  16.712 -0.6609 -0.0863 -1.6842
 4154TIP3    H236658   1.157   3.144  16.753 -0.8340 -0.7876  0.4981
 4155TIP3   OH236659   1.842   2.811  14.480 -0.8185 -0.2243  0.2703
 4155TIP3    H136660   1.752   2.829  14.455 -0.4150 -0.4057 -1.4576
 4155TIP3    H236661   1.893   2.826  14.400  0.7154  0.0819  1.2620
 4156TIP3   OH236662   1.491   0.138  16.648  0.7310  0.0491  0.4271
 4156TIP3    H136663   1.445   0.058  16.674 -0.9196  0.3738 -1.2501
 4156TIP3    H236664   1.480   0.197  16.722  0.1873 -0.5793  0.8597
 4157TIP3   OH236665   6.705   6.558  16.455 -0.3938 -0.2510  0.2149
 4157TIP3    H136666   6.737   6.507  16.381 -2.2763  0.7421 -1.3946
 4157TIP3    H236667   6.662   6.493  16.512  0.5496 -0.9404  0.1657
 4158TIP3   OH236668   6.026   1.863  14.796  0.1050  0.2141 -0.4169
 4158TIP3    H136669   5.993   1.790  14.848 -0.0709  0.1535 -0.6149
 4158TIP3    H236670   5.980   1.939  14.831  0.4603  0.2683 -0.0528
 4159TIP3   OH236671   4.120   2.554  14.508 -0.3114  0.3221 -0.0543
 4159TIP3    H136672   4.114   2.615  14.435 -0.9412 -0.8498 -1.0153
 4159TIP3    H236673   4.100   2.607  14.585 -0.1318  1.4681 -0.7791
 4160TIP3   OH236674   5.102   5.203  16.356  0.2589  0.6748 -0.4255
 4160TIP3    H136675   5.136   5.187  16.444  1.7112 -0.9537 -1.2242
 4160TIP3    H236676   5.037   5.133  16.342  2.9054 -1.6741 -2.0267
 4161TIP3   OH236677   6.105   4.106  15.732 -0.1977  0.0897 -0.1495
 4161TIP3    H136678   6.185   4.059  15.708 -0.0261  0.2493  0.1032
 4161TIP3    H236679   6.039   4.075  15.670 -0.1149 -0.5605  0.0844
 4162TIP3   OH236680   4.934   3.256  16.671 -0.4821  0.0457  0.0695
 4162TIP3    H136681   4.958   3.164  16.681  0.4028  0.3371  0.7551
 4162TIP3    H236682   4.876   3.258  16.595  1.1795 -0.7927 -1.2789
 4163TIP3   OH236683   2.407   4.488  16.525 -0.5343 -0.0537 -0.4463
 4163TIP3    H136684   2.477   4.467  16.586  0.0051 -0.8043 -1.3054
 4163TIP3    H236685   2.345   4.540  16.577 -0.7183 -1.7294  1.0918
 4164TIP3   OH236686   0.860   3.532  16.311 -0.0147  0.0834  0.0453
 4164TIP3    H136687   0.765   3.531  16.323 -0.0240 -0.4078 -0.0796
 4164TIP3    H236688   0.893   3.474  16.380 -0.0656 -2.8760 -2.2256
 4165TIP3   OH236689   1.814   2.475  16.741  0.3481  0.1066 -0.2081
 4165TIP3    H136690   1.804   2.380  16.728 -1.5719  0.3307 -0.6966
 4165TIP3    H236691   1.867   2.483  16.820  0.4936 -1.3669 -0.1246
 4166TIP3   OH236692   2.503   4.732  15.259 -0.5494  0.2567 -0.0731
 4166TIP3    H136693   2.533   4.682  15.335  0.2657  0.8155 -0.0264
 4166TIP3    H236694   2.571   4.797  15.244 -1.4599  1.1762 -0.3155
 4167TIP3   OH236695   5.793   4.039  14.331 -0.4002  0.3440  0.1415
 4167TIP3    H136696   5.732   3.971  14.360  0.9115 -1.2926 -0.7528
 4167TIP3    H236697   5.863   3.991  14.287  0.9942  2.2445  0.1776
 4168TIP3   OH236698   2.135   4.498  16.879  0.6834 -0.2646  0.2743
 4168TIP3    H136699   2.123   4.592  16.865 -2.3064 -0.5920  0.0198
 4168TIP3    H236700   2.115   4.484  16.971  0.5844 -0.7326  0.1853
 4169TIP3   OH236701   4.629   1.341  14.201  0.5325 -0.2351 -0.8296
 4169TIP3    H136702   4.583   1.318  14.282 -1.2651  0.4176 -1.6202
 4169TIP3    H236703   4.700   1.278  14.195  2.2203  1.0913  2.4540
 4170TIP3   OH236704   4.886   0.354  14.303 -0.5566 -0.2982  0.1878
 4170TIP3    H136705   4.907   0.366  14.210 -0.9927 -0.8908  0.0070
 4170TIP3    H236706   4.867   0.443  14.334 -1.7160 -0.2327 -0.6299
 4171TIP3   OH236707   4.724   5.046  14.015  0.0422 -0.2019 -0.4852
 4171TIP3    H136708   4.647   5.012  14.059 -1.0574  0.0735 -2.1129
 4171TIP3    H236709   4.748   4.977  13.952  0.6063  0.0847 -0.5934
 4172TIP3   OH236710   6.555   1.052  16.020  0.7566  0.4913  0.2755
 4172TIP3    H136711   6.649   1.037  16.013  0.6517 -0.2399  0.3563
 4172TIP3    H236712   6.548   1.136  16.067  1.3740 -0.3457  1.9637
 4173TIP3   OH236713   0.927   1.178  16.448  0.2382  0.0199  0.7658
 4173TIP3    H136714   0.893   1.089  16.456 -1.2340  0.3523 -1.1137
 4173TIP3    H236715   0.898   1.222  16.528 -0.9234 -0.6203  0.7201
 4174TIP3   OH236716   5.377   0.210  17.007  0.8395 -0.2913  0.2907
 4174TIP3    H136717   5.375   0.306  17.011 -0.3113 -0.0858 -2.6036
 4174TIP3    H236718   5.289   0.183  17.033  0.8868 -0.4862  0.2496
 4175TIP3   OH236719   6.235   1.675  15.244  0.1104  0.4310  0.0819
 4175TIP3    H136720   6.304   1.692  15.309  1.2061 -0.2690 -0.8699
 4175TIP3    H236721   6.248   1.584  15.218  0.1490  0.9087 -1.6488
 4176TIP3   OH236722   0.853   5.235  15.893  0.3939 -0.0283  0.1065
 4176TIP3    H136723   0.854   5.283  15.976 -0.1942  1.4640 -0.6945
 4176TIP3    H236724   0.834   5.303  15.827  0.2597 -1.2664 -1.1732
 4177TIP3   OH236725   1.237   0.552  13.407  0.2449  0.3645 -0.2606
 4177TIP3    H136726   1.216   0.645  13.400 -1.1447  0.5407  3.5238
 4177TIP3    H236727   1.333   0.549  13.409  0.3900  1.3721 -2.6528
 4178TIP3   OH236728   5.059   5.217  14.245  0.8708 -0.4952 -0.1766
 4178TIP3    H136729   5.129   5.214  14.309  0.3527 -0.6458  0.3884
 4178TIP3    H236730   4.989   5.163  14.282  0.1104  0.3653 -0.3145
 4179TIP3   OH236731   1.851   1.728  15.048  0.1622  0.3661  0.3899
 4179TIP3    H136732   1.853   1.731  15.144  1.4543 -1.3502  0.4711
 4179TIP3    H236733   1.781   1.788  15.023 -1.8640 -0.9679  2.5075
 4180TIP3   OH236734   4.101   3.685  17.080 -0.2767 -0.4479  0.4857
 4180TIP3    H136735   4.083   3.593  17.097 -1.7120 -0.6018 -1.6017
 4180TIP3    H236736   4.023   3.731  17.110  0.1538  0.0473  0.8805
 4181TIP3   OH236737   2.030   5.243  14.076  0.1791 -0.0344 -0.2263
 4181TIP3    H136738   1.994   5.331  14.079 -0.6320 -0.3706  0.4673
 4181TIP3    H236739   2.068   5.229  14.163  0.3653 -0.3485 -0.3529
 4182TIP3   OH236740   3.789   0.240  16.632 -0.3155  0.1689  0.4089
 4182TIP3    H136741   3.720   0.173  16.627 -2.1749  2.0166 -0.6407
 4182TIP3    H236742   3.831   0.237  16.547  0.6139 -0.6322  0.8828
 4183TIP3   OH236743   2.522   3.265  13.459  0.4576 -0.2920  0.1733
 4183TIP3    H136744   2.434   3.274  13.496  0.6484  1.5651  0.2465
 4183TIP3    H236745   2.581   3.284  13.531  0.8752  0.4368 -0.3439
 4184TIP3   OH236746   3.563   3.608  16.175 -0.4003  0.5517  0.0538
 4184TIP3    H136747   3.622   3.550  16.127 -0.2415  0.7968 -0.0442
 4184TIP3    H236748   3.562   3.689  16.125  0.2426  1.0232  0.7859
 4185TIP3   OH236749   0.504   5.599  15.398 -0.3087  0.5261 -0.0087
 4185TIP3    H136750   0.596   5.598  15.371 -0.2566 -0.8087  0.1309
 4185TIP3    H236751   0.460   5.651  15.331  0.3594  0.1533 -0.7520
 4186TIP3   OH236752   5.365   0.919  16.348 -0.2480  0.4418  0.2587
 4186TIP3    H136753   5.390   0.835  16.309  0.4427  0.9366 -0.4034
 4186TIP3    H236754   5.430   0.933  16.418  0.6178  1.1434 -0.6530
 4187TIP3   OH236755   5.759   1.606  15.395  0.4591  0.6668  0.4494
 4187TIP3    H136756   5.805   1.595  15.479  0.2715  0.4992  0.5314
 4187TIP3    H236757   5.780   1.527  15.346 -0.5200  0.1279  0.8619
 4188TIP3   OH236758   0.542   6.286  15.104 -0.6521 -0.8153 -0.0393
 4188TIP3    H136759   0.537   6.376  15.074 -1.8876 -1.2410 -1.1802
 4188TIP3    H236760   0.561   6.235  15.026 -0.2720 -1.5949  0.5440
 4189TIP3   OH236761   1.787   5.730  14.128  0.0554 -0.2307 -0.5117
 4189TIP3    H136762   1.803   5.814  14.085  0.3952  0.2953  0.6223
 4189TIP3    H236763   1.698   5.737  14.162  0.0741 -0.3529 -0.4380
 4190TIP3   OH236764   2.176   4.782  14.779  0.4974  0.6091 -0.1695
 4190TIP3    H136765   2.235   4.735  14.720 -0.5225 -0.6374 -0.2224
 4190TIP3    H236766   2.099   4.802  14.726  0.3944  1.2483  0.2077
 4191TIP3   OH236767   2.793   4.539  16.212  0.1326 -0.0686 -0.2721
 4191TIP3    H136768   2.821   4.449  16.228  0.9092  0.0729 -0.7915
 4191TIP3    H236769   2.874   4.587  16.198 -0.3252  0.4934 -1.0936
 4192TIP3   OH236770   5.591   0.665  14.850  0.4129 -0.2972  0.2059
 4192TIP3    H136771   5.550   0.610  14.783  1.4313 -1.3843  0.4325
 4192TIP3    H236772   5.682   0.672  14.823  0.6806 -0.1624  1.1019
 4193TIP3   OH236773   4.605   2.666  16.043  0.2362  0.2277 -0.3016
 4193TIP3    H136774   4.515   2.667  16.011  0.3371  1.4768 -0.6229
 4193TIP3    H236775   4.601   2.620  16.127 -0.7958  0.6883 -0.0798
 4194TIP3   OH236776   5.163   5.449  16.694 -0.4240 -0.2136 -0.3936
 4194TIP3    H136777   5.174   5.420  16.784  0.4044 -0.1429 -0.4651
 4194TIP3    H236778   5.107   5.527  16.700  2.1176  1.6993  0.4152
 4195TIP3   OH236779   4.318   5.062  16.904 -0.1911 -0.5394  0.0252
 4195TIP3    H136780   4.314   5.032  16.813  0.6433 -0.6074  0.0019
 4195TIP3    H236781   4.231   5.044  16.939 -0.7598  0.1537 -0.9613
 4196TIP3   OH236782   5.991   1.592  15.700  0.0647 -0.0349  0.3013
 4196TIP3    H136783   6.048   1.527  15.739 -0.4266  0.0487  1.2008
 4196TIP3    H236784   6.046   1.670  15.692  0.6002 -0.4930 -0.6080
 4197TIP3   OH236785   5.801   3.209  15.910 -0.3307 -0.1329  0.1468
 4197TIP3    H136786   5.710   3.181  15.920 -0.4688  0.7818  1.7368
 4197TIP3    H236787   5.829   3.230  15.998  1.0827  0.6647 -0.4664
 4198TIP3   OH236788   4.114   3.740  16.653 -0.2175 -1.1157 -1.0000
 4198TIP3    H136789   4.180   3.739  16.584  0.9523 -2.5172  0.0729
 4198TIP3    H236790   4.031   3.751  16.607  0.6752 -0.0570 -2.4440
 4199TIP3   OH236791   4.972   4.324  15.898 -0.3232  0.0501 -0.1067
 4199TIP3    H136792   4.952   4.243  15.945 -3.5629  1.8221  2.0335
 4199TIP3    H236793   4.984   4.389  15.967  0.0646  1.7860 -1.7291
 4200TIP3   OH236794   0.155   2.424  14.466  0.3606 -0.1003 -0.3307
 4200TIP3    H136795   0.242   2.386  14.481  0.4924  0.7205  1.2006
 4200TIP3    H236796   0.124   2.383  14.385  1.0907 -2.3294  0.4629
 4201TIP3   OH236797   2.584   4.259  15.922 -0.3751 -0.4815  0.0375
 4201TIP3    H136798   2.623   4.254  15.834  1.6255  1.2343  0.7478
 4201TIP3    H236799   2.614   4.179  15.966  1.3633  0.1784  0.1433
 4202TIP3   OH236800   4.460   3.765  15.778  0.3772 -0.4039  0.1171
 4202TIP3    H136801   4.393   3.718  15.827  0.5139 -0.4612  0.2533
 4202TIP3    H236802   4.414   3.838  15.736  0.6078  1.0079  2.1513
 4203TIP3   OH236803   6.721   3.733  15.641  0.1685  0.0635 -0.6434
 4203TIP3    H136804   6.720   3.657  15.583  1.5067 -0.1585 -0.3999
 4203TIP3    H236805   6.713   3.808  15.582 -1.0383 -0.2274 -0.8936
 4204TIP3   OH236806   4.564   3.006  16.731  0.2202 -0.0625 -0.3481
 4204TIP3    H136807   4.562   3.099  16.706  1.3183 -0.2432 -1.1813
 4204TIP3    H236808   4.641   2.998  16.787  1.6070 -0.9036 -2.2645
 4205TIP3   OH236809   2.479   2.317  15.860 -0.2887 -0.4707 -0.0366
 4205TIP3    H136810   2.393   2.276  15.853 -1.0346  0.9931  0.1660
 4205TIP3    H236811   2.477   2.390  15.797  1.2587 -1.1310 -0.9262
 4206TIP3   OH236812   4.786   1.122  14.235 -0.0561  0.1498 -0.3460
 4206TIP3    H136813   4.875   1.153  14.253 -0.4010  1.4295 -0.7590
 4206TIP3    H236814   4.798   1.035  14.198  0.9080 -0.6026  1.5689
 4207TIP3   OH236815   4.146   5.241  14.723  0.1921 -0.5259  0.1141
 4207TIP3    H136816   4.177   5.278  14.806  0.9521  0.4580 -0.5680
 4207TIP3    H236817   4.088   5.308  14.687  0.7333 -0.4461 -0.6454
 4208TIP3   OH236818   0.501   2.094  16.424 -0.1721  0.1269 -0.4496
 4208TIP3    H136819   0.464   2.085  16.511 -2.4783  2.1885 -1.0920
 4208TIP3    H236820   0.583   2.142  16.436 -0.0592 -0.3356  0.6442
 4209TIP3   OH236821   0.265   0.656  16.930 -0.4262  0.1516  0.6705
 4209TIP3    H136822   0.238   0.661  16.838 -0.4121 -0.4556  0.6265
 4209TIP3    H236823   0.335   0.721  16.938 -0.8666  0.6590  0.4117
 4210TIP3   OH236824   0.169   0.894  16.469  0.3583 -0.1367  0.0758
 4210TIP3    H136825   0.238   0.960  16.476 -0.3974  0.5279  1.9927
 4210TIP3    H236826   0.090   0.937  16.502 -0.5610 -1.4389 -0.3322
 4211TIP3   OH236827   0.325   6.229  15.279 -0.1649 -0.2440 -0.5726
 4211TIP3    H136828   0.403   6.261  15.234  0.0511 -0.0840 -0.1008
 4211TIP3    H236829   0.349   6.140  15.308  0.4328  0.3543  0.9105
 4212TIP3   OH236830   2.033   3.365  14.819  0.9653 -0.0008 -0.2379
 4212TIP3    H136831   1.987   3.397  14.897  0.1284 -1.7027  0.0120
 4212TIP3    H236832   2.094   3.299  14.852  2.2302  0.8501 -0.7965
 4213TIP3   OH236833   0.799   3.441  13.924  0.3826 -0.2630 -0.4275
 4213TIP3    H136834   0.795   3.362  13.869 -0.3593 -0.2392 -0.4184
 4213TIP3    H236835   0.874   3.427  13.981  0.6948 -0.6373 -0.9249
 4214TIP3   OH236836   6.571   3.370  15.806 -0.0385 -0.4176 -0.4139
 4214TIP3    H136837   6.577   3.452  15.756 -2.1095 -0.4670 -0.8497
 4214TIP3    H236838   6.483   3.337  15.787  0.7640 -2.8062 -0.3029
 4215TIP3   OH236839   4.859   2.207  14.656  0.2912 -0.4202  0.3949
 4215TIP3    H136840   4.945   2.245  14.636  0.4663 -1.7006 -1.5992
 4215TIP3    H236841   4.797   2.273  14.625  0.5498  0.0690  0.8988
 4216TIP3   OH236842   1.974   4.451  16.670  0.5528  0.4081 -0.2519
 4216TIP3    H136843   1.927   4.530  16.697  2.4344  1.6808 -0.4706
 4216TIP3    H236844   2.062   4.462  16.706  0.7304 -1.8876  0.1877
 4217TIP3   OH236845   0.095   4.216  14.419 -0.1480 -0.2349  0.1206
 4217TIP3    H136846   0.104   4.121  14.422  0.2411 -0.2083 -0.0832
 4217TIP3    H236847   0.113   4.239  14.328  3.6083  0.3796  0.8521
 4218TIP3   OH236848   6.045   6.329  14.955 -0.0719 -0.7711 -0.4493
 4218TIP3    H136849   5.984   6.401  14.973 -0.6573 -1.6017  1.1161
 4218TIP3    H236850   6.080   6.349  14.869 -0.5862  1.1295 -0.2791
 4219TIP3   OH236851   4.122   4.373  15.893 -0.3303  0.0153  0.0860
 4219TIP3    H136852   4.180   4.359  15.818  0.6556  0.1798  0.7973
 4219TIP3    H236853   4.041   4.407  15.854  1.0180  2.5408 -0.7441
 4220TIP3   OH236854   3.866   0.065  13.919  0.6983 -0.7410 -0.5309
 4220TIP3    H136855   3.934   0.001  13.940  1.2085  0.3665  1.3765
 4220TIP3    H236856   3.879   0.083  13.826  0.9042 -2.9402 -0.9820
 4221TIP3   OH236857   1.589   3.530  15.622 -0.3128  0.4216 -0.1824
 4221TIP3    H136858   1.580   3.542  15.528  0.2445 -0.1118 -0.3087
 4221TIP3    H236859   1.499   3.530  15.655 -0.5051  0.7545 -0.6892
 4222TIP3   OH236860   3.755   1.176  15.399  0.1925  0.1622 -0.5008
 4222TIP3    H136861   3.819   1.120  15.442  0.5295  0.9472  0.0568
 4222TIP3    H236862   3.676   1.170  15.454 -0.2455 -0.8528 -1.2213
 4223TIP3   OH236863   2.988   6.290  15.169  0.2282  0.1715 -0.2210
 4223TIP3    H136864   3.067   6.264  15.217 -0.4331 -0.9203  0.2969
 4223TIP3    H236865   2.966   6.376  15.204  0.0723 -0.3759  1.0557
 4224TIP3   OH236866   5.286   3.631  15.887  0.8977 -0.1684 -0.8515
 4224TIP3    H136867   5.321   3.720  15.884  1.0228 -0.2408 -2.4024
 4224TIP3    H236868   5.229   3.625  15.810 -0.5736 -0.8636  0.2303
 4225TIP3   OH236869   3.531   5.506  16.043 -0.0624  0.1964 -0.4147
 4225TIP3    H136870   3.518   5.569  16.114 -0.3147  0.9552 -1.1237
 4225TIP3    H236871   3.447   5.461  16.035 -0.7305  1.5663 -1.6003
 4226TIP3   OH236872   5.432   0.318  14.830  0.3919  0.2802  0.5929
 4226TIP3    H136873   5.340   0.327  14.857  0.1729 -0.1452  0.0092
 4226TIP3    H236874   5.482   0.345  14.907 -0.2187 -0.1374  1.1499
 4227TIP3   OH236875   1.106   2.036  16.405  0.4065  0.0570  0.0476
 4227TIP3    H136876   1.053   1.967  16.445 -0.7481  0.7224 -0.2609
 4227TIP3    H236877   1.132   2.001  16.320  2.5108 -1.1968  1.1160
 4228TIP3   OH236878   1.485   5.322  16.279 -0.4431  0.1689  0.0215
 4228TIP3    H136879   1.444   5.354  16.199 -0.3690 -0.1542 -0.1489
 4228TIP3    H236880   1.532   5.397  16.314 -1.4075  0.6209  0.3733
 4229TIP3   OH236881   2.410   6.749  17.291 -0.4022 -0.0662 -0.2528
 4229TIP3    H136882   2.377   6.821  17.237 -0.6478  0.8082  1.0043
 4229TIP3    H236883   2.346   6.742  17.363 -0.1375 -1.2524 -0.1153
 4230TIP3   OH236884   4.897   2.714  16.806  0.3663  0.5242  0.1149
 4230TIP3    H136885   4.963   2.756  16.751 -0.6262  0.3543 -1.2404
 4230TIP3    H236886   4.830   2.781  16.818 -0.2745 -0.0161 -0.3877
 4231TIP3   OH236887   4.094   2.668  15.136 -0.6154 -0.0409  0.7072
 4231TIP3    H136888   4.117   2.740  15.077  1.6788  0.0501  1.6031
 4231TIP3    H236889   3.999   2.672  15.144 -0.7647  1.3157 -1.2133
 4232TIP3   OH236890   1.705   4.878  14.883  0.0141  0.0500  0.6285
 4232TIP3    H136891   1.771   4.837  14.827 -0.3705  1.6736 -1.1060
 4232TIP3    H236892   1.629   4.892  14.826 -0.7818  0.8394  1.8190
 4233TIP3   OH236893   5.467   6.647  16.910  0.8632 -0.4645  0.2555
 4233TIP3    H136894   5.521   6.571  16.887  1.3530  0.5363 -2.2238
 4233TIP3    H236895   5.513   6.688  16.982  3.0605 -0.0885 -1.2661
 4234TIP3   OH236896   0.658   1.936  15.791  0.1224 -0.0180 -0.4306
 4234TIP3    H136897   0.724   1.977  15.846 -0.0295 -0.4573  0.0919
 4234TIP3    H236898   0.579   1.936  15.844  0.0250 -0.6422 -0.5690
 4235TIP3   OH236899   2.274   4.675  14.536  0.5377 -0.2306  0.0780
 4235TIP3    H136900   2.268   4.717  14.450  1.4740 -0.4478 -0.1050
 4235TIP3    H236901   2.244   4.585  14.521  0.3410 -0.1654  0.0689
 4236TIP3   OH236902   1.190   5.042  14.874 -0.1175  0.6611  0.2199
 4236TIP3    H136903   1.280   5.070  14.888  0.4051 -0.7429 -0.1812
 4236TIP3    H236904   1.181   5.037  14.778 -1.7499  4.1684 -0.0038
 4237TIP3   OH236905   3.462   4.878  15.759 -0.4531 -0.6047  0.1430
 4237TIP3    H136906   3.535   4.885  15.820  0.4391 -0.6551 -0.8923
 4237TIP3    H236907   3.434   4.786  15.766 -0.3162 -0.6285  0.4094
 4238TIP3   OH236908   0.488   0.056  16.397 -0.0763 -0.4655  0.1337
 4238TIP3    H136909   0.564   0.092  16.444  0.2676 -0.9069 -0.0889
 4238TIP3    H236910   0.414   0.109  16.429  0.6044  1.4344 -1.2428
 4239TIP3   OH236911   4.023   3.117  17.142 -0.3152  0.2098 -0.5247
 4239TIP3    H136912   4.056   3.065  17.215 -1.7175 -0.4460 -0.3287
 4239TIP3    H236913   3.929   3.096  17.137 -0.8038  2.1956 -0.8676
 4240TIP3   OH236914   1.228   6.694  15.830  0.5782 -0.0791 -0.3925
 4240TIP3    H136915   1.296   6.634  15.858  0.5218  0.1655  0.2679
 4240TIP3    H236916   1.162   6.638  15.788  0.4935 -0.4863  0.2819
 4241TIP3   OH236917   3.255   3.138  16.955 -0.0426 -0.0339  0.5515
 4241TIP3    H136918   3.275   3.206  17.020  0.1905  2.4959 -1.9742
 4241TIP3    H236919   3.335   3.085  16.951  0.6370  0.9173  1.0044
 4242TIP3   OH236920   2.156   2.899  14.581 -0.3191  0.3207  0.3467
 4242TIP3    H136921   2.124   2.850  14.505 -1.6746 -1.7161  2.1219
 4242TIP3    H236922   2.131   2.990  14.563  1.3156  0.3463 -2.5607
 4243TIP3   OH236923   3.232   5.055  17.208 -0.2074  0.1503  0.0317
 4243TIP3    H136924   3.237   5.029  17.116 -1.2809 -0.5905  0.1639
 4243TIP3    H236925   3.160   5.119  17.212  0.2348  0.6495  0.2667
 4244TIP3   OH236926   4.991   2.205  16.409 -0.1043 -0.0363 -0.2473
 4244TIP3    H136927   4.923   2.207  16.341 -0.8975 -1.0194  0.4700
 4244TIP3    H236928   5.061   2.152  16.371  0.4348  1.2637 -1.1227
 4245TIP3   OH236929   5.964   0.249  16.336  0.4443 -0.1626 -0.5673
 4245TIP3    H136930   6.033   0.281  16.278  0.9426 -0.1381  0.0258
 4245TIP3    H236931   6.007   0.181  16.389  0.3574  0.6965  0.6513
 4246TIP3   OH236932   5.209   2.613  13.665 -0.6270 -0.3808 -0.0238
 4246TIP3    H136933   5.210   2.602  13.570 -1.6385  0.4499 -0.1468
 4246TIP3    H236934   5.163   2.536  13.698  0.5318 -1.1334 -0.1196
 4247TIP3   OH236935   0.172   2.914  16.783 -0.1112  0.7482 -0.2345
 4247TIP3    H136936   0.165   2.875  16.696 -0.5941  0.0203  0.1211
 4247TIP3    H236937   0.083   2.939  16.806 -0.2322 -0.3170  0.5969
 4248TIP3   OH236938   4.373   4.467  14.835 -0.1106  0.3091 -0.1936
 4248TIP3    H136939   4.396   4.526  14.906  1.0043 -0.8479  0.4396
 4248TIP3    H236940   4.285   4.436  14.857  0.1985  0.0081  0.6656
 4249TIP3   OH236941   3.976   0.526  16.961 -0.4829 -0.1611 -0.5616
 4249TIP3    H136942   4.069   0.521  16.942 -0.5534  0.8172 -1.2506
 4249TIP3    H236943   3.939   0.577  16.888 -1.2991  0.8406  0.5006
 4250TIP3   OH236944   4.824   6.259  15.010  0.2972 -0.1955 -0.0374
 4250TIP3    H136945   4.778   6.179  15.033 -0.9993  0.1418 -1.3273
 4250TIP3    H236946   4.882   6.235  14.938  0.5631 -0.1537  0.1595
 4251TIP3   OH236947   5.258   3.453  14.440 -0.0833  0.5273  0.0525
 4251TIP3    H136948   5.307   3.409  14.371 -0.1557 -1.0293  0.9521
 4251TIP3    H236949   5.306   3.435  14.520 -1.2795  0.2696  0.7431
 4252TIP3   OH236950   5.650   5.416  14.391  0.5877  0.0472 -0.2045
 4252TIP3    H136951   5.581   5.381  14.334  0.3613  2.5570 -1.6234
 4252TIP3    H236952   5.619   5.503  14.415  3.2357  1.3071 -0.9678
 4253TIP3   OH236953   5.593   3.541  14.426  0.0730  0.0484  0.0787
 4253TIP3    H136954   5.653   3.511  14.494 -0.9806 -0.0999  0.9749
 4253TIP3    H236955   5.551   3.461  14.395  0.8750  0.0609 -1.0914
 4254TIP3   OH236956   3.838   4.048  16.426 -0.2004 -0.1549  0.1710
 4254TIP3    H136957   3.756   4.079  16.390 -1.4563 -0.3557  2.6147
 4254TIP3    H236958   3.826   3.953  16.435 -1.0454  0.1280  3.3483
 4255TIP3   OH236959   3.005   2.664  13.834  0.1136 -0.2865  0.2678
 4255TIP3    H136960   2.980   2.624  13.751 -2.3785  0.4140  0.5951
 4255TIP3    H236961   2.955   2.615  13.900  0.6725  0.3212  1.1683
 4256TIP3   OH236962   4.655   3.032  16.172  0.5133  0.0948 -0.2963
 4256TIP3    H136963   4.660   2.984  16.255  0.4522 -0.1664 -0.4437
 4256TIP3    H236964   4.583   3.094  16.185  0.3357 -0.1198 -0.2428
 4257TIP3   OH236965   6.026   5.220  16.180 -0.5094 -0.4164 -0.8675
 4257TIP3    H136966   6.015   5.131  16.145 -0.3298  0.4618 -3.4195
 4257TIP3    H236967   6.119   5.239  16.169 -0.6574  0.2868 -0.9449
 4258TIP3   OH236968   6.263   6.461  15.390  0.0629  0.3106 -0.2243
 4258TIP3    H136969   6.320   6.385  15.401  1.4942  1.0292 -2.0797
 4258TIP3    H236970   6.177   6.432  15.420  0.1391 -2.6300 -2.4064
 4259TIP3   OH236971   0.340   5.130  15.233  0.3617  0.0902  0.3597
 4259TIP3    H136972   0.360   5.191  15.304  2.4758 -1.8566  1.6043
 4259TIP3    H236973   0.297   5.056  15.276  2.8408 -1.7157 -0.0362
 4260TIP3   OH236974   1.870   1.673  15.345 -0.2193  0.4657  0.3450
 4260TIP3    H136975   1.831   1.592  15.379  1.5739 -0.1163  1.1336
 4260TIP3    H236976   1.884   1.727  15.423  1.5635  0.1792  0.2588
 4261TIP3   OH236977   4.681   2.360  13.217  0.3196  0.0013 -0.3759
 4261TIP3    H136978   4.645   2.377  13.304  1.3291 -0.9553  0.2448
 4261TIP3    H236979   4.649   2.433  13.164 -1.7561 -0.2853  0.3537
 4262TIP3   OH236980   3.994   4.195  15.561  0.1215  0.5698  0.3386
 4262TIP3    H136981   3.963   4.230  15.645 -0.2396 -1.0184  0.9089
 4262TIP3    H236982   4.011   4.102  15.579 -0.6081  0.0335 -1.5021
 4263TIP3   OH236983   4.899   0.087  15.027  0.3855  0.0741  0.1672
 4263TIP3    H136984   4.873   0.075  14.936 -1.5539 -0.7328  0.7726
 4263TIP3    H236985   4.994   0.075  15.027  0.6273  1.4270 -1.9238
 4264TIP3   OH236986   3.099   0.883  16.504  0.3045  0.1317 -0.3225
 4264TIP3    H136987   3.117   0.796  16.538  0.6413  0.9485  1.7386
 4264TIP3    H236988   3.007   0.899  16.524  0.3679  0.4287 -0.2584
 4265TIP3   OH236989   2.997   2.668  15.734 -0.1414  0.5872  0.4533
 4265TIP3    H136990   3.033   2.656  15.822  1.1926  1.9191  0.1275
 4265TIP3    H236991   3.072   2.695  15.681 -0.7971 -0.7205 -1.2435
 4266TIP3   OH236992   1.764   0.207  16.069 -0.0118  0.4608  0.1022
 4266TIP3    H136993   1.780   0.112  16.068 -2.9881 -0.1304 -0.8957
 4266TIP3    H236994   1.669   0.215  16.072  0.0625  3.4089 -1.7477
 4267TIP3   OH236995   2.703   4.723  15.800 -0.3128  0.3075  0.2512
 4267TIP3    H136996   2.686   4.659  15.869 -0.1082 -0.4279 -0.3611
 4267TIP3    H236997   2.786   4.764  15.826 -1.0086  1.1539  1.2323
 4268TIP3   OH236998   6.712   2.081  14.723 -0.5061  0.2948 -0.5633
 4268TIP3    H136999   6.672   2.147  14.666 -0.9917 -0.1042 -0.6968
 4268TIP3    H237000   6.637   2.030  14.755 -0.3774  1.1833  1.3043
 4269TIP3   OH237001   2.485   4.924  16.325  0.7408 -0.1655  0.6862
 4269TIP3    H137002   2.532   4.874  16.258  0.5275  0.0043  0.4046
 4269TIP3    H237003   2.516   5.014  16.313  2.3531 -0.4633  2.2510
 4270TIP3   OH237004   1.074   3.999  15.300  0.2349 -0.3210  0.2735
 4270TIP3    H137005   1.169   4.003  15.310  0.2943  0.3983 -0.3905
 4270TIP3    H237006   1.051   4.085  15.265 -0.6738 -0.4579  0.5137
 4271TIP3   OH237007   4.627   5.618  15.952  0.7055  1.0131  0.3420
 4271TIP3    H137008   4.648   5.558  16.023  1.9434  0.0029 -0.8140
 4271TIP3    H237009   4.674   5.699  15.974  3.8881 -0.3230 -0.8185
 4272TIP3   OH237010   2.868   6.069  16.260  0.5633  0.5745  0.2441
 4272TIP3    H137011   2.788   6.108  16.296  0.0648  0.1392 -0.3688
 4272TIP3    H237012   2.861   5.976  16.281 -1.0395 -0.2271 -3.1238
 4273TIP3   OH237013   6.474   6.670  15.407  0.3891  0.1404  0.1439
 4273TIP3    H137014   6.531   6.616  15.353  1.0335  1.9914 -1.1180
 4273TIP3    H237015   6.390   6.623  15.409  0.7910 -0.6781 -1.2632
 4274TIP3   OH237016   4.215   6.058  16.501 -0.1307  0.2917  0.3917
 4274TIP3    H137017   4.176   6.139  16.535 -0.4772  0.5868 -0.6591
 4274TIP3    H237018   4.296   6.048  16.550 -1.5989 -0.4843  2.8433
 4275TIP3   OH237019   0.158   2.333  13.563 -0.3709 -0.2682  0.0827
 4275TIP3    H137020   0.229   2.396  13.579 -2.8240  2.7213  0.0809
 4275TIP3    H237021   0.186   2.285  13.486  1.2991  1.3692 -0.4191
 4276TIP3   OH237022   4.615   4.343  14.324 -0.1896 -0.1085  0.3554
 4276TIP3    H137023   4.692   4.349  14.381 -0.4321  2.0257  0.5678
 4276TIP3    H237024   4.648   4.359  14.236 -0.2471 -0.1810  0.3209
 4277TIP3   OH237025   5.495   6.503  15.316 -0.4415  0.3704 -0.1120
 4277TIP3    H137026   5.567   6.503  15.380 -0.9970 -1.3367  0.5540
 4277TIP3    H237027   5.539   6.516  15.232  0.4156  1.5258  0.4798
 4278TIP3   OH237028   3.280   0.366  14.673 -0.2613 -0.2830  0.1768
 4278TIP3    H137029   3.303   0.427  14.603 -0.8548 -0.9051 -0.5831
 4278TIP3    H237030   3.279   0.280  14.631 -2.6593 -0.4487  0.4333
 4279TIP3   OH237031   1.412   4.804  15.044  0.4700 -0.2613  0.3288
 4279TIP3    H137032   1.403   4.876  15.107  1.9954 -0.6271  1.0020
 4279TIP3    H237033   1.505   4.802  15.023  0.3435 -1.6280 -0.1792
 4280TIP3   OH237034   5.953   6.654  14.746 -0.0422 -0.0327 -0.2157
 4280TIP3    H137035   6.031   6.686  14.791  0.3518  1.0203 -1.5554
 4280TIP3    H237036   5.910   6.598  14.809  1.8601 -0.7349  0.5399
 4281TIP3   OH237037   4.344   3.895  16.544 -0.5187  0.1932 -0.4594
 4281TIP3    H137038   4.426   3.930  16.509 -0.6019  0.2288 -0.6182
 4281TIP3    H237039   4.317   3.959  16.610  0.2247 -0.4441  0.4913
 4282TIP3   OH237040   3.750   1.810  14.918 -0.2036  0.3025  0.2034
 4282TIP3    H137041   3.815   1.741  14.912  1.2908  1.6853 -0.3528
 4282TIP3    H237042   3.668   1.765  14.936  0.6320 -1.6316 -0.5935
 4283TIP3   OH237043   1.156   1.930  15.484  0.0280 -0.3597  0.3390
 4283TIP3    H137044   1.246   1.947  15.455 -0.1108 -1.7226 -1.0678
 4283TIP3    H237045   1.156   1.953  15.577  1.0819  2.2375 -0.2068
 4284TIP3   OH237046   4.245   0.150  16.454 -0.2817  0.8253 -0.3074
 4284TIP3    H137047   4.260   0.175  16.546 -0.7835 -0.9098  0.2777
 4284TIP3    H237048   4.325   0.177  16.409 -0.3562  2.4545  0.4485
 4285TIP3   OH237049   2.221   3.183  14.913 -0.3975 -0.3562 -0.5550
 4285TIP3    H137050   2.260   3.120  14.852 -1.4940 -3.0305  1.2829
 4285TIP3    H237051   2.290   3.201  14.976  0.0442  0.6567 -1.3063
 4286TIP3   OH237052   2.789   5.682  15.721  0.3471  0.6480 -0.2826
 4286TIP3    H137053   2.729   5.712  15.653  0.6268  0.3774 -0.6511
 4286TIP3    H237054   2.752   5.716  15.803 -0.4877  0.2052 -0.4675
 4287TIP3   OH237055   4.272   0.476  16.927 -0.6618  0.2034  0.3864
 4287TIP3    H137056   4.366   0.458  16.927 -0.8740 -1.0559 -0.3743
 4287TIP3    H237057   4.254   0.510  16.840 -0.6351  2.2098  1.1222
 4288TIP3   OH237058   3.351   3.418  15.967  0.3103 -0.1511 -0.0532
 4288TIP3    H137059   3.360   3.466  15.885  0.6478  3.7374  2.0284
 4288TIP3    H237060   3.441   3.394  15.990  0.2546 -0.9194 -0.6066
 4289TIP3   OH237061   1.469   5.472  15.818  0.0976  0.0524 -0.9292
 4289TIP3    H137062   1.515   5.547  15.855 -1.4548  0.6042 -0.0541
 4289TIP3    H237063   1.527   5.441  15.748  1.5709  0.9748 -0.1616
 4290TIP3   OH237064   1.074   4.818  16.667 -0.0298  0.1840 -0.3911
 4290TIP3    H137065   1.094   4.896  16.617 -0.9066  0.2210 -0.7149
 4290TIP3    H237066   0.979   4.823  16.681 -0.6724 -2.2908 -3.0102
 4291TIP3   OH237067   5.656   1.192  15.925  0.4090 -0.4113 -0.1172
 4291TIP3    H137068   5.732   1.234  15.885  0.9959 -1.1821  0.1647
 4291TIP3    H237069   5.582   1.218  15.870  0.4591  2.3397  0.9558
 4292TIP3   OH237070   1.143   4.023  14.016  0.1532 -0.1492 -0.1838
 4292TIP3    H137071   1.194   3.954  14.058 -1.5353  0.4662  3.2783
 4292TIP3    H237072   1.187   4.104  14.041 -0.7872  0.2323  0.2913
 4293TIP3   OH237073   6.103   4.528  16.462 -0.0168 -0.0595 -0.3878
 4293TIP3    H137074   6.101   4.617  16.426 -1.9228  1.1847  2.4604
 4293TIP3    H237075   6.027   4.485  16.423  0.0165  0.0412 -0.5705
 4294TIP3   OH237076   2.486   5.090  15.282  0.2704  0.1053 -0.4493
 4294TIP3    H137077   2.498   5.170  15.333  0.7743 -0.1008 -0.2376
 4294TIP3    H237078   2.570   5.077  15.237  0.2099 -0.3278 -0.4422
 4295TIP3   OH237079   6.634   6.580  15.197 -0.4401 -0.2215  0.1746
 4295TIP3    H137080   6.687   6.633  15.137 -1.5663  0.4285 -0.2665
 4295TIP3    H237081   6.655   6.490  15.174  3.1256 -0.1193  2.3207
 4296TIP3   OH237082   5.209   4.411  14.476  0.6261 -0.1723 -0.1652
 4296TIP3    H137083   5.236   4.344  14.414  1.7931 -1.1731  1.3525
 4296TIP3    H237084   5.115   4.423  14.459  0.8886 -0.5066 -1.9897
 4297TIP3   OH237085   5.305   4.221  14.271  0.5137 -0.2781  0.3185
 4297TIP3    H137086   5.398   4.231  14.291  0.5972  1.6006 -0.8025
 4297TIP3    H237087   5.297   4.130  14.243  1.5451 -1.1415  2.5215
 4298TIP3   OH237088   1.363   3.011  15.178  0.0258  0.1299  0.1643
 4298TIP3    H137089   1.406   3.093  15.154 -0.2111  0.4636  0.8362
 4298TIP3    H237090   1.276   3.017  15.139  0.3004 -0.1807 -0.5027
 4299TIP3   OH237091   3.194   5.415  15.084 -0.1790 -0.0734 -0.3830
 4299TIP3    H137092   3.194   5.363  15.004 -0.4599  1.0969 -1.1793
 4299TIP3    H237093   3.186   5.506  15.053  0.7670  0.4848  0.9189
 4300TIP3   OH237094   3.686   5.436  16.293 -0.0234  0.2138 -0.3459
 4300TIP3    H137095   3.760   5.441  16.233 -0.4085  0.4706 -0.8118
 4300TIP3    H237096   3.642   5.353  16.271  0.4652 -0.2414  0.3446
 4301TIP3   OH237097   2.451   3.213  15.561 -0.2531 -0.3414  0.6347
 4301TIP3    H137098   2.370   3.172  15.528  0.6255 -1.0759 -0.6945
 4301TIP3    H237099   2.494   3.143  15.610  1.7948 -1.5761 -2.5577
 4302TIP3   OH237100   6.297   6.386  14.766 -0.2854 -0.4816  0.0610
 4302TIP3    H137101   6.329   6.447  14.833 -1.9002 -0.3799  0.7775
 4302TIP3    H237102   6.270   6.443  14.694 -1.0791 -0.3840  0.4257
 4303TIP3   OH237103   4.457   4.407  13.852  0.3092  0.6602  0.2675
 4303TIP3    H137104   4.495   4.350  13.785  0.5725  1.9315 -0.6927
 4303TIP3    H237105   4.457   4.494  13.813 -3.5766  0.7854  0.1454
 4304TIP3   OH237106   4.168   2.148  14.772 -0.3355  0.2515  0.1800
 4304TIP3    H137107   4.151   2.204  14.848 -0.9941  1.3295 -0.7322
 4304TIP3    H237108   4.254   2.176  14.741 -0.6780  0.7867 -0.2939
 4305TIP3   OH237109   1.593   2.741  15.762 -0.3122 -0.0316  1.0390
 4305TIP3    H137110   1.615   2.819  15.711 -1.7492 -0.0813  0.2690
 4305TIP3    H237111   1.504   2.758  15.793  0.3362 -0.2265  3.1618
 4306TIP3   OH237112   0.514   5.298  16.878  0.2264 -0.0706 -0.1155
 4306TIP3    H137113   0.487   5.226  16.821 -1.0148  0.4374 -0.1922
 4306TIP3    H237114   0.469   5.281  16.961  1.0221 -0.1240  0.3130
 4307TIP3   OH237115   6.317   5.348  14.477  0.2928  0.1990  0.3741
 4307TIP3    H137116   6.267   5.348  14.396 -0.4748  2.7779  0.7660
 4307TIP3    H237117   6.382   5.278  14.465 -2.6057 -2.5787 -0.5796
 4308TIP3   OH237118   3.489   2.690  16.318  0.2731 -0.4200 -0.6881
 4308TIP3    H137119   3.430   2.657  16.385  0.6419 -0.9972 -0.6339
 4308TIP3    H237120   3.439   2.758  16.273 -0.4287 -0.8893 -0.6397
 4309TIP3   OH237121   3.660   1.104  15.060 -0.2732  0.3818  0.3574
 4309TIP3    H137122   3.592   1.051  15.103 -0.5234  0.1772 -0.2845
 4309TIP3    H237123   3.722   1.124  15.130  1.4060 -3.1779  0.1217
 4310TIP3   OH237124   0.328   1.986  14.575 -0.6485  0.3478  0.4697
 4310TIP3    H137125   0.285   2.000  14.490 -0.7484  0.4053  0.5300
 4310TIP3    H237126   0.421   1.998  14.557 -0.5428 -0.9570  0.0852
 4311TIP3   OH237127   6.325   5.945  16.126 -0.4084  0.3713 -0.5682
 4311TIP3    H137128   6.334   5.894  16.046 -0.5472 -1.1685  0.3526
 4311TIP3    H237129   6.381   6.021  16.113 -0.4152  0.1324 -2.1055
 4312TIP3   OH237130   3.842   1.952  13.654  0.0640  0.2910 -0.0960
 4312TIP3    H137131   3.881   1.944  13.567  0.1697 -0.4693  0.0170
 4312TIP3    H237132   3.812   2.043  13.658  0.3594  0.4288 -0.7973
 4313TIP3   OH237133   0.548   4.724  16.451 -0.1612  0.0154 -0.4504
 4313TIP3    H137134   0.587   4.809  16.472 -2.2048  0.7024  0.8894
 4313TIP3    H237135   0.514   4.734  16.362 -0.1846  0.5276 -0.3855
 4314TIP3   OH237136   4.352   4.007  15.698 -0.8871 -0.1978 -0.2583
 4314TIP3    H137137   4.338   4.102  15.699 -0.1961 -0.0724 -1.2303
 4314TIP3    H237138   4.430   3.995  15.643 -0.8415 -1.3114  0.0335
 4315TIP3   OH237139   0.743   2.788  13.697 -0.3609 -0.0029 -0.3924
 4315TIP3    H137140   0.830   2.820  13.718 -0.4050  0.7642 -1.2976
 4315TIP3    H237141   0.735   2.705  13.743 -0.3024  1.3458  2.2495
 4316TIP3   OH237142   0.674   4.990  16.464 -0.0934 -0.6058 -0.1924
 4316TIP3    H137143   0.740   5.032  16.520  0.0217 -0.3812 -0.4910
 4316TIP3    H237144   0.606   5.056  16.454 -0.5895 -0.9982  0.4853
 4317TIP3   OH237145   2.927   2.906  16.214  0.0220  0.2997 -0.1256
 4317TIP3    H137146   2.956   2.877  16.301  0.6972  0.3022 -0.3395
 4317TIP3    H237147   2.933   3.002  16.218  0.7773  0.2714 -0.4078
 4318TIP3   OH237148   2.376   4.749  15.997  0.2698 -0.5189  0.8790
 4318TIP3    H137149   2.321   4.723  16.071  0.0358  1.1436  1.3122
 4318TIP3    H237150   2.448   4.797  16.036  0.2466  0.2161  0.0484
 4319TIP3   OH237151   4.247   0.084  16.193 -0.7490 -0.4325 -0.3237
 4319TIP3    H137152   4.323   0.029  16.177  0.0373  0.4016  0.4568
 4319TIP3    H237153   4.227   0.072  16.286 -2.2227 -1.4332 -0.7290
 4320TIP3   OH237154   1.454   4.984  15.228 -0.3232  0.7026  0.0277
 4320TIP3    H137155   1.401   5.056  15.262  1.4788  1.8097  0.5953
 4320TIP3    H237156   1.544   5.015  15.232  0.2660 -0.1684 -3.2015
 4321TIP3   OH237157   1.242   0.875  16.715 -0.6947 -0.1195 -0.2409
 4321TIP3    H137158   1.250   0.959  16.670  1.2427  0.3473  0.8404
 4321TIP3    H237159   1.153   0.846  16.697 -0.8426  1.3162 -2.0993
 4322TIP3   OH237160   4.596   2.860  16.395  0.3801  1.0107 -0.3143
 4322TIP3    H137161   4.669   2.806  16.426 -0.1212  1.2511  1.3898
 4322TIP3    H237162   4.548   2.884  16.475 -1.0786  1.5600 -1.3115
 4323TIP3   OH237163   5.067   1.173  16.633 -0.1311 -0.0481  0.7077
 4323TIP3    H137164   5.010   1.247  16.653 -1.3260 -1.3205  2.3926
 4323TIP3    H237165   5.064   1.165  16.538 -2.4904  0.2126  0.6931
 4324TIP3   OH237166   2.395   3.310  16.187 -0.0947  0.1554 -0.3413
 4324TIP3    H137167   2.455   3.260  16.131  2.2541  0.3962  1.7463
 4324TIP3    H237168   2.311   3.267  16.178  1.1234 -2.2217 -1.0568
 4325TIP3   OH237169   2.147   3.593  15.304 -0.1130 -0.4215  0.0368
 4325TIP3    H137170   2.165   3.686  15.318 -1.5037  0.2559 -2.1664
 4325TIP3    H237171   2.231   3.550  15.320  0.7684  1.3095  0.3375
 4326TIP3   OH237172   1.881   4.401  15.227  0.6299 -0.8134 -0.2145
 4326TIP3    H137173   1.891   4.485  15.273 -0.9952 -0.2835 -0.7597
 4326TIP3    H237174   1.971   4.372  15.210  1.2467  1.1360 -0.5542
 4327TIP3   OH237175   1.900   1.788  16.838  0.3244 -0.5593  0.4959
 4327TIP3    H137176   1.866   1.845  16.908 -1.3782 -2.7562  1.5996
 4327TIP3    H237177   1.821   1.750  16.799  1.3267 -0.5176 -1.6754
 4328TIP3   OH237178   0.354   5.083  15.835  0.3043  0.2741 -0.0245
 4328TIP3    H137179   0.340   5.043  15.749 -0.0109  0.5101 -0.0863
 4328TIP3    H237180   0.290   5.041  15.892 -1.6587  2.2695 -0.5962
 4329TIP3   OH237181   3.302   5.334  13.852  0.0106 -0.2892 -0.7795
 4329TIP3    H137182   3.232   5.393  13.880  0.4231 -0.9711  2.0014
 4329TIP3    H237183   3.257   5.254  13.824 -0.4383 -1.1437  2.0293
 4330TIP3   OH237184   2.346   6.685  14.289 -0.2221 -0.0786  0.1342
 4330TIP3    H137185   2.334   6.774  14.257 -0.2263 -0.2214 -0.2722
 4330TIP3    H237186   2.360   6.633  14.210  0.7299 -0.2905  0.4266
 4331TIP3   OH237187   3.841   3.600  14.965  0.3995  0.4638 -0.0290
 4331TIP3    H137188   3.921   3.651  14.949  0.8440 -0.2113  0.0304
 4331TIP3    H237189   3.796   3.599  14.881  0.2954  1.0983  0.0084
 4332TIP3   OH237190   6.726   3.404  15.174 -0.3237  0.2188  0.4109
 4332TIP3    H137191   6.820   3.412  15.186 -0.2961 -0.7153  0.9518
 4332TIP3    H237192   6.698   3.344  15.243 -1.2164 -0.0057 -0.1218
 4333TIP3   OH237193   0.336   3.368  16.878 -0.6975 -0.3451  0.0559
 4333TIP3    H137194   0.382   3.436  16.926  1.4429 -1.3273 -0.4862
 4333TIP3    H237195   0.273   3.415  16.824  1.3527  1.3315 -1.0074
 4334TIP3   OH237196   3.186   3.678  15.379  0.8418  0.4429  0.0304
 4334TIP3    H137197   3.160   3.666  15.470 -1.4376  2.6924 -0.2297
 4334TIP3    H237198   3.127   3.621  15.330  1.0040  0.4267 -0.1487
 4335TIP3   OH237199   3.979   0.855  16.240  0.7237  0.1046  0.1160
 4335TIP3    H137200   4.043   0.899  16.184 -0.0470  2.0110  0.6472
 4335TIP3    H237201   3.908   0.830  16.181 -0.4901  2.8790  0.2544
 4336TIP3   OH237202   3.027   3.470  15.292 -0.0566  0.3745  0.1505
 4336TIP3    H137203   2.935   3.496  15.297 -0.3679 -0.8482  1.5752
 4336TIP3    H237204   3.039   3.439  15.203 -1.2558 -0.2052  0.1703
 4337TIP3   OH237205   1.775   2.296  15.022 -0.1374  0.2785 -0.1603
 4337TIP3    H137206   1.785   2.346  15.103 -2.4580  0.9993 -0.2660
 4337TIP3    H237207   1.683   2.306  14.998  0.3414 -0.4313 -2.5698
 4338TIP3   OH237208   3.950   2.098  15.808 -0.6794 -0.1431 -0.2295
 4338TIP3    H137209   3.860   2.078  15.784 -0.9156  0.9747 -0.3428
 4338TIP3    H237210   4.002   2.070  15.732 -1.0840  0.4418 -0.7366
 4339TIP3   OH237211   1.060   1.562  13.392 -0.0504  0.3292 -0.4368
 4339TIP3    H137212   0.979   1.516  13.413 -0.6987  1.1128 -1.1711
 4339TIP3    H237213   1.127   1.493  13.392 -1.2351 -1.0032 -3.1638
 4340TIP3   OH237214   1.257   2.684  15.253  0.2295 -0.0977 -0.0775
 4340TIP3    H137215   1.316   2.611  15.269 -1.5086 -1.3487  1.0678
 4340TIP3    H237216   1.272   2.744  15.326  1.3375  0.4880 -0.7720
 4341TIP3   OH237217   5.876   1.369  15.288  0.5365 -0.1682 -0.0067
 4341TIP3    H137218   5.848   1.377  15.197  0.7319 -1.0069 -0.1461
 4341TIP3    H237219   5.972   1.379  15.284  0.3872  2.0292  0.3865
 4342TIP3   OH237220   6.513   5.507  15.925  0.4581 -0.4518  0.1380
 4342TIP3    H137221   6.496   5.441  15.858 -0.4605  1.6289 -1.8311
 4342TIP3    H237222   6.564   5.462  15.992  0.3847 -2.9513 -1.3881
 4343TIP3   OH237223   2.028   2.380  16.952  0.2354 -0.4814 -0.0380
 4343TIP3    H137224   2.057   2.292  16.976 -0.2129 -1.7211 -3.4292
 4343TIP3    H237225   2.107   2.434  16.957  0.6829 -1.2159  1.3507
 4344TIP3   OH237226   0.733   2.674  14.456  0.0646 -0.6227  0.1010
 4344TIP3    H137227   0.644   2.643  14.473 -0.4685  0.2739 -0.9159
 4344TIP3    H237228   0.770   2.691  14.543 -0.7021 -1.1384  0.5368
 4345TIP3   OH237229   0.283   5.508  15.733 -0.1500  0.0017 -0.1048
 4345TIP3    H137230   0.241   5.552  15.659 -0.8418  1.1870  0.9489
 4345TIP3    H237231   0.212   5.492  15.796  0.2351 -1.9299 -0.1020
 4346TIP3   OH237232   1.648   4.663  15.847 -0.2750  0.3142 -0.4562
 4346TIP3    H137233   1.590   4.587  15.857 -0.9882  0.4299 -3.0278
 4346TIP3    H237234   1.718   4.648  15.912 -1.9119 -1.0103  1.1113
 4347TIP3   OH237235   2.583   1.138  16.453 -0.5642 -0.2206  0.4644
 4347TIP3    H137236   2.502   1.140  16.503 -1.2196  0.9111 -0.5532
 4347TIP3    H237237   2.652   1.162  16.515 -1.4597  1.9484  0.7001
 4348TIP3   OH237238   3.636   2.225  16.381  0.2516  0.0013 -0.0946
 4348TIP3    H137239   3.630   2.320  16.389 -0.0379  0.0168 -0.4531
 4348TIP3    H237240   3.599   2.206  16.294  0.1620 -0.4507  0.0390
 4349TIP3   OH237241   1.113   4.371  15.654 -0.1042  0.0642  0.1309
 4349TIP3    H137242   1.167   4.402  15.727 -0.8370  0.2899  0.5999
 4349TIP3    H237243   1.107   4.446  15.595 -0.0181  0.0856  0.1498
 4350TIP3   OH237244   0.425   1.553  14.022 -0.6037 -0.1609 -0.2927
 4350TIP3    H137245   0.493   1.607  13.981 -0.7650  0.9088  0.7912
 4350TIP3    H237246   0.376   1.516  13.948  0.9347 -0.6900 -1.0807
 4351TIP3   OH237247   3.988   5.174  15.611  1.0408  0.0016 -0.6530
 4351TIP3    H137248   3.968   5.089  15.651 -0.4604  1.0681  0.9974
 4351TIP3    H237249   3.920   5.186  15.546  1.1721  0.0190 -0.7882
 4352TIP3   OH237250   2.317   5.342  14.070  0.2278  0.0903  0.0373
 4352TIP3    H137251   2.339   5.254  14.042  0.7148 -0.1733  1.1883
 4352TIP3    H237252   2.375   5.399  14.020  0.9366 -0.3513  0.3503
 4353TIP3   OH237253   5.463   4.755  14.784 -0.3468  0.1896 -0.4800
 4353TIP3    H137254   5.375   4.722  14.764 -0.1139 -0.4431 -0.4840
 4353TIP3    H237255   5.514   4.738  14.705  1.1182 -4.2015  1.1133
 4354TIP3   OH237256   4.440   4.919  16.289  0.0512 -0.7173 -0.0700
 4354TIP3    H137257   4.492   4.902  16.368 -0.6645  0.8542  0.7824
 4354TIP3    H237258   4.350   4.898  16.315 -0.3645  0.9888 -0.0415
 4355TIP3   OH237259   1.209   5.880  14.581  0.7923  0.1329  0.6784
 4355TIP3    H137260   1.195   5.919  14.495  3.4046  1.6846  0.8367
 4355TIP3    H237261   1.216   5.786  14.565 -0.9977  0.1661 -0.4390
 4356TIP3   OH237262   6.287   1.450  14.869 -0.0310 -0.4809  0.2668
 4356TIP3    H137263   6.364   1.408  14.830 -0.3055 -0.4449 -0.3184
 4356TIP3    H237264   6.265   1.521  14.809 -0.4599 -0.4229  0.4868
 4357TIP3   OH237265   2.327   2.809  15.054  0.2074 -0.6652 -0.0796
 4357TIP3    H137266   2.328   2.752  14.977 -0.6625  0.5122 -0.9997
 4357TIP3    H237267   2.243   2.855  15.048 -0.5118 -1.5481  2.3448
 4358TIP3   OH237268   1.227   5.448  15.719  1.3042 -0.2035 -0.3712
 4358TIP3    H137269   1.305   5.450  15.774  0.3430  0.9666  1.0016
 4358TIP3    H237270   1.253   5.495  15.640  1.6783  1.1958  0.5506
 4359TIP3   OH237271   1.866   4.054  15.771  0.4375  0.2515 -0.0772
 4359TIP3    H137272   1.820   4.138  15.765  0.7286  0.3000 -3.0216
 4359TIP3    H237273   1.815   3.995  15.716  2.0912 -0.5648 -0.8036
 4360TIP3   OH237274   0.871   3.128  13.743  0.0858  0.0623  0.6205
 4360TIP3    H137275   0.919   3.046  13.733 -0.6311 -0.3866  0.7698
 4360TIP3    H237276   0.793   3.105  13.793 -1.0501  0.4664 -0.8831
 4361TIP3   OH237277   6.659   3.254  15.428  0.0454  0.4699 -0.5888
 4361TIP3    H137278   6.691   3.183  15.483  0.3562  1.3312  0.3804
 4361TIP3    H237279   6.567   3.264  15.453  0.1327  0.7311 -0.3736
 4362TIP3   OH237280   2.542   3.420  15.686 -0.2104 -0.2612 -0.2659
 4362TIP3    H137281   2.626   3.400  15.644 -0.6481  0.8815 -1.7850
 4362TIP3    H237282   2.487   3.345  15.667  0.5532 -1.1923  1.0659
 4363TIP3   OH237283   2.545   1.624  17.063 -0.2565 -0.1855 -0.6651
 4363TIP3    H137284   2.450   1.620  17.074 -0.1853 -0.1437 -0.0204
 4363TIP3    H237285   2.566   1.718  17.065  0.0099 -0.2442  1.1713
 4364TIP3   OH237286   6.465   3.179  14.880 -0.3312  0.2783 -0.6209
 4364TIP3    H137287   6.531   3.112  14.864 -0.9949 -0.3956 -0.5811
 4364TIP3    H237288   6.392   3.155  14.822 -1.1800  0.0922  0.4978
 4365TIP3   OH237289   4.353   1.705  16.569 -0.0162  0.8660  0.1517
 4365TIP3    H137290   4.289   1.757  16.617  0.3186  0.2749  1.2845
 4365TIP3    H237291   4.305   1.669  16.494 -0.2773  2.6793 -0.5951
 4366TIP3   OH237292   0.093   5.739  15.271  0.2579  0.7053 -0.4621
 4366TIP3    H137293   0.021   5.794  15.240  1.2637  3.5478  1.7411
 4366TIP3    H237294   0.135   5.707  15.192 -1.5918  1.4743 -1.8312
 4367TIP3   OH237295   5.827   1.313  16.972 -0.4267  0.1073 -0.7477
 4367TIP3    H137296   5.787   1.394  16.940 -0.2944  0.0374 -1.0875
 4367TIP3    H237297   5.876   1.339  17.050 -0.8875  0.2475 -0.4979
 4368TIP3   OH237298   0.410   1.987  16.982 -0.2950 -0.4953  0.1218
 4368TIP3    H137299   0.446   2.037  16.909  1.4933 -1.9102 -0.0383
 4368TIP3    H237300   0.391   2.052  17.050  0.9383  0.5003 -0.4681
 4369TIP3   OH237301   3.335   0.367  16.624  0.2391  0.2417  0.1485
 4369TIP3    H137302   3.255   0.332  16.585 -0.7760  1.3460  1.1253
 4369TIP3    H237303   3.324   0.352  16.718  0.4863  1.7049  0.4377
 4370TIP3   OH237304   4.000   2.601  13.612  0.2239 -0.5397  0.3217
 4370TIP3    H137305   3.912   2.632  13.592  0.1315 -1.3798 -0.6737
 4370TIP3    H237306   3.992   2.560  13.699 -0.0725  0.4624  0.7786
 4371TIP3   OH237307   1.699   2.842  14.758  0.4625  0.5841 -0.9472
 4371TIP3    H137308   1.751   2.840  14.678  2.5124 -1.5572  0.2911
 4371TIP3    H237309   1.757   2.882  14.823 -0.3155  0.3084 -0.0647
 4372TIP3   OH237310   2.282   2.050  16.582  0.2093  0.4893  0.2781
 4372TIP3    H137311   2.207   1.998  16.611 -0.0715  0.6279 -0.1872
 4372TIP3    H237312   2.351   2.029  16.644  0.0198 -0.2354  0.2552
 4373TIP3   OH237313   0.191   0.628  16.652  0.1028  0.4134 -0.0400
 4373TIP3    H137314   0.213   0.689  16.582 -0.7177  2.2504  1.2079
 4373TIP3    H237315   0.095   0.622  16.648 -0.1050  1.8054  1.8652
 4374TIP3   OH237316   1.654   6.166  16.820  0.4223 -0.0260  0.0223
 4374TIP3    H137317   1.623   6.147  16.908 -0.6562 -0.6334 -0.4662
 4374TIP3    H237318   1.617   6.252  16.799 -2.4591 -1.4120 -1.1604
 4375TIP3   OH237319   5.378   6.028  16.134 -0.2942 -0.4568 -0.0923
 4375TIP3    H137320   5.295   5.989  16.107 -0.2554 -0.4084 -0.2888
 4375TIP3    H237321   5.366   6.051  16.226 -0.5703 -0.2644 -0.1748
 4376TIP3   OH237322   5.122   1.336  14.944  0.4947 -0.7553 -0.1918
 4376TIP3    H137323   5.035   1.375  14.942  0.3108 -1.1393  0.1196
 4376TIP3    H237324   5.182   1.409  14.929  0.0997 -0.5746 -0.9278
 4377TIP3   OH237325   2.446   5.067  13.971  0.6353 -0.1047 -0.0511
 4377TIP3    H137326   2.506   5.136  13.941  1.4435 -0.7242  0.1017
 4377TIP3    H237327   2.435   5.009  13.896 -0.2955  0.3395 -0.2782
 4378TIP3   OH237328   2.053   6.405  16.313  0.2463  0.3082 -0.2657
 4378TIP3    H137329   2.109   6.481  16.296 -0.2519  0.5866 -0.6941
 4378TIP3    H237330   2.078   6.341  16.246 -0.9772  1.0028 -1.4339
 4379TIP3   OH237331   0.719   4.736  16.049  0.4235  0.1725  0.0976
 4379TIP3    H137332   0.767   4.780  16.120  2.0759 -0.2534 -0.7033
 4379TIP3    H237333   0.673   4.807  16.004  0.6149  0.6594  0.6521
 4380TIP3   OH237334   6.391   4.235  15.719 -0.2185 -0.6954 -0.0757
 4380TIP3    H137335   6.418   4.267  15.805 -0.1546 -1.9560  0.4034
 4380TIP3    H237336   6.381   4.141  15.732 -0.1888 -0.9006 -1.4611
 4381TIP3   OH237337   2.545   6.696  16.080  0.8557 -0.5601  0.2851
 4381TIP3    H137338   2.476   6.630  16.079  0.7232 -0.4294 -1.8635
 4381TIP3    H237339   2.597   6.679  16.002  1.5763  1.0909  0.3495
 4382TIP3   OH237340   5.920   6.452  17.480 -0.4101  0.0162 -0.6260
 4382TIP3    H137341   5.964   6.519  17.428  0.0356  1.2729  1.2782
 4382TIP3    H237342   5.962   6.370  17.453  1.2130  0.8674 -0.7886
 4383TIP3   OH237343   5.650   1.367  15.538  0.5196  0.4718 -0.3745
 4383TIP3    H137344   5.601   1.355  15.456 -0.7069 -1.4726  0.5622
 4383TIP3    H237345   5.631   1.456  15.565  0.3387  0.8924 -1.8149
 4384TIP3   OH237346   4.777   3.080  17.141 -0.5363 -0.2968 -0.0334
 4384TIP3    H137347   4.702   3.077  17.200 -1.7974  1.9204 -1.3782
 4384TIP3    H237348   4.815   3.167  17.157  1.0578 -0.9288 -0.2200
 4385TIP3   OH237349   0.776   2.862  16.496  0.1953 -0.0218  0.3893
 4385TIP3    H137350   0.792   2.946  16.539 -1.6554  0.4171  0.3297
 4385TIP3    H237351   0.862   2.822  16.488  1.0857  1.7209  0.7284
 4386TIP3   OH237352   1.438   4.682  14.470 -0.2850 -0.0086  0.3886
 4386TIP3    H137353   1.428   4.588  14.485 -1.4894  0.2509  1.4853
 4386TIP3    H237354   1.530   4.700  14.489 -0.5519 -0.6232  2.5689
 4387TIP3   OH237355   5.987   6.036  14.628  0.2737  0.3650 -0.4597
 4387TIP3    H137356   6.079   6.047  14.654 -0.2441  0.4161  1.5138
 4387TIP3    H237357   5.938   6.040  14.710 -1.6168  1.4043 -1.5660
 4388TIP3   OH237358   2.292   6.169  15.144 -0.4686  0.7164 -0.6133
 4388TIP3    H137359   2.268   6.195  15.055  1.6696 -0.9155 -1.7851
 4388TIP3    H237360   2.368   6.112  15.132  0.0184  0.6015  2.3081
 4389TIP3   OH237361   0.909   1.528  16.617 -0.4319  0.6829 -0.4575
 4389TIP3    H137362   0.903   1.550  16.524 -0.6105  1.3311 -0.2966
 4389TIP3    H237363   0.852   1.452  16.628 -1.1164  1.1504 -0.7121
 4390TIP3   OH237364   2.407   2.640  14.580 -0.6130 -0.1675 -0.8562
 4390TIP3    H137365   2.488   2.665  14.535  0.8595 -3.1643 -0.1157
 4390TIP3    H237366   2.364   2.580  14.520 -1.8873  0.6694 -0.8305
 4391TIP3   OH237367   6.382   0.088  15.209  0.2118  0.2633  0.7339
 4391TIP3    H137368   6.415   0.035  15.281 -0.3080 -0.7127  0.2665
 4391TIP3    H237369   6.460   0.107  15.156  0.5752  0.8828  1.4596
 4392TIP3   OH237370   4.876   0.144  14.519 -0.2866 -0.0991 -0.1148
 4392TIP3    H137371   4.892   0.225  14.470  2.0133 -0.8792 -0.7723
 4392TIP3    H237372   4.839   0.084  14.454 -0.0975 -0.2093 -0.1185
 4393TIP3   OH237373   1.263   0.943  15.507  0.2495  0.0096 -0.1662
 4393TIP3    H137374   1.257   0.982  15.595 -0.3643  0.6348 -0.4799
 4393TIP3    H237375   1.354   0.914  15.501  0.5069  0.6559  0.3946
 4394TIP3   OH237376   2.239   4.738  15.209  0.0191  0.3274 -0.0615
 4394TIP3    H137377   2.326   4.726  15.171  0.8354  0.4955  1.6611
 4394TIP3    H237378   2.254   4.790  15.287 -1.7967  1.3224 -0.3184
 4395TIP3   OH237379   3.121   3.470  16.924 -0.1139  0.2654  0.2927
 4395TIP3    H137380   3.115   3.528  16.848  0.8619 -0.4155 -0.3216
 4395TIP3    H237381   3.215   3.460  16.940 -0.2089 -1.8092 -0.1591
 4396TIP3   OH237382   6.628   2.077  16.097 -0.3884 -0.1026 -0.3956
 4396TIP3    H137383   6.541   2.094  16.062 -0.5032  0.3937  0.1188
 4396TIP3    H237384   6.673   2.161  16.093 -1.0419  0.4699  2.3940
 4397TIP3   OH237385   4.220   3.390  14.568  0.2290  0.6518 -0.0095
 4397TIP3    H137386   4.231   3.377  14.474 -3.5115 -1.7849 -0.3147
 4397TIP3    H237387   4.261   3.314  14.609  0.2486  0.7737  0.2039
 4398TIP3   OH237388   6.282   3.981  13.491  0.3042  0.2380  0.3466
 4398TIP3    H137389   6.199   4.028  13.482  0.7054  0.8174 -0.3945
 4398TIP3    H237390   6.346   4.038  13.449  1.5790  1.1374  3.2757
 4399TIP3   OH237391   0.672   6.611  15.675 -0.1636  0.0323 -0.3819
 4399TIP3    H137392   0.619   6.691  15.682 -1.4670 -0.6562 -1.7898
 4399TIP3    H237393   0.622   6.545  15.724  1.2307  0.1673  1.3472
 4400TIP3   OH237394   2.372   3.307  14.450  0.9723  0.1387  0.1374
 4400TIP3    H137395   2.430   3.251  14.501  1.2401 -1.9610 -2.2327
 4400TIP3    H237396   2.317   3.245  14.401 -1.0432  2.0388 -0.1471
 4401TIP3   OH237397   2.915   0.039  16.365 -0.5428 -0.6015  0.0608
 4401TIP3    H137398   2.918   0.027  16.270 -0.5045  0.3905 -0.0786
 4401TIP3    H237399   2.869   0.123  16.377  2.1729  0.8953  0.7645
 4402TIP3   OH237400   5.088   4.301  16.308  0.5874 -0.0872 -0.2625
 4402TIP3    H137401   5.041   4.342  16.236 -0.9362 -0.6360  0.3849
 4402TIP3    H237402   5.028   4.234  16.342  2.2567 -1.5770 -0.0831
 4403TIP3   OH237403   3.171   5.971  15.367 -0.0254  0.0131 -0.5091
 4403TIP3    H137404   3.223   6.051  15.369  0.3726 -0.2608  0.4396
 4403TIP3    H237405   3.080   6.002  15.368  0.1069  0.4708  1.1783
 4404TIP3   OH237406   3.849   1.811  16.605  0.2215 -0.0605  0.4933
 4404TIP3    H137407   3.850   1.858  16.688 -1.8803  0.0301  0.5297
 4404TIP3    H237408   3.808   1.727  16.625 -2.6564  0.8987 -0.8043
 4405TIP3   OH237409   1.586   4.799  16.103 -0.3725  0.0903  0.6343
 4405TIP3    H137410   1.680   4.816  16.105 -0.4951  1.0607 -0.4456
 4405TIP3    H237411   1.550   4.856  16.171  0.1246 -3.0423  3.7576
 4406TIP3   OH237412   5.746   1.819  15.668 -0.1523  0.2880 -0.3376
 4406TIP3    H137413   5.836   1.810  15.636  0.2048  1.2127  0.3878
 4406TIP3    H237414   5.749   1.789  15.759 -1.1404 -2.1994 -1.0394
 4407TIP3   OH237415   1.888   3.533  16.587 -0.3696 -0.6612 -0.4728
 4407TIP3    H137416   1.806   3.506  16.627  0.3359  0.5986  2.0284
 4407TIP3    H237417   1.956   3.494  16.641  0.6749  0.1503 -1.1424
 4408TIP3   OH237418   0.749   2.278  15.317 -0.2834  0.0138  0.1905
 4408TIP3    H137419   0.765   2.220  15.392  0.0490  0.5599  0.5508
 4408TIP3    H237420   0.654   2.283  15.310 -0.3188  0.1352  0.7191
 4409TIP3   OH237421   1.195   0.750  15.875  0.3029 -0.1201  0.2673
 4409TIP3    H137422   1.279   0.719  15.908  0.1048 -0.7623  0.1875
 4409TIP3    H237423   1.129   0.709  15.931  0.0455  0.6405  0.5392
 4410TIP3   OH237424   0.890   0.155  14.501  0.0329 -0.6300 -0.2849
 4410TIP3    H137425   0.806   0.110  14.508  0.7877 -1.9294  0.8458
 4410TIP3    H237426   0.955   0.085  14.499  1.1524  0.3734 -0.0877
 4411TIP3   OH237427   0.646   5.621  14.358  0.2645  0.6552 -0.2619
 4411TIP3    H137428   0.690   5.665  14.285  0.7665  0.8755  0.1693
 4411TIP3    H237429   0.584   5.561  14.316  0.3108  1.0247 -0.8656
 4412TIP3   OH237430   6.501   5.407  13.965 -0.2038  0.2616  0.0902
 4412TIP3    H137431   6.576   5.452  13.926  0.4402  0.1220  1.1472
 4412TIP3    H237432   6.474   5.462  14.038 -1.7319  0.7857 -0.8167
 4413TIP3   OH237433   0.604   3.665  15.532  0.0164 -0.0807 -0.1937
 4413TIP3    H137434   0.591   3.714  15.451 -2.0252  1.8324  1.1496
 4413TIP3    H237435   0.698   3.668  15.549  0.2742  0.8026 -1.6907
 4414TIP3   OH237436   1.909   4.353  15.686  0.4386 -0.2315 -0.6317
 4414TIP3    H137437   1.844   4.381  15.621  0.4978 -0.9029 -0.9876
 4414TIP3    H237438   1.922   4.430  15.741  0.5625  0.4329 -1.5634
 4415TIP3   OH237439   0.383   1.865  14.104  0.1843 -0.0453 -0.1054
 4415TIP3    H137440   0.304   1.907  14.069 -0.7789 -1.5823  0.0830
 4415TIP3    H237441   0.415   1.811  14.032 -0.0477 -0.8834  0.4045
 4416TIP3   OH237442   2.958   0.292  16.781 -0.6971 -0.1251  0.4223
 4416TIP3    H137443   2.877   0.241  16.773 -0.4364 -0.3044 -1.5124
 4416TIP3    H237444   3.000   0.283  16.696  1.0583  0.5051  1.1867
 4417TIP3   OH237445   3.576   5.192  16.023  0.0487  0.2798  0.1464
 4417TIP3    H137446   3.569   5.285  16.042  0.0165  0.0661  1.2618
 4417TIP3    H237447   3.542   5.183  15.934 -0.5597  1.2407  0.2666
 4418TIP3   OH237448   4.111   4.126  14.477 -0.3884  0.1772  0.1092
 4418TIP3    H137449   4.087   4.033  14.476 -1.7072  0.4938  0.1988
 4418TIP3    H237450   4.105   4.153  14.386 -1.3408  0.4821  0.2529
 4419TIP3   OH237451   2.979   4.109  15.815 -0.0362 -0.3662 -0.1233
 4419TIP3    H137452   2.956   4.029  15.862 -0.1144 -0.7582 -0.8154
 4419TIP3    H237453   2.895   4.142  15.782 -0.1362  0.5305  0.9598
 4420TIP3   OH237454   6.037   2.172  15.676 -0.2430  0.3761  0.1663
 4420TIP3    H137455   5.986   2.176  15.595 -0.3784  0.1780  0.2411
 4420TIP3    H237456   6.039   2.263  15.708 -1.3620  0.2386  0.6681
 4421TIP3   OH237457   1.638   6.399  15.965  0.5279 -0.0796 -0.3575
 4421TIP3    H137458   1.702   6.424  16.032 -0.6147  0.0694  0.7294
 4421TIP3    H237459   1.690   6.362  15.894  1.7462 -1.1990  1.0349
 4422TIP3   OH237460   3.277   4.630  14.208 -0.4790 -1.0250 -0.8355
 4422TIP3    H137461   3.274   4.608  14.301 -0.4643  1.3689 -0.1971
 4422TIP3    H237462   3.362   4.597  14.179  0.3928 -0.0684  0.5193
 4423TIP3   OH237463   1.166   5.251  15.162 -0.5539  0.1963  0.7380
 4423TIP3    H137464   1.113   5.296  15.228  0.0334  1.5252  0.3326
 4423TIP3    H237465   1.234   5.207  15.212  0.3215  1.7828  1.0288
 4424TIP3   OH237466   4.421   5.825  16.008  0.0078  0.2804 -0.4459
 4424TIP3    H137467   4.426   5.730  16.001 -1.9619  0.0356  0.5871
 4424TIP3    H237468   4.512   5.854  16.015  0.6651 -1.4712 -1.1499
 4425TIP3   OH237469   1.462   6.152  14.141 -0.2232  0.1068 -0.0742
 4425TIP3    H137470   1.500   6.197  14.065  1.6771 -0.1149  0.6847
 4425TIP3    H237471   1.530   6.156  14.208 -1.3606 -0.8282  1.2019
 4426TIP3   OH237472   3.628   4.315  14.031 -0.1574  0.1209 -0.0682
 4426TIP3    H137473   3.661   4.256  14.098 -0.0026 -1.1933 -1.2475
 4426TIP3    H237474   3.670   4.284  13.950 -0.3121  1.6707 -0.7696
 4427TIP3   OH237475   5.813   4.486  16.060 -0.5687  0.7393 -0.2964
 4427TIP3    H137476   5.724   4.487  16.026 -0.5756  0.2397 -0.2973
 4427TIP3    H237477   5.865   4.446  15.990 -0.4685  0.3429  0.0051
 4428TIP3   OH237478   0.879   6.435  15.189  0.1306 -0.0205 -0.1758
 4428TIP3    H137479   0.973   6.439  15.206  0.4216  0.0236 -1.6609
 4428TIP3    H237480   0.842   6.504  15.244  0.9871  0.0956  0.2718
 4429TIP3   OH237481   4.274   4.185  13.865 -0.4292 -0.0479  0.0986
 4429TIP3    H137482   4.326   4.265  13.864  0.8059 -0.8107  0.8081
 4429TIP3    H237483   4.190   4.212  13.904 -0.1476  0.9590  0.0372
 4430TIP3   OH237484   2.835   2.126  14.216 -0.3794  0.4062  0.4762
 4430TIP3    H137485   2.805   2.041  14.183  1.0131  0.1385 -0.1708
 4430TIP3    H237486   2.909   2.148  14.160  1.3599  0.5088  2.6775
 4431TIP3   OH237487   2.495   0.724  14.777 -0.1195  0.2861 -0.5047
 4431TIP3    H137488   2.559   0.709  14.847 -0.8778  2.3928  0.7555
 4431TIP3    H237489   2.524   0.806  14.736 -2.0723  1.4596  0.2895
 4432TIP3   OH237490   3.703   6.443  16.529  0.0958  0.2017 -0.4124
 4432TIP3    H137491   3.679   6.417  16.618 -0.1925  1.1682 -0.1892
 4432TIP3    H237492   3.796   6.420  16.522  0.5668  1.5749  0.7367
 4433TIP3   OH237493   2.440   2.710  15.265 -0.1410 -0.0674 -0.1162
 4433TIP3    H137494   2.505   2.780  15.267 -0.3694  0.1476  1.4632
 4433TIP3    H237495   2.382   2.733  15.192  0.3192  0.9069 -0.1919
 4434TIP3   OH237496   0.904   1.582  14.729  0.0016 -0.2429  0.2161
 4434TIP3    H137497   0.927   1.556  14.640 -0.7790 -0.6005  0.1119
 4434TIP3    H237498   0.950   1.665  14.743  1.1959 -0.8382 -0.0435
 4435TIP3   OH237499   2.997   2.652  14.196 -0.1265  0.0795 -0.0594
 4435TIP3    H137500   3.047   2.608  14.128 -1.0504 -2.8821  1.0499
 4435TIP3    H237501   2.995   2.744  14.168 -0.0181 -0.8802 -3.7261
 4436TIP3   OH237502   0.733   4.496  14.370  0.8702  0.6143  0.0936
 4436TIP3    H137503   0.709   4.584  14.339 -1.8289 -0.5595 -1.4523
 4436TIP3    H237504   0.689   4.488  14.454 -0.8360 -0.0263 -0.8221
 4437TIP3   OH237505   6.386   5.342  16.407 -0.6252 -0.3913  0.0056
 4437TIP3    H137506   6.316   5.297  16.454 -0.2781 -2.0078 -0.9468
 4437TIP3    H237507   6.463   5.332  16.463 -0.8786  0.3601  0.5001
 4438TIP3   OH237508   6.414   3.316  16.182  0.0079 -0.0115  0.2178
 4438TIP3    H137509   6.442   3.364  16.261 -1.8362 -1.4300  1.8502
 4438TIP3    H237510   6.447   3.227  16.195 -3.3558 -1.2707  1.3613
 4439TIP3   OH237511   0.531   4.902  16.896 -0.1173  0.2099 -0.3633
 4439TIP3    H137512   0.539   4.813  16.861 -0.9015 -0.4580  1.0842
 4439TIP3    H237513   0.466   4.944  16.840 -1.7138 -0.9946  0.4987
 4440TIP3   OH237514   2.830   4.530  15.001 -0.0149  0.0560  0.3985
 4440TIP3    H137515   2.844   4.474  15.078 -1.7861 -0.6069  0.2650
 4440TIP3    H237516   2.846   4.473  14.927  0.6012  0.4037  0.2573
 4441TIP3   OH237517   5.564   2.284  13.726  0.5956 -0.5818  0.0377
 4441TIP3    H137518   5.570   2.308  13.634  2.0674 -1.7167 -0.2101
 4441TIP3    H237519   5.644   2.234  13.743  0.7867  0.3332  2.1609
 4442TIP3   OH237520   1.730   6.629  14.067 -0.3652  0.0130  0.4655
 4442TIP3    H137521   1.644   6.611  14.029 -0.6427 -0.9377  1.4997
 4442TIP3    H237522   1.720   6.608  14.160  0.3350  2.1465  1.0686
 4443TIP3   OH237523   1.342   3.727  15.099 -0.9608  0.4750  0.9700
 4443TIP3    H137524   1.389   3.793  15.150  0.8541  1.3065 -1.5877
 4443TIP3    H237525   1.391   3.719  15.017 -4.2156 -0.0569 -1.1406
 4444TIP3   OH237526   6.508   2.739  16.458 -0.0656  0.0367  0.4745
 4444TIP3    H137527   6.551   2.660  16.491  0.6849 -0.1195 -0.7784
 4444TIP3    H237528   6.438   2.756  16.520 -0.3605 -1.7265  0.6889
 4445TIP3   OH237529   2.851   6.081  14.666  0.0026 -0.0629 -0.1688
 4445TIP3    H137530   2.896   6.105  14.747 -1.1379  0.4348  0.3475
 4445TIP3    H237531   2.785   6.017  14.694 -1.2317  1.0254 -0.4608
 4446TIP3   OH237532   6.157   1.086  15.938  0.4857  0.4308 -0.2883
 4446TIP3    H137533   6.245   1.103  15.973 -0.1525  2.1771  0.5912
 4446TIP3    H237534   6.098   1.132  15.998 -1.0242 -0.4281 -1.0472
 4447TIP3   OH237535   1.099   3.687  13.981  0.1426  0.1668 -0.1943
 4447TIP3    H137536   1.095   3.683  13.886  0.9862 -0.6232 -0.2194
 4447TIP3    H237537   1.155   3.613  14.006  0.3404  0.6450  0.8807
 4448TIP3   OH237538   3.461   1.548  15.970  0.2180  0.5207  0.3546
 4448TIP3    H137539   3.556   1.538  15.966  0.2490  0.9771 -0.1442
 4448TIP3    H237540   3.439   1.529  16.061  0.7756  0.3408  0.4588
 4449TIP3   OH237541   0.403   0.726  16.444  0.4354  0.0756  0.2180
 4449TIP3    H137542   0.316   0.752  16.415  0.4176 -0.6515 -0.3998
 4449TIP3    H237543   0.445   0.808  16.471 -1.0652  0.2534  2.2913
 4450TIP3   OH237544   5.254   4.617  14.706  0.3077  0.0362  0.3137
 4450TIP3    H137545   5.160   4.617  14.689  0.4851  0.7633 -0.7731
 4450TIP3    H237546   5.288   4.546  14.652  0.7361  1.6675 -1.6757
 4451TIP3   OH237547   1.016   6.632  14.391 -0.2797  0.4580  0.2075
 4451TIP3    H137548   1.074   6.630  14.467 -1.3375  1.1978  1.0863
 4451TIP3    H237549   0.970   6.548  14.393  0.7239 -0.1179 -0.4761
 4452TIP3   OH237550   3.649   0.172  13.635 -0.0535 -0.0897 -0.4434
 4452TIP3    H137551   3.740   0.145  13.622 -0.7791 -1.8293 -2.6567
 4452TIP3    H237552   3.620   0.199  13.548 -2.3416 -2.0150 -0.3761
 4453TIP3   OH237553   0.896   2.088  15.131  0.0314 -0.6428  0.4807
 4453TIP3    H137554   0.917   2.159  15.070 -1.1602 -1.0130 -0.3923
 4453TIP3    H237555   0.893   2.131  15.217  1.0883  0.0073  0.2177
 4454TIP3   OH237556   2.082   5.660  14.294 -0.1475 -0.2585  0.5603
 4454TIP3    H137557   1.998   5.706  14.308 -0.9081 -1.8165  1.3880
 4454TIP3    H237558   2.131   5.677  14.374  0.4157  0.7622  0.0217
 4455TIP3   OH237559   3.372   4.285  14.739  0.5917  0.5351  0.6217
 4455TIP3    H137560   3.440   4.311  14.677 -1.5319  3.5926 -0.6475
 4455TIP3    H237561   3.402   4.321  14.823  0.6102  1.8403  0.0827
 4456TIP3   OH237562   6.302   4.333  13.994 -0.4944  0.4174 -0.1065
 4456TIP3    H137563   6.386   4.345  14.039  0.3267 -1.0298 -1.1660
 4456TIP3    H237564   6.255   4.269  14.048  0.2564 -0.8807 -0.9331
 4457TIP3   OH237565   1.224   5.822  15.222  0.4518  0.3219  0.0028
 4457TIP3    H137566   1.312   5.834  15.256  1.0200  1.2662 -1.6651
 4457TIP3    H237567   1.183   5.908  15.230  0.3108  0.3465 -0.8352
 4458TIP3   OH237568   6.137   1.718  16.330 -0.4013 -0.1259  0.0685
 4458TIP3    H137569   6.160   1.675  16.412 -1.1817 -2.0995 -0.6735
 4458TIP3    H237570   6.091   1.798  16.356 -0.4443 -0.6109  1.5499
 4459TIP3   OH237571   1.740   3.591  15.880  0.2780 -0.2653 -0.0608
 4459TIP3    H137572   1.652   3.572  15.847 -0.7435 -1.4441  2.9417
 4459TIP3    H237573   1.765   3.513  15.929  2.6452  0.4100 -0.0711
 4460TIP3   OH237574   1.253   5.979  14.113  0.1123  0.4572  0.2775
 4460TIP3    H137575   1.190   6.007  14.048  1.0702  0.1717 -0.8084
 4460TIP3    H237576   1.317   6.050  14.117 -0.3926  0.8713  1.5704
 4461TIP3   OH237577   5.875   6.549  14.992 -0.6147 -0.1437  0.5532
 4461TIP3    H137578   5.782   6.536  14.972 -0.9356  1.9615  0.4314
 4461TIP3    H237579   5.877   6.628  15.046  1.2075  0.8344 -0.8190
 4462TIP3   OH237580   5.267   0.704  14.432 -0.3107 -0.4435  0.0370
 4462TIP3    H137581   5.273   0.617  14.473  0.6466 -0.4856 -0.1822
 4462TIP3    H237582   5.355   0.740  14.438 -0.4290  0.0349 -0.9332
 4463TIP3   OH237583   5.443   2.298  15.886 -0.2205  0.2993  0.2280
 4463TIP3    H137584   5.479   2.292  15.975  1.7931 -0.7619 -0.5941
 4463TIP3    H237585   5.399   2.214  15.872 -0.7551  0.5639  0.2990
 4464TIP3   OH237586   6.351   3.947  15.684  0.2294 -0.1274 -0.0135
 4464TIP3    H137587   6.364   3.918  15.594  0.0837 -0.8484  0.1885
 4464TIP3    H237588   6.418   3.900  15.734  1.5896  1.7346  0.0022
 4465TIP3   OH237589   4.310   3.519  16.505  0.2985 -0.0078  0.2575
 4465TIP3    H137590   4.388   3.465  16.491 -0.0729 -0.5573  0.2772
 4465TIP3    H237591   4.284   3.501  16.595 -0.3023 -0.4347  0.0091
 4466TIP3   OH237592   2.681   3.270  16.840 -0.3724 -0.7930 -0.0321
 4466TIP3    H137593   2.608   3.233  16.889  0.5012 -3.3091 -0.4357
 4466TIP3    H237594   2.758   3.223  16.873  1.0233  1.3542 -0.0164
 4467TIP3   OH237595   2.544   0.382  16.501  0.1334  0.1150  0.1085
 4467TIP3    H137596   2.464   0.332  16.513  1.1643 -1.3559  1.3322
 4467TIP3    H237597   2.562   0.419  16.588  0.6253  0.6676 -0.2230
 4468TIP3   OH237598   2.265   4.765  15.494 -0.3406  0.1330 -0.5603
 4468TIP3    H137599   2.300   4.715  15.567 -0.8903 -1.4242 -1.3076
 4468TIP3    H237600   2.172   4.776  15.516 -0.5512 -0.5099 -1.0815
 4469TIP3   OH237601   3.335   4.814  14.806  0.0597  0.0627  0.6813
 4469TIP3    H137602   3.404   4.881  14.815 -0.8814  0.9937  1.2527
 4469TIP3    H237603   3.266   4.844  14.866 -1.3096 -0.2532 -0.6794
 4470TIP3   OH237604   2.304   2.216  15.481  0.2268 -0.9441 -0.0099
 4470TIP3    H137605   2.329   2.155  15.410  1.4808 -2.0612  1.3177
 4470TIP3    H237606   2.386   2.234  15.526 -0.5699 -0.4172  1.2794
 4471TIP3   OH237607   0.646   5.052  13.793  0.0471 -0.8125  0.1579
 4471TIP3    H137608   0.557   5.022  13.811  0.0115 -0.7820  0.0340
 4471TIP3    H237609   0.677   5.087  13.876 -0.6732  0.7526 -0.2028
 4472TIP3   OH237610   4.363   5.250  15.185 -0.4063  0.0046  0.7088
 4472TIP3    H137611   4.395   5.235  15.274 -1.2499 -0.4423  0.9488
 4472TIP3    H237612   4.356   5.163  15.147 -2.0488  0.0082  0.9323
 4473TIP3   OH237613   6.107   4.213  16.479  0.0460  0.2534  0.4135
 4473TIP3    H137614   6.178   4.276  16.493 -0.4141  0.7227  0.7177
 4473TIP3    H237615   6.037   4.265  16.440  0.6491 -0.6595 -2.0867
 4474TIP3   OH237616   4.434   2.561  14.154  0.2123  0.0246  0.1096
 4474TIP3    H137617   4.481   2.639  14.184  0.0199  0.4104 -0.5578
 4474TIP3    H237618   4.479   2.536  14.074  0.3131 -0.5933  0.3587
 4475TIP3   OH237619   6.103   4.502  13.923 -0.0069 -0.8852 -0.3556
 4475TIP3    H137620   6.103   4.478  13.830  1.4828 -0.1911 -0.5559
 4475TIP3    H237621   6.182   4.461  13.959 -2.2430 -4.0310  1.4571
 4476TIP3   OH237622   3.195   2.616  16.500  0.2323 -0.2342 -0.0817
 4476TIP3    H137623   3.177   2.648  16.411  1.1019 -1.0882 -0.5835
 4476TIP3    H237624   3.136   2.542  16.511  0.1801 -0.1767  0.0291
 4477TIP3   OH237625   4.747   1.918  16.340  0.2638 -0.4056  0.3630
 4477TIP3    H137626   4.738   1.982  16.410 -1.4779 -0.3074  0.0814
 4477TIP3    H237627   4.722   1.964  16.260  4.8563  0.3309 -0.9227
 4478TIP3   OH237628   3.911   2.388  16.488 -0.5105  0.7162  0.2201
 4478TIP3    H137629   3.997   2.416  16.456  0.0046 -0.8467  0.1741
 4478TIP3    H237630   3.851   2.412  16.417  0.2226 -0.1997 -0.7390
 4479TIP3   OH237631   6.309   5.696  13.543  0.6473  0.0415  0.7121
 4479TIP3    H137632   6.350   5.652  13.468 -0.8092 -0.8695  0.4140
 4479TIP3    H237633   6.348   5.783  13.544 -0.1326  0.4969 -1.8355
 4480TIP3   OH237634   3.801   5.501  14.790  0.2686 -0.0992  0.1764
 4480TIP3    H137635   3.822   5.462  14.875 -1.7531 -1.3406  0.1783
 4480TIP3    H237636   3.733   5.565  14.808 -0.7476 -0.9239 -0.5403
 4481TIP3   OH237637   1.605   2.356  13.578 -0.3014 -0.6608 -0.7685
 4481TIP3    H137638   1.577   2.336  13.667 -0.6773 -1.0722 -0.9788
 4481TIP3    H237639   1.608   2.452  13.575  1.0590 -0.6476  0.0986
 4482TIP3   OH237640   0.903   5.131  14.672  0.0641 -0.2969  0.1640
 4482TIP3    H137641   0.981   5.169  14.631 -1.0069  1.8703  0.0198
 4482TIP3    H237642   0.889   5.183  14.751 -0.8769 -1.0628  0.5268
 4483TIP3   OH237643   5.329   6.475  14.491  0.2770 -0.0284 -0.0565
 4483TIP3    H137644   5.322   6.480  14.396 -1.1355 -0.1542  0.0247
 4483TIP3    H237645   5.315   6.565  14.521 -0.2914 -0.1602  0.0807
 4484TIP3   OH237646   1.203   2.027  15.241 -0.2183 -0.0697 -0.0871
 4484TIP3    H137647   1.146   1.996  15.311 -0.7723  1.6037  0.2282
 4484TIP3    H237648   1.181   2.119  15.230 -0.5422 -0.3958 -2.8599
 4485TIP3   OH237649   3.420   0.341  14.922  0.4720 -1.0277  0.0023
 4485TIP3    H137650   3.454   0.261  14.962 -0.6328 -2.0027 -0.8984
 4485TIP3    H237651   3.367   0.310  14.848  0.9302  0.6019 -1.0747
 4486TIP3   OH237652   2.075   3.697  14.392 -0.1068  0.4483  0.0175
 4486TIP3    H137653   2.155   3.653  14.419  0.2564  0.5503 -0.8577
 4486TIP3    H237654   2.033   3.636  14.332 -0.6160  0.4609  0.3548
 4487TIP3   OH237655   3.900   3.639  14.515  0.0834 -0.2786 -0.6507
 4487TIP3    H137656   3.881   3.553  14.477  1.5216 -1.6137  1.4179
 4487TIP3    H237657   3.941   3.619  14.599  1.3367  2.4463 -0.5136
 4488TIP3   OH237658   3.627   4.600  16.165 -0.5521  0.4723  0.4578
 4488TIP3    H137659   3.636   4.514  16.125  0.6073 -0.0640  1.8045
 4488TIP3    H237660   3.714   4.620  16.201 -0.5933  2.5071 -0.4001
 4489TIP3   OH237661   2.485   2.058  16.135  0.0256 -0.0051  0.1807
 4489TIP3    H137662   2.433   2.021  16.206  1.4607  1.3183  2.0248
 4489TIP3    H237663   2.420   2.088  16.072 -1.3094 -1.2139  0.9065
 4490TIP3   OH237664   3.929   5.890  15.534  0.2823 -0.4151 -0.3794
 4490TIP3    H137665   3.896   5.801  15.544  0.7806 -0.4322  1.5444
 4490TIP3    H237666   4.020   5.879  15.507 -0.0087 -0.4495 -1.3729
 4491TIP3   OH237667   5.106   2.526  14.093 -0.3456 -0.6959  0.0073
 4491TIP3    H137668   5.023   2.572  14.110 -0.7332 -2.2000  2.6556
 4491TIP3    H237669   5.079   2.446  14.047 -0.2241 -0.6503 -0.1438
 4492TIP3   OH237670   5.273   2.378  16.914 -0.4634  0.1928 -0.2671
 4492TIP3    H137671   5.194   2.404  16.867 -1.0014 -1.1983 -0.1682
 4492TIP3    H237672   5.251   2.295  16.955  1.0500 -0.2143 -0.2076
 4493TIP3   OH237673   1.508   5.184  15.579  0.1948 -0.0236  0.2023
 4493TIP3    H137674   1.564   5.163  15.505  0.5992  2.1250 -0.1720
 4493TIP3    H237675   1.569   5.200  15.651 -0.1895 -1.9609  1.0008
 4494TIP3   OH237676   4.129   5.838  14.930  0.6099 -0.3150 -0.2084
 4494TIP3    H137677   4.058   5.841  14.867  1.3031 -2.0097 -1.1438
 4494TIP3    H237678   4.149   5.745  14.940  1.9616  0.0490  0.8683
 4495TIP3   OH237679   2.556   1.947  14.380  0.2264 -0.2181 -0.3731
 4495TIP3    H137680   2.471   1.909  14.401 -1.3611  1.4486 -3.2409
 4495TIP3    H237681   2.589   1.892  14.309  2.4278 -1.8066  1.6894
 4496TIP3   OH237682   4.651   0.812  17.156 -0.0781 -0.1727  0.4359
 4496TIP3    H137683   4.608   0.729  17.177  0.1732 -0.2500  0.6451
 4496TIP3    H237684   4.710   0.791  17.083  0.5180 -0.3383  0.9563
 4497TIP3   OH237685   4.748   5.784  15.605  0.4990  0.4276 -0.0915
 4497TIP3    H137686   4.794   5.755  15.526  0.3346 -0.0178 -0.0299
 4497TIP3    H237687   4.655   5.778  15.582  0.4598  0.7408 -0.0167
 4498TIP3   OH237688   0.818   4.998  15.149  0.3956  1.0474  0.0846
 4498TIP3    H137689   0.752   4.936  15.117  1.0845 -0.2728  1.0735
 4498TIP3    H237690   0.851   5.041  15.071  0.6099 -0.6010 -0.7891
 4499TIP3   OH237691   1.973   0.515  13.864  0.1229 -0.3482  0.2898
 4499TIP3    H137692   1.978   0.421  13.846 -0.3043 -0.5615  1.2512
 4499TIP3    H237693   1.891   0.526  13.912  0.0999  0.5391  0.0651
 4500TIP3   OH237694   4.887   0.885  14.155 -0.0453 -0.0858  0.5245
 4500TIP3    H137695   4.846   0.860  14.072 -0.1096 -0.7014  0.7376
 4500TIP3    H237696   4.980   0.862  14.144 -0.0602 -0.1992  0.6378
 4501TIP3   OH237697   6.486   3.206  15.185  0.1697  0.1127 -0.1756
 4501TIP3    H137698   6.535   3.124  15.193  0.4977  0.3127 -0.1169
 4501TIP3    H237699   6.406   3.181  15.139 -0.9540 -0.7567  2.0909
 4502TIP3   OH237700   4.965   5.511  14.873  0.6066 -0.3244 -0.1868
 4502TIP3    H137701   4.896   5.541  14.814  1.1958  0.3981 -0.5400
 4502TIP3    H237702   5.002   5.592  14.909  0.5299 -0.7483  0.8587
 4503TIP3   OH237703   6.405   0.055  16.432  0.0112  0.7219  0.6047
 4503TIP3    H137704   6.343  -0.018  16.426  0.6281  0.2331  0.0813
 4503TIP3    H237705   6.480   0.027  16.379 -0.5470  2.5496 -1.2869
 4504TIP3   OH237706   2.447   5.841  15.638  0.3472 -0.2270 -0.1630
 4504TIP3    H137707   2.498   5.907  15.685 -0.0645  0.3559 -0.5220
 4504TIP3    H237708   2.359   5.848  15.675  0.0671  0.1064 -0.8815
 4505TIP3   OH237709   2.696   1.177  14.885 -0.0063  0.4984  0.3804
 4505TIP3    H137710   2.753   1.181  14.961  0.2908  0.1847  0.1771
 4505TIP3    H237711   2.691   1.268  14.853 -0.9221  0.8038  1.3411
 4506TIP3   OH237712   0.059   1.552  16.878 -0.1828  0.7313 -0.0475
 4506TIP3    H137713  -0.008   1.485  16.892 -0.3113  0.7353 -0.6299
 4506TIP3    H237714   0.140   1.513  16.913 -0.4369  0.6375  0.4455
 4507TIP3   OH237715   3.470   1.311  14.949 -0.2795  0.6488  0.6788
 4507TIP3    H137716   3.384   1.289  14.984 -1.1354  0.6886 -1.2775
 4507TIP3    H237717   3.529   1.247  14.989 -1.7017 -1.2360 -0.0529
 4508TIP3   OH237718   5.271   2.019  13.702 -0.0082 -0.1145  0.0715
 4508TIP3    H137719   5.318   2.013  13.619  0.8773  0.2439  0.5338
 4508TIP3    H237720   5.189   2.062  13.680  0.3678  0.2965 -0.5599
 4509TIP3   OH237721   1.108   3.678  17.141 -0.4709  0.1569 -0.3359
 4509TIP3    H137722   1.135   3.592  17.109 -1.0636 -0.1690  0.0369
 4509TIP3    H237723   1.039   3.660  17.204  0.7969  0.7577  1.3035
 4510TIP3   OH237724   0.049   6.019  14.888  0.4819  0.3953 -0.5449
 4510TIP3    H137725   0.003   6.073  14.953 -1.2250 -0.7498 -0.7295
 4510TIP3    H237726   0.046   6.071  14.807 -0.2236  0.4699 -0.4762
 4511TIP3   OH237727   1.631   6.619  14.699  0.3018 -0.9862 -0.1512
 4511TIP3    H137728   1.678   6.687  14.748 -0.3674 -1.0965  0.6736
 4511TIP3    H237729   1.573   6.668  14.640 -0.3025 -0.8193  0.5613
 4512TIP3   OH237730   1.574   4.221  16.710  0.4756  1.0889 -0.0053
 4512TIP3    H137731   1.534   4.307  16.700 -0.7470  0.3013 -2.5669
 4512TIP3    H237732   1.554   4.175  16.629  2.3953 -1.1112  0.6637
 4513TIP3   OH237733   6.623   3.031  13.927  0.2135 -0.4995 -0.8492
 4513TIP3    H137734   6.631   2.996  14.016  1.6213  0.4181 -0.5801
 4513TIP3    H237735   6.698   2.994  13.881 -0.4684 -0.9092 -1.6586
 4514TIP3   OH237736   1.136   6.350  16.255 -0.1266 -0.0440 -0.3347
 4514TIP3    H137737   1.177   6.407  16.189  0.2958  0.4139  0.3146
 4514TIP3    H237738   1.208   6.298  16.289 -0.3714 -0.3843 -0.3348
 4515TIP3   OH237739   3.500   3.386  13.799  0.7628 -0.1542  0.2402
 4515TIP3    H137740   3.584   3.343  13.784  0.6624  0.0355 -1.0205
 4515TIP3    H237741   3.510   3.473  13.760  0.8439  0.8708  2.4185
 4516TIP3   OH237742   5.920   5.527  15.894  0.0813  0.2139  0.9013
 4516TIP3    H137743   5.833   5.554  15.925 -0.0516  2.1822 -0.9150
 4516TIP3    H237744   5.980   5.562  15.959 -0.3429  1.7149  0.5272
 4517TIP3   OH237745   3.336   1.160  16.884 -0.0142 -0.2983  0.0398
 4517TIP3    H137746   3.309   1.168  16.793  0.8903  0.5584 -0.1716
 4517TIP3    H237747   3.306   1.073  16.911 -0.3173 -0.5432 -1.0588
 4518TIP3   OH237748   2.280   4.743  16.261 -0.0651  0.4448  0.1276
 4518TIP3    H137749   2.337   4.817  16.282 -0.8133  0.7093  1.3443
 4518TIP3    H237750   2.338   4.667  16.264  0.8164  0.9987 -1.6308
 4519TIP3   OH237751   5.533   6.250  14.184  0.4046 -0.3557  0.0968
 4519TIP3    H137752   5.458   6.242  14.243 -0.2379 -0.6904 -0.7337
 4519TIP3    H237753   5.534   6.168  14.135  1.6225 -0.5587  0.4262
 4520TIP3   OH237754   6.675   0.889  14.270  0.0562 -0.0938 -0.2404
 4520TIP3    H137755   6.763   0.891  14.234 -0.1903 -0.1767 -0.8533
 4520TIP3    H237756   6.642   0.802  14.247  0.4072 -0.7187  1.4310
 4521TIP3   OH237757   4.669   1.422  14.662  0.0112  0.1998  0.0067
 4521TIP3    H137758   4.608   1.401  14.591  1.2617 -0.0195 -1.0396
 4521TIP3    H237759   4.637   1.506  14.696 -0.0532  0.8370 -1.5142
 4522TIP3   OH237760   4.008   1.786  16.295  0.0293  0.3363  0.6101
 4522TIP3    H137761   4.019   1.864  16.350  1.4397  0.9008 -0.3954
 4522TIP3    H237762   4.066   1.721  16.335  0.0616  0.3207  0.5377
 4523TIP3   OH237763   5.504   4.773  15.964  0.6082  0.6586 -0.2820
 4523TIP3    H137764   5.592   4.771  15.926  0.6226  2.0066 -0.3585
 4523TIP3    H237765   5.447   4.793  15.891  0.6103  3.0367  0.2901
 4524TIP3   OH237766   1.347   3.865  17.141  0.3735  0.0388  0.4431
 4524TIP3    H137767   1.390   3.830  17.063 -0.4488  2.5759 -1.2623
 4524TIP3    H237768   1.276   3.803  17.159 -1.3098  0.8598 -2.7084
 4525TIP3   OH237769   5.088   3.846  13.947 -0.6180 -0.4589 -0.0168
 4525TIP3    H137770   5.011   3.863  13.893 -1.0435  2.3474  1.2957
 4525TIP3    H237771   5.160   3.838  13.884 -1.3576  1.0071 -1.1154
 4526TIP3   OH237772   1.561   6.466  15.622 -0.2271 -0.0806  0.2116
 4526TIP3    H137773   1.562   6.448  15.528 -0.0943 -0.1134  0.2190
 4526TIP3    H237774   1.612   6.395  15.661  0.1325  0.1956  0.2601
 4527TIP3   OH237775   0.363   5.705  16.151  0.4505  0.3144 -0.2841
 4527TIP3    H137776   0.386   5.637  16.087 -0.9608 -1.4461  0.9901
 4527TIP3    H237777   0.446   5.727  16.194  0.7404 -1.5704  0.1849
 4528TIP3   OH237778   1.280   1.406  13.377  0.1211  0.1984  0.1796
 4528TIP3    H137779   1.358   1.444  13.415 -0.0067 -0.1526  0.8159
 4528TIP3    H237780   1.238   1.359  13.450 -0.2620 -0.2750 -0.3313
 4529TIP3   OH237781   5.294   6.584  14.240  0.3416  0.2059 -0.3611
 4529TIP3    H137782   5.377   6.626  14.220 -0.6412  2.3533 -0.1617
 4529TIP3    H237783   5.242   6.593  14.160 -0.4358  0.7909  0.1895
 4530TIP3   OH237784   4.680   1.067  13.916 -0.2329  0.5066  0.0933
 4530TIP3    H137785   4.730   1.046  13.837 -0.8550  0.0796 -0.1963
 4530TIP3    H237786   4.677   1.163  13.917 -0.2414  0.5187 -0.4175
 4531TIP3   OH237787   2.525   0.719  15.448  0.0098 -0.0838 -0.4647
 4531TIP3    H137788   2.438   0.725  15.487 -0.0134 -0.4472 -0.4510
 4531TIP3    H237789   2.515   0.653  15.379  0.1623  0.2169 -0.7762
 4532TIP3   OH237790   2.637   0.348  14.326  0.5348  0.6729 -0.1868
 4532TIP3    H137791   2.570   0.406  14.290 -2.5833 -1.8038  1.1778
 4532TIP3    H237792   2.677   0.398  14.397 -1.4093  1.5433  0.3659
 4533TIP3   OH237793   6.400   5.097  15.599 -0.0195  0.1863  0.2910
 4533TIP3    H137794   6.332   5.030  15.601  1.6290 -1.6482 -1.5405
 4533TIP3    H237795   6.369   5.161  15.535  1.1138 -2.0918 -2.7425
 4534TIP3   OH237796   4.438   2.231  16.031  0.0876 -0.5873  0.8363
 4534TIP3    H137797   4.357   2.181  16.027 -1.0199  1.1284  0.8614
 4534TIP3    H237798   4.417   2.306  16.086  1.1448  0.8518 -0.6352
 4535TIP3   OH237799   0.093   6.245  16.551  0.9506 -0.1767 -0.4825
 4535TIP3    H137800   0.025   6.310  16.568  1.5681  0.6293 -1.0043
 4535TIP3    H237801   0.113   6.207  16.637  0.6886  0.4416 -0.1446
 4536TIP3   OH237802   5.711   1.314  17.283 -0.1744  0.1950 -0.0145
 4536TIP3    H137803   5.758   1.241  17.242 -1.2008 -0.0632 -0.7722
 4536TIP3    H237804   5.780   1.367  17.322  0.7973  0.0142 -1.3821
 4537TIP3   OH237805   3.060   4.139  16.959 -0.0307 -0.2722 -0.1762
 4537TIP3    H137806   3.031   4.079  17.028  1.7476 -0.2117  0.7001
 4537TIP3    H237807   3.087   4.082  16.887  1.5839 -0.5732  0.6256
 4538TIP3   OH237808   6.604   3.655  15.164 -0.2507 -0.0542  0.4002
 4538TIP3    H137809   6.665   3.580  15.168 -0.1234  0.0871  2.1277
 4538TIP3    H237810   6.522   3.619  15.197 -0.5158  0.2825  0.0991
 4539TIP3   OH237811   1.276   4.551  15.017  0.1151  0.5230 -0.6563
 4539TIP3    H137812   1.235   4.483  14.964  0.5475 -2.1865  2.2104
 4539TIP3    H237813   1.353   4.577  14.966 -0.4951 -0.5312 -2.2111
 4540TIP3   OH237814   0.889   4.885  15.724  0.0160 -0.2734 -0.2794
 4540TIP3    H137815   0.902   4.962  15.669  0.9563  0.2849  0.6890
 4540TIP3    H237816   0.825   4.832  15.676 -0.7591  1.1625 -0.9023
 4541TIP3   OH237817   4.369   3.231  16.840 -0.1889 -0.4965 -0.3111
 4541TIP3    H137818   4.333   3.162  16.896 -0.9620  0.2337  0.1102
 4541TIP3    H237819   4.459   3.242  16.871 -0.8922  0.5777  1.4825
 4542TIP3   OH237820   6.197   4.044  16.253 -0.2634 -0.1945  0.4752
 4542TIP3    H137821   6.157   4.121  16.292 -1.4985  0.1293 -1.2941
 4542TIP3    H237822   6.157   4.038  16.166  0.4918 -2.2936  0.2186
 4543TIP3   OH237823   0.193   6.493  17.039  0.1974  0.3569 -0.1468
 4543TIP3    H137824   0.143   6.504  16.958  1.2669  1.0781 -0.7217
 4543TIP3    H237825   0.208   6.582  17.070 -0.5945  0.0817  1.1158
 4544TIP3   OH237826   3.517   0.589  15.257 -0.1195  0.2594  0.4221
 4544TIP3    H137827   3.445   0.593  15.195  0.6071 -0.0121 -0.4521
 4544TIP3    H237828   3.556   0.677  15.253  0.4350 -0.0081 -0.1279
 4545TIP3   OH237829   6.492   6.544  15.902 -0.1320 -0.8614  0.2883
 4545TIP3    H137830   6.550   6.565  15.829  0.3576  0.0238  0.9141
 4545TIP3    H237831   6.492   6.448  15.905  2.3429 -0.9199  1.0316
 4546TIP3   OH237832   1.919   5.493  14.151 -0.2455  0.8372  0.5973
 4546TIP3    H137833   1.862   5.567  14.130 -0.6870  0.9401  2.0523
 4546TIP3    H237834   1.999   5.534  14.185  0.3058  0.6742 -0.4808
 4547TIP3   OH237835   3.658   0.987  14.686  0.5709  0.1468  0.0307
 4547TIP3    H137836   3.735   0.971  14.741  0.6072 -0.9185 -0.3157
 4547TIP3    H237837   3.692   1.035  14.610  0.6302  1.0291  0.5938
 4548TIP3   OH237838   4.341   0.857  17.189  0.0781  0.0439  0.2041
 4548TIP3    H137839   4.433   0.834  17.186  0.1379  0.2831  0.1701
 4548TIP3    H237840   4.295   0.773  17.198  0.3353 -0.0308  0.9133
 4549TIP3   OH237841   0.009   0.995  16.699 -0.1265  0.0403 -0.0717
 4549TIP3    H137842  -0.051   1.023  16.768 -0.9058 -0.3256 -0.5981
 4549TIP3    H237843   0.084   0.958  16.747 -0.8478 -0.6064  0.5819
 4550TIP3   OH237844   0.853   6.602  17.013  0.1031 -0.2958 -0.3447
 4550TIP3    H137845   0.798   6.600  17.091  1.4411  0.6053  0.6712
 4550TIP3    H237846   0.792   6.614  16.940 -0.9940  1.4120  0.7972
 4551TIP3   OH237847   1.736   5.738  16.184 -0.2362  0.6446 -0.3887
 4551TIP3    H137848   1.830   5.727  16.194 -0.4042 -1.7125 -0.8724
 4551TIP3    H237849   1.723   5.833  16.182  2.0558  1.0229  0.1183
 4552TIP3   OH237850   1.591   1.861  14.497  0.0903 -0.4144 -0.0247
 4552TIP3    H137851   1.637   1.815  14.427  0.0912  1.4355 -1.2920
 4552TIP3    H237852   1.609   1.809  14.575  1.4053 -1.6657 -1.1094
 4553TIP3   OH237853   5.849   0.356  15.188  0.0171 -0.0123  0.2736
 4553TIP3    H137854   5.883   0.380  15.274  0.3267 -1.4205  0.5710
 4553TIP3    H237855   5.899   0.409  15.126 -0.6917  1.5351  0.9744
 4554TIP3   OH237856   6.669   0.993  15.231 -0.3892  0.4449 -0.2069
 4554TIP3    H137857   6.720   1.061  15.186 -1.3535  0.2881 -1.6135
 4554TIP3    H237858   6.727   0.917  15.231  0.4586  1.0481  0.8220
 4555TIP3   OH237859   5.634   6.482  14.874 -0.2567  0.2985 -0.3100
 4555TIP3    H137860   5.648   6.397  14.831 -0.5208  0.8774 -1.5954
 4555TIP3    H237861   5.564   6.523  14.823 -1.0679  0.7509  1.1144
 4556TIP3   OH237862   0.160   4.519  15.866  0.0353 -0.3299 -0.0130
 4556TIP3    H137863   0.212   4.484  15.793  0.1540  0.9178 -0.5501
 4556TIP3    H237864   0.225   4.543  15.932  0.1864  1.2247 -0.6824
 4557TIP3   OH237865   2.647   2.466  15.400  0.2827  0.0052  0.3658
 4557TIP3    H137866   2.694   2.490  15.320  2.0308 -0.5702  1.1765
 4557TIP3    H237867   2.578   2.533  15.408  0.5956  0.5565 -1.1549
 4558TIP3   OH237868   5.725   2.503  15.497  0.3061 -0.2645 -0.2501
 4558TIP3    H137869   5.687   2.427  15.453  1.0466  0.0486 -1.4716
 4558TIP3    H237870   5.695   2.495  15.588 -0.2482 -1.5960 -0.5190
 4559TIP3   OH237871   0.742   5.414  13.342 -0.0620 -0.1854  0.4016
 4559TIP3    H137872   0.710   5.426  13.431 -0.8414  0.1279  0.0855
 4559TIP3    H237873   0.679   5.356  13.301  0.3325 -0.3810  0.0715
 4560TIP3   OH237874   5.530   5.442  15.937 -0.8922  0.0367 -0.4347
 4560TIP3    H137875   5.538   5.511  15.872  1.4341 -0.4207 -0.7392
 4560TIP3    H237876   5.470   5.378  15.898 -1.2201  0.7732 -1.1631
 4561TIP3   OH237877   2.268   2.746  13.833  0.4468  0.7284  0.2644
 4561TIP3    H137878   2.198   2.717  13.775 -0.2387  1.6017  0.6297
 4561TIP3    H237879   2.311   2.817  13.785  2.9482 -1.5960 -1.1953
 4562TIP3   OH237880   0.530   0.609  14.951 -0.6174  0.4253  0.5411
 4562TIP3    H137881   0.566   0.693  14.979 -0.9749  0.6501  0.3320
 4562TIP3    H237882   0.519   0.559  15.032  0.8895  0.0533  0.5421
 4563TIP3   OH237883   5.001   1.799  16.251 -0.1202 -0.1381  0.2637
 4563TIP3    H137884   5.022   1.706  16.252  0.8244 -0.0058 -1.9511
 4563TIP3    H237885   4.908   1.803  16.274 -0.8456 -1.9073 -2.0030
 4564TIP3   OH237886   3.624   1.895  14.239 -0.5512 -0.1472  0.1314
 4564TIP3    H137887   3.680   1.841  14.294 -0.0970 -0.8596 -0.9932
 4564TIP3    H237888   3.674   1.975  14.225  0.7785 -1.2079 -1.7760
 4565TIP3   OH237889   1.594   0.267  15.358 -0.6470  0.5084  0.0884
 4565TIP3    H137890   1.566   0.355  15.382  1.4360  0.9454  1.2107
 4565TIP3    H237891   1.557   0.252  15.271 -0.3201  2.8615 -0.5309
 4566TIP3   OH237892   5.368   3.905  15.924 -0.1959 -0.4715  0.2637
 4566TIP3    H137893   5.405   3.976  15.871  0.7973 -2.0056 -1.1974
 4566TIP3    H237894   5.406   3.919  16.011 -1.5137  1.8348  0.5590
 4567TIP3   OH237895   5.170   6.368  15.388 -0.1918 -0.0485  0.0451
 4567TIP3    H137896   5.192   6.457  15.418 -1.1654  0.2705 -0.1295
 4567TIP3    H237897   5.093   6.381  15.332 -0.7666 -1.0781  0.5673
 4568TIP3   OH237898   0.166   4.695  15.650  1.2204 -0.6039 -0.1646
 4568TIP3    H137899   0.081   4.728  15.620  1.9392  1.2150 -0.3515
 4568TIP3    H237900   0.144   4.624  15.710 -0.5118  0.7938  0.9689
 4569TIP3   OH237901   4.459   0.395  15.470 -0.5514  0.5989  0.0972
 4569TIP3    H137902   4.427   0.320  15.420 -0.4797  0.2368  0.5882
 4569TIP3    H237903   4.553   0.395  15.457 -0.5720  0.7125 -0.0506
 4570TIP3   OH237904   6.061   4.955  16.134  0.7408  0.5926  0.0872
 4570TIP3    H137905   6.085   4.899  16.060  0.2012 -0.8202  0.9374
 4570TIP3    H237906   6.043   4.894  16.205 -2.5883  1.6545  0.3150
 4571TIP3   OH237907   5.092   5.218  15.528  0.7941  0.2211  0.0404
 4571TIP3    H137908   5.137   5.149  15.480  1.6818  0.6057  0.2913
 4571TIP3    H237909   5.017   5.240  15.474  1.6328  0.4729 -1.0531
 4572TIP3   OH237910   5.902   3.313  16.179 -0.4595  0.5240  1.1686
 4572TIP3    H137911   5.878   3.224  16.203  3.7817 -1.1603  0.0379
 4572TIP3    H237912   5.911   3.359  16.263 -1.3473 -0.4792  1.8385
 4573TIP3   OH237913   6.643   1.163  14.537  0.4435  0.3971 -0.2195
 4573TIP3    H137914   6.547   1.168  14.537  0.4245  0.5429 -1.7851
 4573TIP3    H237915   6.663   1.081  14.492  1.0762 -0.6857  1.8930
 4574TIP3   OH237916   4.254   2.744  13.629  0.2440  0.4651 -0.0359
 4574TIP3    H137917   4.324   2.689  13.596  0.4715  1.6280 -1.6539
 4574TIP3    H237918   4.174   2.705  13.594  0.4860  1.6999 -2.1191
 4575TIP3   OH237919   5.414   0.488  16.967  0.3066  0.2681  0.1298
 4575TIP3    H137920   5.495   0.502  16.919 -0.0374  1.5442 -0.1118
 4575TIP3    H237921   5.392   0.574  17.003 -0.6130 -0.1914  0.7095
 4576TIP3   OH237922   1.444   2.655  16.135  0.1563  0.6587  0.0912
 4576TIP3    H137923   1.425   2.694  16.049 -0.2281 -0.3039 -0.2726
 4576TIP3    H237924   1.359   2.654  16.180  0.2267  0.5371  0.2208
 4577TIP3   OH237925   5.709   1.049  13.561 -0.3284 -0.5437 -0.0944
 4577TIP3    H137926   5.632   1.082  13.608 -0.3887 -2.2450  1.0689
 4577TIP3    H237927   5.690   0.956  13.546  0.8445 -0.6379 -1.1728
 4578TIP3   OH237928   0.335   4.715  15.243 -0.6524 -0.0695  0.5153
 4578TIP3    H137929   0.390   4.678  15.312  0.0316  2.8675  1.7175
 4578TIP3    H237930   0.273   4.771  15.289 -0.6042  1.4921 -1.1965
 4579TIP3   OH237931   0.271   4.662  14.974  0.0504 -0.0382 -0.3662
 4579TIP3    H137932   0.178   4.681  14.957  0.0809  1.0776  0.5537
 4579TIP3    H237933   0.284   4.691  15.065  0.8443 -1.9602  0.1825
 4580TIP3   OH237934   2.860   1.340  15.884 -0.0719  0.0501 -0.7113
 4580TIP3    H137935   2.929   1.405  15.870  0.8162 -0.6684  0.1583
 4580TIP3    H237936   2.894   1.261  15.843 -0.1154 -0.4571  0.2113
 4581TIP3   OH237937   5.290   3.718  14.352 -0.6122 -0.4786  0.5613
 4581TIP3    H137938   5.308   3.627  14.378 -1.2768 -0.3493  1.5497
 4581TIP3    H237939   5.327   3.770  14.423  1.1883  0.1447 -0.7571
 4582TIP3   OH237940   0.725   2.674  14.727 -0.0129  0.4650  0.2772
 4582TIP3    H137941   0.710   2.701  14.818 -0.1361 -2.2090  1.1252
 4582TIP3    H237942   0.819   2.658  14.722 -0.1968 -0.7147  0.3631
 4583TIP3   OH237943   4.968   0.962  15.690  0.4589 -0.3141  0.0315
 4583TIP3    H137944   4.932   0.974  15.779 -0.6586  0.6160 -0.5146
 4583TIP3    H237945   4.890   0.957  15.634  1.1743  0.3206 -1.0368
 4584TIP3   OH237946   0.354   1.617  14.785 -0.3375 -0.1010  0.1069
 4584TIP3    H137947   0.318   1.610  14.697 -0.8300  1.1529  0.1843
 4584TIP3    H237948   0.300   1.560  14.838 -0.3757 -0.4523 -0.3026
 4585TIP3   OH237949   6.198   4.170  14.198  0.0699  0.0893  0.2701
 4585TIP3    H137950   6.137   4.191  14.268  1.6209  1.4741  1.2843
 4585TIP3    H237951   6.281   4.155  14.243  0.9879  0.4658 -1.2439
 4586TIP3   OH237952   1.963   6.134  15.057  0.4333 -0.1082  0.1198
 4586TIP3    H137953   1.987   6.050  15.016 -0.8140  0.9291 -3.0072
 4586TIP3    H237954   2.020   6.198  15.015 -1.7877  1.1962 -1.0325
 4587TIP3   OH237955   3.183   2.372  15.919  0.0796 -0.7190 -0.4027
 4587TIP3    H137956   3.213   2.363  16.010  1.4946  1.0273 -0.6396
 4587TIP3    H237957   3.256   2.338  15.867  0.0673  0.0204 -0.9168
 4588TIP3   OH237958   3.685   6.024  16.757  0.3206 -0.4012  0.7684
 4588TIP3    H137959   3.743   6.044  16.683 -0.6234 -2.4215 -0.5836
 4588TIP3    H237960   3.743   5.986  16.823  1.4365  2.7179  1.7877
 4589TIP3   OH237961   3.032   3.388  15.800  0.3732  0.3168  0.4712
 4589TIP3    H137962   2.944   3.356  15.821 -0.1620  1.0550 -0.5643
 4589TIP3    H237963   3.071   3.410  15.885 -0.0005 -1.0979  1.0402
 4590TIP3   OH237964   1.683   1.393  15.658  0.0071 -0.1173 -0.2406
 4590TIP3    H137965   1.682   1.297  15.654  1.1392 -0.1685  0.2298
 4590TIP3    H237966   1.770   1.417  15.627  0.0385  0.7081  0.4487
 4591TIP3   OH237967   1.597   5.589  14.873 -0.2684  0.1548 -0.1291
 4591TIP3    H137968   1.506   5.572  14.898 -0.6709 -0.3677 -1.7993
 4591TIP3    H237969   1.636   5.503  14.865 -0.3806  0.2325 -1.9239
 4592TIP3   OH237970   1.962   2.585  15.575  0.2987 -1.0581 -0.0591
 4592TIP3    H137971   2.021   2.554  15.644  0.8092  1.2789  0.6307
 4592TIP3    H237972   2.003   2.557  15.493  2.4368  0.5124  0.4026
 4593TIP3   OH237973   0.043   3.143  15.114 -0.3686  0.2528 -0.2754
 4593TIP3    H137974   0.085   3.209  15.058 -2.2771  0.7194 -1.2401
 4593TIP3    H237975  -0.048   3.170  15.118 -1.3641 -2.6036 -1.1287
 4594TIP3   OH237976   1.942   6.294  16.804 -0.0038  0.6613 -0.4866
 4594TIP3    H137977   1.936   6.359  16.874 -0.5991  0.9940 -0.8337
 4594TIP3    H237978   1.851   6.275  16.782  0.1334 -0.8179  0.0834
 4595TIP3   OH237979   6.569   0.850  15.672  0.2495 -0.0406 -0.4204
 4595TIP3    H137980   6.647   0.850  15.616  0.3551 -0.5540 -0.2760
 4595TIP3    H237981   6.603   0.844  15.761  0.0770  0.6839 -0.3047
 4596TIP3   OH237982   4.003   1.828  17.138 -0.2285  0.2099  0.0200
 4596TIP3    H137983   4.034   1.867  17.220 -0.7244 -1.5646  1.1060
 4596TIP3    H237984   3.920   1.787  17.161  0.8450 -2.5578 -0.6894
 4597TIP3   OH237985   2.768   3.524  14.047  0.1562  0.1007 -0.3323
 4597TIP3    H137986   2.674   3.506  14.060  0.1635  1.3091  1.7591
 4597TIP3    H237987   2.812   3.444  14.074 -0.1975  0.3417  1.0435
 4598TIP3   OH237988   6.193   5.152  14.061  0.4913 -0.3630 -0.3938
 4598TIP3    H137989   6.287   5.134  14.070  0.8064  0.3482 -1.8989
 4598TIP3    H237990   6.168   5.192  14.144  1.3340 -1.2660  0.3209
 4599TIP3   OH237991   1.429   6.191  14.987 -0.0798  0.5474  0.0888
 4599TIP3    H137992   1.407   6.112  14.938  0.2360  0.8315 -0.5298
 4599TIP3    H237993   1.517   6.174  15.021  0.4594  1.0644 -0.9995
 4600TIP3   OH237994   4.007   3.306  15.317 -0.1996  0.0660 -0.2371
 4600TIP3    H137995   4.091   3.270  15.346  0.8426  1.7501 -1.0661
 4600TIP3    H237996   4.025   3.345  15.232 -1.5089  1.6422  0.1663
 4601TIP3   OH237997   3.281   3.232  16.200  0.6536  0.1966 -0.2484
 4601TIP3    H137998   3.298   3.307  16.143  0.8001 -0.9410 -1.7680
 4601TIP3    H237999   3.288   3.156  16.142  1.6327 -1.0910  1.4552
 4602TIP3   OH238000   1.558   1.839  13.840 -0.2723  0.1553  0.2837
 4602TIP3    H138001   1.509   1.788  13.905 -1.2259  1.6640  0.8045
 4602TIP3    H238002   1.624   1.886  13.892 -0.2692  0.4719 -0.0071
 4603TIP3   OH238003   2.175   0.071  14.458  0.1984 -0.0345 -0.4538
 4603TIP3    H138004   2.242   0.005  14.436  0.6269  0.4241 -0.5398
 4603TIP3    H238005   2.092   0.027  14.440  0.4794 -0.5490 -0.5253
 4604TIP3   OH238006   4.169   0.475  17.422  0.1096 -0.1504 -0.1715
 4604TIP3    H138007   4.080   0.441  17.426 -0.7733  2.0056  0.2050
 4604TIP3    H238008   4.215   0.417  17.361 -1.6629 -1.0367 -0.7266
 4605TIP3   OH238009   6.102   3.672  14.065 -0.0515 -0.1699  0.3214
 4605TIP3    H138010   6.156   3.619  14.008 -0.5010 -2.1975  1.6703
 4605TIP3    H238011   6.022   3.689  14.015 -0.4412 -1.9206  0.2999
 4606TIP3   OH238012   4.548   3.195  14.898 -0.0312  0.2216  0.0981
 4606TIP3    H138013   4.581   3.243  14.822 -1.1066  0.0201 -0.5293
 4606TIP3    H238014   4.622   3.190  14.958  1.1372 -0.3776 -1.3148
 4607TIP3   OH238015   0.539   6.132  17.174  0.0957  0.1624 -0.5139
 4607TIP3    H138016   0.512   6.188  17.247 -0.0042  0.4613 -0.7783
 4607TIP3    H238017   0.508   6.178  17.096 -0.9962 -0.8013 -0.6839
 4608TIP3   OH238018   3.060   0.457  14.405 -0.6047  0.0667  0.0795
 4608TIP3    H138019   3.046   0.501  14.488  0.9984  0.3632  0.2177
 4608TIP3    H238020   3.153   0.469  14.386 -0.3792 -2.1807 -0.5046
 4609TIP3   OH238021   3.567   3.134  14.980 -0.1162  0.2115 -0.0021
 4609TIP3    H138022   3.552   3.206  15.040 -0.0977 -0.2626  0.5794
 4609TIP3    H238023   3.547   3.055  15.031  0.9285 -0.2565 -0.2871
 4610TIP3   OH238024   3.434   6.709  16.824  0.8270 -0.6283 -0.2613
 4610TIP3    H138025   3.396   6.684  16.909  1.2586 -0.3859  0.0063
 4610TIP3    H238026   3.360   6.703  16.763  0.4687 -0.6268  0.1631
 4611TIP3   OH238027   0.553   2.906  15.151  0.1009  0.0362  0.9793
 4611TIP3    H138028   0.569   2.986  15.202 -0.5012 -0.0811  1.3720
 4611TIP3    H238029   0.466   2.877  15.180  0.4697 -0.9652  1.1084
 4612TIP3   OH238030   3.185   2.771  14.645  0.1883  0.3813 -0.4122
 4612TIP3    H138031   3.139   2.816  14.574  0.9523 -0.8650 -1.7315
 4612TIP3    H238032   3.272   2.811  14.647  0.5875 -0.4337 -1.0310
 4613TIP3   OH238033   4.171   6.711  15.764  0.1718 -0.2647  0.1000
 4613TIP3    H138034   4.228   6.780  15.728 -0.8554  0.6032  0.0786
 4613TIP3    H238035   4.088   6.756  15.782 -1.0000 -1.7785 -1.2004
 4614TIP3   OH238036   6.480   5.519  14.220 -0.2116  0.5418 -0.4138
 4614TIP3    H138037   6.398   5.568  14.212 -0.0685  0.7334 -0.7117
 4614TIP3    H238038   6.541   5.581  14.261 -0.2624  0.3436 -0.0310
 4615TIP3   OH238039   3.209   6.023  14.933 -0.1056 -0.5150 -0.6704
 4615TIP3    H138040   3.230   5.961  15.003 -0.3860  0.4990  0.3434
 4615TIP3    H238041   3.294   6.056  14.904 -0.0349  0.0348  0.1220
 4616TIP3   OH238042   2.175   1.385  14.584 -0.3383  0.1379 -0.3151
 4616TIP3    H138043   2.254   1.375  14.637  1.4533  0.5626 -2.7179
 4616TIP3    H238044   2.168   1.303  14.534 -0.0431  0.9486 -1.7645
 4617TIP3   OH238045   5.546   6.445  13.985  0.0412  0.6688  0.4351
 4617TIP3    H138046   5.523   6.372  14.043  1.6435 -0.7910 -0.6561
 4617TIP3    H238047   5.641   6.454  13.994 -0.0026  1.9953 -0.1804
 4618TIP3   OH238048   1.499   3.466  13.283  0.1303 -0.3282  0.2049
 4618TIP3    H138049   1.505   3.548  13.332 -0.8773 -0.3144  0.3367
 4618TIP3    H238050   1.442   3.486  13.209  0.2264 -0.8003 -0.0052
 4619TIP3   OH238051   3.829   6.080  15.702 -0.9132  0.2176 -0.0553
 4619TIP3    H138052   3.733   6.085  15.707 -1.0029 -0.9815 -0.2682
 4619TIP3    H238053   3.846   6.009  15.640  0.1009 -0.2709  0.7569
 4620TIP3   OH238054   3.862   1.414  13.577 -0.3567  0.2164  0.3839
 4620TIP3    H138055   3.896   1.351  13.514  0.5051  2.7872 -1.9416
 4620TIP3    H238056   3.939   1.443  13.626 -0.7998 -0.7109  1.6794
 4621TIP3   OH238057   1.247   2.687  16.679 -0.4449 -0.3508 -0.9121
 4621TIP3    H138058   1.321   2.647  16.634  0.8201  2.0152 -1.0994
 4621TIP3    H238059   1.285   2.729  16.756 -1.7835 -0.0285 -0.3901
 4622TIP3   OH238060   3.406   4.538  13.659  0.3861  0.4009 -0.5917
 4622TIP3    H138061   3.391   4.599  13.730 -1.3047 -0.7092  0.0744
 4622TIP3    H238062   3.346   4.567  13.590  1.0271  0.6575 -1.0493
 4623TIP3   OH238063   3.910   6.519  15.819  0.2611  0.0102 -0.0403
 4623TIP3    H138064   3.931   6.606  15.785 -0.7492 -0.5528 -2.2983
 4623TIP3    H238065   3.984   6.465  15.793 -0.0197 -0.1944 -0.4327
 4624TIP3   OH238066   2.500   0.758  16.418  0.1247  0.6625 -0.0767
 4624TIP3    H138067   2.581   0.737  16.465  0.6915  4.2340  0.8313
 4624TIP3    H238068   2.514   0.723  16.330  0.7366 -2.6089  1.1915
 4625TIP3   OH238069   1.010   0.082  13.979 -0.2320  0.0907  0.3241
 4625TIP3    H138070   1.073   0.128  13.923 -0.3741 -0.8273 -0.6179
 4625TIP3    H238071   1.045   0.093  14.068  0.6446  0.5651 -0.0631
 4626TIP3   OH238072   3.657   5.577  14.409 -0.2320  0.0913 -0.2786
 4626TIP3    H138073   3.752   5.585  14.417 -0.0969 -1.0307 -0.5914
 4626TIP3    H238074   3.622   5.628  14.482  0.5430  2.1223 -1.2623
 4627TIP3   OH238075   5.325   5.285  14.393  0.3341  0.0276  0.0004
 4627TIP3    H138076   5.375   5.261  14.471 -0.1309  1.8049  0.8829
 4627TIP3    H238077   5.385   5.270  14.320  0.4531 -2.6155  0.5441
 4628TIP3   OH238078   4.197   1.608  16.372 -0.0788  0.3038  0.0761
 4628TIP3    H138079   4.263   1.625  16.305 -1.8670  0.7978 -1.6807
 4628TIP3    H238080   4.186   1.513  16.372  0.2386  0.2663 -0.0140
 4629TIP3   OH238081   2.482   5.301  14.523 -0.1298  0.0435  0.4609
 4629TIP3    H138082   2.411   5.239  14.502 -0.6708  0.2114  1.7183
 4629TIP3    H238083   2.548   5.247  14.567  0.4220 -0.0589 -0.4680
 4630TIP3   OH238084   1.801   3.394  16.349  0.0267  0.3878  0.1883
 4630TIP3    H138085   1.857   3.433  16.416  0.0513  1.4898 -0.4517
 4630TIP3    H238086   1.724   3.450  16.347  0.4513  0.9772 -1.3735
 4631TIP3   OH238087   2.700   2.553  14.722  0.0425  0.2306 -0.3688
 4631TIP3    H138088   2.773   2.491  14.719  0.5113  0.5425  2.2221
 4631TIP3    H238089   2.622   2.499  14.715  0.4454 -0.6953  1.7158
 4632TIP3   OH238090   3.880   0.583  16.680 -0.1363  0.1747  0.0113
 4632TIP3    H138091   3.917   0.549  16.599  0.7174 -0.1340  0.5201
 4632TIP3    H238092   3.786   0.591  16.662 -0.2177 -1.5167 -0.4327
 4633TIP3   OH238093   4.887   0.669  15.604 -0.2406  0.4480  0.2607
 4633TIP3    H138094   4.861   0.668  15.512 -2.2236 -0.3551  0.7736
 4633TIP3    H238095   4.890   0.577  15.630  2.4072  0.5232  0.5166
 4634TIP3   OH238096   4.530   6.747  15.567 -0.3734 -0.1092  0.0822
 4634TIP3    H138097   4.451   6.754  15.620 -0.0558  2.7138  0.3130
 4634TIP3    H238098   4.528   6.824  15.510  2.0105 -0.1367 -0.1505
 4635TIP3   OH238099   5.666   6.728  15.982 -0.4817  0.6059 -0.1980
 4635TIP3    H138100   5.639   6.715  15.891 -1.0050 -1.1800  0.1612
 4635TIP3    H238101   5.679   6.639  16.015  1.3014  1.2615  1.0168
 4636TIP3   OH238102   5.865   2.918  14.610 -0.3377 -0.5549  0.5630
 4636TIP3    H138103   5.776   2.889  14.632 -0.7768 -0.7211 -1.2656
 4636TIP3    H238104   5.858   3.013  14.603 -0.8297 -0.7020 -1.3331
 4637TIP3   OH238105   4.270   2.821  15.392  0.3354  0.4068  0.7338
 4637TIP3    H138106   4.353   2.863  15.417  0.4185  0.0175  1.1227
 4637TIP3    H238107   4.209   2.894  15.382  0.7338  0.7010  0.4095
 4638TIP3   OH238108   5.044   4.316  15.633 -0.6163  0.1497  0.1615
 4638TIP3    H138109   5.117   4.372  15.661  0.1136 -0.6273 -0.1367
 4638TIP3    H238110   4.985   4.315  15.708  0.2029 -0.0627  0.8285
 4639TIP3   OH238111   5.916   5.989  16.970  0.2684 -0.6985 -0.2865
 4639TIP3    H138112   5.908   6.073  17.016  0.4932 -1.2959  0.8942
 4639TIP3    H238113   5.962   6.010  16.889  0.0110  0.3696 -0.1627
 4640TIP3   OH238114   4.073   4.966  16.951 -0.6387  0.2908 -0.3729
 4640TIP3    H138115   4.104   4.876  16.953  0.1144  0.5395 -0.5719
 4640TIP3    H238116   4.037   4.977  16.863  1.4358  0.8748 -1.2033
 4641TIP3   OH238117   0.863   1.651  15.128 -0.1580 -0.4954  0.1277
 4641TIP3    H138118   0.920   1.608  15.064  1.2534  1.5152 -0.0852
 4641TIP3    H238119   0.856   1.588  15.200  0.2967 -1.7946 -0.9208
 4642TIP3   OH238120   2.087   4.979  15.456 -0.0541  0.6396 -0.1618
 4642TIP3    H138121   2.109   5.056  15.405  0.7256  0.1308 -0.6201
 4642TIP3    H238122   2.024   4.932  15.403  0.5698  0.2364 -0.5613
 4643TIP3   OH238123   5.930   5.459  14.636  0.3595 -0.2943 -0.3435
 4643TIP3    H138124   5.869   5.503  14.695 -0.0093  0.8773 -1.5540
 4643TIP3    H238125   5.874   5.414  14.572  0.7349  0.3816 -1.1684
 4644TIP3   OH238126   3.928   1.988  16.106  0.5197 -0.0356  0.1297
 4644TIP3    H138127   3.954   1.910  16.155 -0.2082  0.8607  2.0892
 4644TIP3    H238128   3.872   1.956  16.036 -0.0871 -1.2498  1.1353
 4645TIP3   OH238129   4.956   1.183  15.862 -0.3183 -0.1414  0.2922
 4645TIP3    H138130   4.967   1.273  15.893 -1.0607  0.2409 -0.5158
 4645TIP3    H238131   4.918   1.192  15.774  2.7566 -1.1277 -1.2871
 4646TIP3   OH238132   3.653   1.944  17.132 -0.1274  0.0948  0.1715
 4646TIP3    H138133   3.687   2.033  17.128  0.9948 -0.3621 -1.1939
 4646TIP3    H238134   3.559   1.955  17.148  0.0565  1.4932  0.4320
 4647TIP3   OH238135   5.877   4.224  15.347  0.5622  0.1017 -0.1807
 4647TIP3    H138136   5.945   4.188  15.290  2.1138  2.6141 -0.0497
 4647TIP3    H238137   5.907   4.203  15.435  0.0772 -0.5329 -0.1544
 4648TIP3   OH238138   1.634   5.882  15.829 -0.1491  0.2990 -0.4879
 4648TIP3    H138139   1.644   5.789  15.849  0.5720  0.3331 -0.6711
 4648TIP3    H238140   1.605   5.921  15.912  0.3500  0.0366 -0.1853
 4649TIP3   OH238141   1.300   2.368  13.248  0.2641 -0.2506  0.0123
 4649TIP3    H138142   1.365   2.312  13.292  0.1749  1.7607  2.9821
 4649TIP3    H238143   1.331   2.457  13.264 -1.5737  0.6692 -1.2988
 4650TIP3   OH238144   5.347   2.858  13.973 -0.1130  0.4981 -0.4177
 4650TIP3    H138145   5.337   2.763  13.978 -0.9880  0.6527  1.6517
 4650TIP3    H238146   5.318   2.881  13.885  1.2425 -1.2446 -1.3889
 4651TIP3   OH238147   4.268   0.364  17.184 -0.1841  0.3290  0.3475
 4651TIP3    H138148   4.312   0.288  17.146 -1.6544 -1.1131  1.4003
 4651TIP3    H238149   4.261   0.426  17.111 -0.5480 -1.2669 -1.0494
 4652TIP3   OH238150   6.334   2.464  14.597  0.4452 -0.1193  0.3645
 4652TIP3    H138151   6.303   2.553  14.613  1.7447  0.4525 -0.1489
 4652TIP3    H238152   6.268   2.425  14.540 -0.3611  0.3550  0.9551
 4653TIP3   OH238153   3.746   4.311  14.398  0.2294  0.1197 -0.3893
 4653TIP3    H138154   3.728   4.235  14.342 -1.2180  0.7761 -0.8827
 4653TIP3    H238155   3.836   4.335  14.377  1.2073 -2.2551  0.7954
 4654TIP3   OH238156   2.337   4.983  14.260 -0.3331  0.2613  0.2338
 4654TIP3    H138157   2.369   4.975  14.170 -2.3740 -1.0526 -0.4316
 4654TIP3    H238158   2.289   4.902  14.276  1.1626 -0.1946  3.0520
 4655TIP3   OH238159   6.246   3.941  16.811 -0.4689 -0.5086 -0.2720
 4655TIP3    H138160   6.317   3.999  16.785 -0.2028 -0.8843 -0.3811
 4655TIP3    H238161   6.194   3.992  16.873  0.6484 -0.7058  0.8455
 4656TIP3   OH238162   1.949   3.376  13.817  0.6604 -0.6617  0.7122
 4656TIP3    H138163   1.971   3.289  13.852 -1.5576 -1.5243  0.1451
 4656TIP3    H238164   1.858   3.389  13.843  0.8633  1.4185  0.5428
 4657TIP3   OH238165   1.606   6.168  16.536 -0.1871  0.0672  0.1556
 4657TIP3    H138166   1.686   6.221  16.537 -0.2103  0.1371  1.7361
 4657TIP3    H238167   1.576   6.170  16.627 -1.1540 -1.2253 -0.1105
 4658TIP3   OH238168   6.507   6.380  16.192 -0.5380 -0.0965 -0.3185
 4658TIP3    H138169   6.461   6.366  16.274 -1.7526  2.4884 -0.4717
 4658TIP3    H238170   6.599   6.391  16.217 -0.8618  0.4343  0.6648
 4659TIP3   OH238171   0.612   5.442  13.579  0.2612 -0.2887 -0.3248
 4659TIP3    H138172   0.589   5.526  13.619 -0.6199 -1.0569  0.8568
 4659TIP3    H238173   0.529   5.396  13.567  0.7742 -1.2853 -0.2532
 4660TIP3   OH238174   5.862   1.608  14.720 -0.0978  0.1340  0.0931
 4660TIP3    H138175   5.895   1.558  14.795  0.5642  0.1442 -0.1824
 4660TIP3    H238176   5.929   1.597  14.653  0.5279  2.1276  0.3225
 4661TIP3   OH238177   4.934   3.097  15.727 -0.0432 -0.1753 -0.2319
 4661TIP3    H138178   4.995   3.170  15.719 -1.0897  0.7205 -0.3081
 4661TIP3    H238179   4.867   3.128  15.788  0.3828 -1.7156  1.1196
 4662TIP3   OH238180   6.551   2.741  14.007 -0.2859 -0.4173  0.8713
 4662TIP3    H138181   6.519   2.742  13.917 -0.8510  1.7664  1.0222
 4662TIP3    H238182   6.608   2.665  14.012  0.8730  0.1584 -1.7464
 4663TIP3   OH238183   1.536   3.855  15.305  0.0556  0.3204 -0.6276
 4663TIP3    H138184   1.538   3.919  15.375 -0.5332 -2.1842  1.8645
 4663TIP3    H238185   1.625   3.856  15.269  1.0370  0.2062  1.6349
 4664TIP3   OH238186   1.755   6.670  16.598  0.1286  0.4762  0.1517
 4664TIP3    H138187   1.838   6.629  16.577  0.0705  1.4729 -2.5453
 4664TIP3    H238188   1.762   6.695  16.690  2.6119  0.0974  0.1277
 4665TIP3   OH238189   5.215   5.077  15.208  0.0116  0.4647  0.2995
 4665TIP3    H138190   5.205   5.010  15.275  1.6654 -0.9532 -0.8106
 4665TIP3    H238191   5.291   5.128  15.235  1.1932 -0.6186 -0.8419
 4666TIP3   OH238192   4.748   0.242  15.911  0.1218  0.6296  0.4461
 4666TIP3    H138193   4.793   0.296  15.976  2.2060 -0.8261  0.2879
 4666TIP3    H238194   4.817   0.214  15.851 -1.1172 -1.1630 -0.2024
 4667TIP3   OH238195   2.473   1.665  14.375 -0.1735  0.5601  0.3938
 4667TIP3    H138196   2.549   1.652  14.432 -1.7680 -1.4599  2.2327
 4667TIP3    H238197   2.422   1.733  14.419 -0.9088 -0.2714  0.8450
 4668TIP3   OH238198   5.040   6.013  16.416 -0.0338 -0.3099 -0.1324
 4668TIP3    H138199   5.101   6.049  16.351 -0.4847 -0.5840 -0.7060
 4668TIP3    H238200   5.093   5.951  16.466  0.4777  0.3531  0.1784
 4669TIP3   OH238201   2.045   0.859  17.155  0.0360  0.1115  0.4750
 4669TIP3    H138202   2.036   0.945  17.194 -1.6308 -0.2472  0.9448
 4669TIP3    H238203   2.081   0.876  17.067  2.0320  1.0530  1.4009
 4670TIP3   OH238204   0.063   2.499  13.958  0.1672 -0.4950 -0.0986
 4670TIP3    H138205   0.091   2.559  14.027 -0.0183  0.4814 -0.8495
 4670TIP3    H238206   0.133   2.503  13.892  0.7527 -2.0546  0.3714
 4671TIP3   OH238207   3.314   0.919  14.822 -0.0471 -0.0748 -0.7437
 4671TIP3    H138208   3.407   0.909  14.841 -0.0038  0.5037 -0.6101
 4671TIP3    H238209   3.289   0.840  14.775  1.1140  0.8709 -3.1179
 4672TIP3   OH238210   1.187   4.019  16.480 -0.0680 -0.1074  0.0684
 4672TIP3    H138211   1.227   3.949  16.531 -0.2003  0.8201  1.4995
 4672TIP3    H238212   1.122   4.058  16.538 -1.7452 -0.3445 -1.5522
 4673TIP3   OH238213   2.595   0.439  13.752  0.1440  0.0228 -0.1797
 4673TIP3    H138214   2.646   0.373  13.798  0.4147 -0.9570 -1.8144
 4673TIP3    H238215   2.590   0.407  13.662  1.0873  2.6937 -1.2686
 4674TIP3   OH238216   3.934   3.362  16.275  0.3810 -0.1099  0.4033
 4674TIP3    H138217   3.991   3.317  16.337 -0.4674  0.3116  1.5033
 4674TIP3    H238218   3.847   3.326  16.290  0.4475 -1.4954 -1.9668
 4675TIP3   OH238219   4.078   3.087  16.113  0.3631 -0.0895 -0.0384
 4675TIP3    H138220   3.994   3.055  16.148  2.5601 -3.3449  2.8804
 4675TIP3    H238221   4.095   3.030  16.038  0.4088 -0.0778 -0.0354
 4676TIP3   OH238222   5.794   5.003  14.343  0.0773  0.2146 -0.1408
 4676TIP3    H138223   5.717   4.976  14.292  0.8503  0.9817 -1.7954
 4676TIP3    H238224   5.868   4.966  14.296  0.9241  2.2649 -0.5229
 4677TIP3   OH238225   6.558   2.289  14.519  0.3048  0.6285 -0.3151
 4677TIP3    H138226   6.588   2.233  14.448  2.7579  2.1295 -0.5970
 4677TIP3    H238227   6.464   2.300  14.504  0.1058 -1.8633 -1.2592
 4678TIP3   OH238228   3.481   2.557  13.866 -0.3069  0.6947 -0.0102
 4678TIP3    H138229   3.414   2.539  13.800  0.2941  0.4018 -0.5643
 4678TIP3    H238230   3.544   2.485  13.855 -0.2840  0.5471  1.0082
 4679TIP3   OH238231   5.868   3.800  16.584 -0.3858 -0.0383  0.2850
 4679TIP3    H138232   5.887   3.734  16.651 -0.2484  0.0511  0.3358
 4679TIP3    H238233   5.954   3.826  16.551 -0.4204 -3.5862 -3.4012
 4680TIP3   OH238234   3.707   5.090  15.707 -0.2583  0.8318  0.2951
 4680TIP3    H138235   3.631   5.139  15.737  0.2206  0.7276  1.8019
 4680TIP3    H238236   3.699   5.087  15.612 -1.6969  1.5128  0.3758
 4681TIP3   OH238237   6.281   1.955  16.118 -0.1685  0.2413 -0.4102
 4681TIP3    H138238   6.223   2.019  16.160 -0.3929  0.4561 -1.0353
 4681TIP3    H238239   6.303   1.894  16.188 -0.2921  0.7617  0.0970
 4682TIP3   OH238240   2.252   0.608  14.439  0.6481  0.3941 -0.1577
 4682TIP3    H138241   2.161   0.620  14.464 -0.0961 -2.2299 -1.2470
 4682TIP3    H238242   2.271   0.516  14.458  2.7854  0.6274 -0.8249
 4683TIP3   OH238243   3.354   5.588  14.772  0.5561 -0.0296  0.2547
 4683TIP3    H138244   3.441   5.626  14.785  0.2041  1.6792 -1.8785
 4683TIP3    H238245   3.370   5.508  14.722  0.8884  0.6629 -0.7792
 4684TIP3   OH238246   1.371   1.508  16.483  0.0700  0.1041 -0.0373
 4684TIP3    H138247   1.456   1.493  16.525 -0.2692  0.8901  0.9836
 4684TIP3    H238248   1.311   1.452  16.533 -0.4939  1.7076  1.1637
 4685TIP3   OH238249   1.977   5.269  16.580 -0.2294 -0.2966  0.1061
 4685TIP3    H138250   1.992   5.253  16.487  0.4974  0.8490  0.0021
 4685TIP3    H238251   1.891   5.231  16.597 -0.0622 -1.1591 -0.8603
 4686TIP3   OH238252   1.124   0.540  16.863 -0.1526 -0.5879 -0.2847
 4686TIP3    H138253   1.123   0.450  16.897 -0.6738  0.3107  2.2918
 4686TIP3    H238254   1.214   0.569  16.877 -0.6077  0.1123  1.3382
 4687TIP3   OH238255   5.104   0.704  15.780 -0.3780  0.1905  0.4559
 4687TIP3    H138256   5.120   0.795  15.757  0.0633  0.4470  1.6889
 4687TIP3    H238257   5.025   0.680  15.732 -0.0022  0.9451 -0.5684
 4688TIP3   OH238258   3.977   5.854  15.165 -1.1279 -0.1990 -0.6369
 4688TIP3    H138259   4.033   5.811  15.100 -1.0204  1.1212 -1.4591
 4688TIP3    H238260   4.021   5.837  15.248  0.4792  0.6801 -1.2461
 4689TIP3   OH238261   0.705   2.327  14.417 -0.0222  0.0524  0.4142
 4689TIP3    H138262   0.776   2.350  14.357  0.3631 -0.9647  0.4604
 4689TIP3    H238263   0.743   2.261  14.475 -0.8663 -0.1563  0.7443
 4690TIP3   OH238264   0.928   3.415  15.571  0.0031  0.3472  0.4141
 4690TIP3    H138265   0.911   3.507  15.550  0.9863  0.5231  0.3250
 4690TIP3    H238266   0.875   3.398  15.649 -1.2018  0.6058 -0.3271
 4691TIP3   OH238267   3.716   5.548  16.539 -0.1075  0.3956 -0.3641
 4691TIP3    H138268   3.729   5.498  16.458 -0.3309  0.2168 -0.2937
 4691TIP3    H238269   3.668   5.488  16.596 -2.0604  1.3211 -0.9467
 4692TIP3   OH238270   0.310   1.386  16.585  0.2977  0.4034 -0.0167
 4692TIP3    H138271   0.307   1.476  16.550  2.5341  0.9787  1.1155
 4692TIP3    H238272   0.384   1.346  16.541 -1.3955 -1.3729 -1.4153
 4693TIP3   OH238273   2.116   5.647  14.726 -0.0491  0.5893 -0.4510
 4693TIP3    H138274   2.142   5.726  14.678 -0.2956  0.9073 -0.0611
 4693TIP3    H238275   2.160   5.575  14.679 -0.0969  0.9207 -1.0047
 4694TIP3   OH238276   1.970   0.196  14.757  0.3740  0.1101 -0.3046
 4694TIP3    H138277   1.902   0.148  14.803 -0.7415 -0.0269 -2.0056
 4694TIP3    H238278   2.052   0.165  14.796 -0.4532 -1.0846  0.5456
 4695TIP3   OH238279   5.858   6.200  15.115 -0.6801  0.6369 -0.1701
 4695TIP3    H138280   5.916   6.165  15.182 -0.8578 -0.2823 -0.4866
 4695TIP3    H238281   5.914   6.257  15.063 -0.3113  0.5889  0.1684
 4696TIP3   OH238282   0.443   1.232  15.700  0.6329 -0.5534 -0.2066
 4696TIP3    H138283   0.431   1.318  15.661 -0.5596 -1.2024 -1.3632
 4696TIP3    H238284   0.472   1.250  15.790 -0.2760  1.0649 -0.1925
 4697TIP3   OH238285   6.439   1.439  14.511  0.0025 -0.4105  0.0853
 4697TIP3    H138286   6.419   1.346  14.524 -2.9080 -0.0132 -0.7215
 4697TIP3    H238287   6.412   1.456  14.420 -0.7114  1.4520  0.6031
 4698TIP3   OH238288   3.517   3.747  14.994 -0.2182  0.3720 -0.0050
 4698TIP3    H138289   3.465   3.803  15.052 -0.7898 -0.5319  0.3832
 4698TIP3    H238290   3.451   3.703  14.939  0.1819 -0.2276 -0.0151
 4699TIP3   OH238291   5.633   4.449  14.017  0.4556 -0.3060  0.1332
 4699TIP3    H138292   5.706   4.418  13.963  1.6567  2.8762 -0.2943
 4699TIP3    H238293   5.567   4.477  13.954  0.8835  1.2133  0.3161
 4700TIP3   OH238294   4.809   5.217  15.386 -0.5058  0.2038 -0.2183
 4700TIP3    H138295   4.755   5.156  15.337 -0.1890 -0.6058  0.4111
 4700TIP3    H238296   4.888   5.228  15.333 -0.2970 -0.4258 -0.0474
 4701TIP3   OH238297   6.743   2.828  15.761 -0.3067 -0.0929 -0.0823
 4701TIP3    H138298   6.780   2.758  15.708  0.1824  0.1194 -0.0214
 4701TIP3    H238299   6.807   2.843  15.830  0.9048  2.2291 -1.6055
 4702TIP3   OH238300   3.148   2.200  15.365  0.4555 -0.2918 -0.1436
 4702TIP3    H138301   3.079   2.142  15.397  1.3572 -1.6643 -0.6320
 4702TIP3    H238302   3.196   2.226  15.444 -0.7922  0.9790  0.2531
 4703TIP3   OH238303   3.003   0.856  14.053 -0.2390 -0.2962  0.7746
 4703TIP3    H138304   2.986   0.949  14.063 -1.5650 -0.3522 -0.6417
 4703TIP3    H238305   3.002   0.841  13.959  0.6310 -1.6348  0.9464
 4704TIP3   OH238306   0.436   2.758  13.702 -0.5148 -0.3628  0.1786
 4704TIP3    H138307   0.506   2.812  13.738  0.0440 -0.7656 -0.2787
 4704TIP3    H238308   0.365   2.765  13.765 -0.2847  0.5378  0.3481
 4705TIP3   OH238309   2.736   3.567  16.759 -0.4096 -0.4547  0.2319
 4705TIP3    H138310   2.743   3.489  16.814  1.4058  1.6448  3.3066
 4705TIP3    H238311   2.694   3.632  16.815  1.2422  1.7510 -0.9148
 4706TIP3   OH238312   3.225   3.344  15.614 -0.0834  0.1996 -0.0318
 4706TIP3    H138313   3.256   3.254  15.624 -1.9566 -0.8348 -2.4312
 4706TIP3    H238314   3.137   3.344  15.653 -0.3878  0.7674 -0.6861
 4707TIP3   OH238315   2.691   4.350  16.919 -0.2253  0.8561 -0.1019
 4707TIP3    H138316   2.636   4.277  16.945  1.1647 -0.3970 -0.4792
 4707TIP3    H238317   2.650   4.428  16.956 -2.2493 -0.0017 -0.4576
 4708TIP3   OH238318   0.617   0.194  15.258 -0.2094 -0.2734  0.4835
 4708TIP3    H138319   0.684   0.132  15.229 -1.1442 -1.1073  0.0389
 4708TIP3    H238320   0.536   0.143  15.258 -0.9956  0.9435  0.1686
 4709TIP3   OH238321   5.176   3.711  15.022  0.5159 -0.4675 -0.1131
 4709TIP3    H138322   5.217   3.625  15.013  0.8268 -0.2710 -0.6246
 4709TIP3    H238323   5.210   3.762  14.948  0.5650  0.1892  0.3535
 4710TIP3   OH238324   5.391   4.936  15.676  0.3793 -0.9708 -0.5737
 4710TIP3    H138325   5.454   5.004  15.701 -2.1054  1.1760  0.3179
 4710TIP3    H238326   5.333   4.928  15.751 -1.8001 -1.1223 -2.1768
 4711TIP3   OH238327   1.554   2.819  16.352 -0.4353 -0.4138 -0.4698
 4711TIP3    H138328   1.518   2.804  16.439 -1.0669 -0.3549 -0.7147
 4711TIP3    H238329   1.555   2.733  16.310 -1.2440 -0.2656 -0.8163
 4712TIP3   OH238330   2.820   3.822  14.112 -0.1389 -0.3318 -0.4024
 4712TIP3    H138331   2.836   3.855  14.024 -2.1641 -1.6605 -1.3543
 4712TIP3    H238332   2.777   3.737  14.098  0.3843 -1.0443  1.8805
 4713TIP3   OH238333   5.936   2.261  14.663 -0.0919 -0.1618  0.5928
 4713TIP3    H138334   6.019   2.218  14.684  0.7640  0.8873 -0.5274
 4713TIP3    H238335   5.912   2.306  14.744  0.1461 -0.8875  1.0822
 4714TIP3   OH238336   3.013   4.446  15.786  0.4585  0.3451 -0.2147
 4714TIP3    H138337   2.952   4.437  15.713 -0.5530 -0.8086  0.7265
 4714TIP3    H238338   3.016   4.359  15.826  1.6092  0.7489  0.6421
 4715TIP3   OH238339   3.601   3.643  17.110 -0.2851 -0.1699 -0.2736
 4715TIP3    H138340   3.651   3.709  17.159 -0.2035  0.3724 -1.0762
 4715TIP3    H238341   3.636   3.647  17.021 -0.3792 -1.2055 -0.3709
 4716TIP3   OH238342   2.490   2.582  17.288  0.4068 -0.0401  0.1395
 4716TIP3    H138343   2.562   2.526  17.318 -1.1255 -2.0649  0.2758
 4716TIP3    H238344   2.453   2.617  17.369  2.2597  2.5219  0.0047
 4717TIP3   OH238345   2.566   6.089  15.457  0.1137  0.1862  0.3130
 4717TIP3    H138346   2.473   6.067  15.452  0.2200 -0.1459 -0.2218
 4717TIP3    H238347   2.591   6.108  15.366  0.5087  0.5164  0.4873
 4718TIP3   OH238348   3.554   1.065  17.076  0.1696  0.4023  0.5091
 4718TIP3    H138349   3.589   0.982  17.044  1.9693  1.0748  0.6039
 4718TIP3    H238350   3.572   1.128  17.005  0.4321  1.0632  1.1521
 4719TIP3   OH238351   3.616   3.530  16.449 -0.3543 -0.2494  0.0228
 4719TIP3    H138352   3.612   3.543  16.355  0.7931 -0.3302 -0.0488
 4719TIP3    H238353   3.622   3.618  16.486  0.7867 -0.2758 -0.0789
 4720TIP3   OH238354   6.507   6.502  17.393  0.0880 -0.5773 -0.1004
 4720TIP3    H138355   6.589   6.511  17.344 -1.0789  0.1248 -2.0200
 4720TIP3    H238356   6.534   6.464  17.476  2.5534  0.9509 -0.0797
 4721TIP3   OH238357   4.410   0.958  14.830 -0.0469 -0.3526 -0.4177
 4721TIP3    H138358   4.338   0.988  14.775 -0.2234 -1.0302 -0.5693
 4721TIP3    H238359   4.376   0.880  14.873 -0.0243  0.3580  0.9198
 4722TIP3   OH238360   2.530   2.213  14.328 -0.0417  0.3286 -0.2006
 4722TIP3    H138361   2.608   2.245  14.373 -0.4296 -0.8388  1.4097
 4722TIP3    H238362   2.534   2.118  14.338 -2.8080  0.3030  2.1025
 4723TIP3   OH238363   1.891   1.219  14.151  0.6441 -0.2973  0.5791
 4723TIP3    H138364   1.966   1.277  14.164  2.3381 -2.1804 -0.3126
 4723TIP3    H238365   1.834   1.268  14.091  0.7793  1.4518  1.8113
 4724TIP3   OH238366   5.871   3.855  15.856 -0.0721 -0.3116  0.2286
 4724TIP3    H138367   5.805   3.838  15.790  0.1262 -1.2261  0.2482
 4724TIP3    H238368   5.954   3.849  15.809  0.0946 -1.4791  0.6389
 4725TIP3   OH238369   2.056   1.001  16.384  0.3004  0.0924  0.3088
 4725TIP3    H138370   2.087   0.919  16.423  0.7755  0.1878  0.1351
 4725TIP3    H238371   2.127   1.029  16.326 -0.2826  0.0999 -0.4150
 4726TIP3   OH238372   1.894   2.440  14.260 -0.5628  0.1475  0.2665
 4726TIP3    H138373   1.980   2.464  14.294  0.5406 -2.1542 -0.6965
 4726TIP3    H238374   1.879   2.501  14.188 -0.2124  1.1793  1.0373
 4727TIP3   OH238375   1.884   4.700  14.799 -0.3150  0.0928 -0.2076
 4727TIP3    H138376   1.831   4.627  14.829 -1.3831  0.7382 -0.4612
 4727TIP3    H238377   1.970   4.687  14.840 -0.8730 -0.6132  0.7524
 4728TIP3   OH238378   3.719   0.215  15.430  0.0855 -0.0264  0.2886
 4728TIP3    H138379   3.742   0.204  15.522  0.2196 -0.8198  0.1664
 4728TIP3    H238380   3.636   0.261  15.431 -1.8390 -3.2028  0.9331
 4729TIP3   OH238381   3.567   0.551  17.124 -0.1684 -0.0494 -0.4513
 4729TIP3    H138382   3.473   0.547  17.141  0.3676  0.4707  3.5252
 4729TIP3    H238383   3.583   0.643  17.103 -0.4446  0.0065 -0.4218
 4730TIP3   OH238384   2.089   6.458  13.498 -0.2136 -0.0838 -0.0403
 4730TIP3    H138385   2.150   6.422  13.434  0.5615  1.3456 -0.1598
 4730TIP3    H238386   2.139   6.460  13.580 -0.6268 -0.3315  0.2199
 4731TIP3   OH238387   3.204   0.448  15.594  0.2424 -0.3854 -0.1278
 4731TIP3    H138388   3.151   0.463  15.672 -0.9142 -1.4774 -0.6818
 4731TIP3    H238389   3.262   0.376  15.619  0.0119 -0.6005 -0.2167
 4732TIP3   OH238390   2.239   0.817  16.509 -0.3090  0.1384  0.0536
 4732TIP3    H138391   2.222   0.730  16.546 -0.0937  1.6526  4.3496
 4732TIP3    H238392   2.327   0.811  16.473 -0.6352 -1.6290 -0.5404
 4733TIP3   OH238393   2.947   6.597  14.927 -0.3069 -0.4352 -0.1302
 4733TIP3    H138394   2.986   6.549  15.001 -0.8264 -0.8940 -0.1521
 4733TIP3    H238395   2.855   6.608  14.952  0.3789  3.3207  1.3453
 4734TIP3   OH238396   0.478   0.546  16.636 -0.1810  0.2783  0.0480
 4734TIP3    H138397   0.447   0.592  16.558 -0.3078 -2.3663 -1.5749
 4734TIP3    H238398   0.399   0.527  16.686 -0.1756  1.3153  0.4798
 4735TIP3   OH238399   6.135   5.551  16.376 -0.2734 -0.1328  0.5747
 4735TIP3    H138400   6.110   5.589  16.460 -0.2894 -2.5505  1.7403
 4735TIP3    H238401   6.163   5.462  16.397  0.5243 -0.5346 -1.8868
 4736TIP3   OH238402   4.517   4.970  16.554  0.0117 -0.1879 -0.1416
 4736TIP3    H138403   4.548   4.894  16.602 -0.2646 -0.1365  0.1208
 4736TIP3    H238404   4.578   5.040  16.579 -1.6954  0.5539  2.3243
 4737TIP3   OH238405   4.026   2.121  16.355 -0.2738  0.2997  0.2980
 4737TIP3    H138406   3.982   2.110  16.270 -0.7253  0.0908  0.5552
 4737TIP3    H238407   4.118   2.135  16.332 -0.4519  0.6259 -0.2421
 4738TIP3   OH238408   6.263   4.980  16.920  0.2944  1.0779 -0.2375
 4738TIP3    H138409   6.279   4.899  16.968  1.1652  1.4865  0.1932
 4738TIP3    H238410   6.340   4.990  16.863 -0.9415  0.3479 -2.1254
 4739TIP3   OH238411   2.471   3.824  15.966  0.5267  0.3802  0.8577
 4739TIP3    H138412   2.526   3.895  16.000  0.6301 -0.4778  2.5942
 4739TIP3    H238413   2.527   3.746  15.970  0.0078 -0.0349  0.2070
 4740TIP3   OH238414   2.384   4.385  16.851  0.2439 -0.5518 -0.1653
 4740TIP3    H138415   2.303   4.434  16.867 -1.2916 -1.2800 -4.2949
 4740TIP3    H238416   2.366   4.298  16.886 -0.8461 -0.7236 -1.0964
 4741TIP3   OH238417   1.597   3.795  14.257 -0.3077  0.4628  0.4383
 4741TIP3    H138418   1.659   3.856  14.298 -1.8618  2.4886 -0.0911
 4741TIP3    H238419   1.529   3.782  14.324  1.2367 -2.9132  1.6034
 4742TIP3   OH238420   5.891   2.488  16.222  0.0967  0.4648  0.5821
 4742TIP3    H138421   5.911   2.529  16.138 -1.4948  0.7112  0.2919
 4742TIP3    H238422   5.798   2.468  16.217  0.5113 -1.9445  1.2552
 4743TIP3   OH238423   0.443   6.355  17.046  0.3538  0.4094  0.3733
 4743TIP3    H138424   0.348   6.367  17.039  0.4007  0.0134 -1.4523
 4743TIP3    H238425   0.479   6.442  17.025  0.4078  0.4457  0.6146
 4744TIP3   OH238426   5.448   3.465  16.616  0.3145 -0.6677  0.1480
 4744TIP3    H138427   5.426   3.479  16.524 -3.8080 -0.1377  1.0277
 4744TIP3    H238428   5.491   3.547  16.643  0.3768 -0.3094 -0.9840
 4745TIP3   OH238429   1.361   1.273  15.406  0.4704  0.1811 -0.1668
 4745TIP3    H138430   1.294   1.266  15.474  0.2916  0.2471 -0.3358
 4745TIP3    H238431   1.366   1.186  15.367 -0.0283  0.3545 -0.6344
 4746TIP3   OH238432   5.957   2.468  16.501  0.4597  0.1971  0.7794
 4746TIP3    H138433   5.954   2.496  16.410  1.5127  0.6816  0.8754
 4746TIP3    H238434   5.970   2.549  16.551  0.3446 -0.1141  1.3239
 4747TIP3   OH238435   0.403   6.336  14.746  0.3193  0.2441 -0.3035
 4747TIP3    H138436   0.355   6.302  14.821  0.1522  1.3965  0.1419
 4747TIP3    H238437   0.345   6.404  14.711  0.3983 -0.2804 -1.4796
 4748TIP3   OH238438   5.013   6.643  14.304 -0.2859 -0.1953  0.0318
 4748TIP3    H138439   5.092   6.593  14.285  0.0725  0.4268 -0.1511
 4748TIP3    H238440   4.942   6.592  14.267  0.3052  0.6344 -2.4124
 4749TIP3   OH238441   2.615   6.263  17.057 -0.1857 -0.0575  0.2863
 4749TIP3    H138442   2.556   6.338  17.056  0.0161  0.1354  1.2144
 4749TIP3    H238443   2.561   6.189  17.029 -0.9386  0.0766  1.3296
 4750TIP3   OH238444   0.768   4.643  14.890 -0.3702 -0.4366  0.3138
 4750TIP3    H138445   0.794   4.733  14.866 -2.3544 -0.5510 -2.7647
 4750TIP3    H238446   0.704   4.655  14.959 -0.6070  0.5609 -0.0507
 4751TIP3   OH238447   1.683   0.155  13.973 -0.0824  0.0856  0.2558
 4751TIP3    H138448   1.698   0.075  14.023 -0.6696 -0.2765 -0.1359
 4751TIP3    H238449   1.606   0.194  14.014  1.1807  1.3521  1.5424
 4752TIP3   OH238450   5.216   0.073  15.862  0.6923  1.0041  0.7830
 4752TIP3    H138451   5.213   0.076  15.957 -0.8242  1.0973  0.7558
 4752TIP3    H238452   5.233  -0.019  15.841 -0.7020  0.6395  1.1503
 4753TIP3   OH238453   2.399   2.520  15.678 -0.5035 -0.0205 -0.1104
 4753TIP3    H138454   2.469   2.582  15.698  0.1969 -1.0669  0.8100
 4753TIP3    H238455   2.342   2.567  15.617  0.1309  1.4328  0.3653
 4754TIP3   OH238456   1.662   0.764  16.277  0.2595  0.6083 -0.1509
 4754TIP3    H138457   1.713   0.753  16.197  0.3102  1.3708 -0.2276
 4754TIP3    H238458   1.576   0.727  16.256  0.1351  1.2094 -0.7036
 4755TIP3   OH238459   2.113   6.107  15.385 -0.3106  0.5156  0.1534
 4755TIP3    H138460   2.144   6.020  15.411 -0.9636  0.4284  0.6569
 4755TIP3    H238461   2.167   6.130  15.309 -0.2836 -0.4273 -0.1259
 4756TIP3   OH238462   1.233   3.110  15.490 -0.4210 -0.1623 -0.1550
 4756TIP3    H138463   1.216   3.183  15.431  0.8572  0.8489  0.6763
 4756TIP3    H238464   1.246   3.150  15.576  0.4491 -1.3299  0.2904
 4757TIP3   OH238465   3.454   5.711  15.236  0.7269  0.0923  0.3425
 4757TIP3    H138466   3.509   5.781  15.271  1.9139 -0.3966 -0.4682
 4757TIP3    H238467   3.453   5.644  15.304  0.8420  0.2538  0.5030
 4758TIP3   OH238468   5.875   3.270  13.599 -0.4812 -0.2603 -0.2788
 4758TIP3    H138469   5.797   3.234  13.642 -0.1419 -1.1189 -0.3594
 4758TIP3    H238470   5.879   3.224  13.515 -2.2448  2.7566 -2.2045
 4759TIP3   OH238471   2.990   5.315  14.603  0.3941 -0.5777 -0.5059
 4759TIP3    H138472   3.040   5.286  14.527  0.2851 -1.8411 -0.1199
 4759TIP3    H238473   3.011   5.252  14.671  1.8185  1.4918  1.0843
 4760TIP3   OH238474   5.334   6.282  15.195  0.0802  0.0233  0.1148
 4760TIP3    H138475   5.420   6.318  15.214  0.0801  0.7627 -1.1431
 4760TIP3    H238476   5.278   6.314  15.266  0.1343  2.3696 -0.8248
 4761TIP3   OH238477   6.217   2.001  14.161 -0.6662 -0.4585 -0.0529
 4761TIP3    H138478   6.217   1.943  14.237 -0.7043  0.7871  0.9338
 4761TIP3    H238479   6.298   1.980  14.115  0.1286 -0.2046  1.1712
 4762TIP3   OH238480   3.587   6.693  15.655  0.2298 -0.2041  0.2625
 4762TIP3    H138481   3.656   6.679  15.590  1.4058 -4.3471  2.0624
 4762TIP3    H238482   3.633   6.722  15.734 -0.2699 -1.2676  0.9722
 4763TIP3   OH238483   0.696   0.601  15.906  0.6122  0.0099  0.2874
 4763TIP3    H138484   0.720   0.527  15.962  0.8360  0.6349  1.0309
 4763TIP3    H238485   0.605   0.620  15.929  1.0233  0.9186  1.1832
 4764TIP3   OH238486   3.683   1.498  13.404 -0.8797 -0.2556  0.6631
 4764TIP3    H138487   3.743   1.515  13.476 -0.9699  0.4539  0.5836
 4764TIP3    H238488   3.619   1.569  13.409 -0.4074  0.2939 -0.6122
 4765TIP3   OH238489   6.285   0.157  15.964 -0.1925  0.0808 -0.4477
 4765TIP3    H138490   6.329   0.131  15.883  2.4657  0.2764  0.8226
 4765TIP3    H238491   6.294   0.080  16.021 -0.7114  0.4777  0.1854
 4766TIP3   OH238492   4.045   5.127  15.201 -0.0935  0.3944 -0.2669
 4766TIP3    H138493   3.996   5.047  15.181 -1.5431  0.7679  1.5305
 4766TIP3    H238494   3.978   5.194  15.211  1.0189  1.5684 -0.4682
 4767TIP3   OH238495   0.980   1.136  14.831 -0.2367 -0.3909 -0.0062
 4767TIP3    H138496   0.894   1.171  14.808 -1.0571 -1.1059  1.8228
 4767TIP3    H238497   0.993   1.062  14.772 -0.8470 -0.2328 -0.3421
 4768TIP3   OH238498   2.052   5.378  14.535  0.5477 -0.6676  0.0810
 4768TIP3    H138499   2.069   5.348  14.446 -0.4928  0.5489 -0.5542
 4768TIP3    H238500   2.138   5.384  14.576  0.9282 -2.8492 -0.2780
 4769TIP3   OH238501   6.099   6.682  13.798  0.4302  0.4751  0.3737
 4769TIP3    H138502   6.083   6.741  13.724  0.7848  0.4038  0.2390
 4769TIP3    H238503   6.193   6.664  13.794  0.0556 -1.5610 -0.6872
 4770TIP3   OH238504   1.460   4.403  14.447 -0.1903 -0.1686 -0.0340
 4770TIP3    H138505   1.520   4.349  14.396 -0.3411 -1.5877  1.2432
 4770TIP3    H238506   1.373   4.376  14.417 -0.2513 -0.1981  0.1674
 4771TIP3   OH238507   3.578   5.051  16.933  0.2658 -0.0564  0.0115
 4771TIP3    H138508   3.565   4.979  16.994 -0.9384  0.8554  0.8770
 4771TIP3    H238509   3.502   5.107  16.946 -0.1219  0.0882 -2.4567
 4772TIP3   OH238510   2.291   6.600  15.988  0.0282 -0.0068  0.0367
 4772TIP3    H138511   2.343   6.667  15.943 -0.5312  1.6612  1.7176
 4772TIP3    H238512   2.229   6.569  15.922  0.9036  0.4603 -1.0394
 4773TIP3   OH238513   1.030   0.894  14.719  0.1732  0.2502 -0.5031
 4773TIP3    H138514   1.012   0.807  14.754  1.1126 -0.1919 -1.0480
 4773TIP3    H238515   1.068   0.877  14.632 -0.5885  1.2442 -1.0525
 4774TIP3   OH238516   3.673   3.390  14.086  0.7219  0.1058 -0.4751
 4774TIP3    H138517   3.657   3.469  14.035  2.2316  2.9178  3.0047
 4774TIP3    H238518   3.768   3.389  14.099  0.5032 -1.0597  1.3241
 4775TIP3   OH238519   3.413   0.649  15.664  0.3276 -0.2006  0.9056
 4775TIP3    H138520   3.323   0.617  15.673 -0.2068  1.5653  2.3719
 4775TIP3    H238521   3.446   0.657  15.753  1.2563  1.0208  0.4915
 4776TIP3   OH238522   2.757   4.096  15.071  0.6398 -0.2172 -0.0644
 4776TIP3    H138523   2.822   4.162  15.094  1.7895 -1.2257 -0.3137
 4776TIP3    H238524   2.673   4.134  15.099  1.3545  0.9794  0.5370
 4777TIP3   OH238525   3.866   1.188  13.780 -0.1891  0.7272 -0.3445
 4777TIP3    H138526   3.870   1.258  13.715  0.6584 -0.2832 -1.4032
 4777TIP3    H238527   3.887   1.108  13.732 -1.8294 -0.3847  0.6899
 4778TIP3   OH238528   2.078   1.143  17.106  0.0291  0.4037  0.4236
 4778TIP3    H138529   2.155   1.199  17.118  0.5303 -0.1463 -0.0960
 4778TIP3    H238530   2.036   1.178  17.027  0.5292 -0.1400 -0.0956
 4779TIP3   OH238531   3.327   1.882  14.219  0.2110 -0.3678  0.0137
 4779TIP3    H138532   3.293   1.879  14.309  0.5923 -3.0157  0.1720
 4779TIP3    H238533   3.417   1.850  14.227 -0.2261 -2.1368 -1.4177
 4780TIP3   OH238534   6.560   5.696  16.941 -0.0182 -0.0659  0.0537
 4780TIP3    H138535   6.525   5.780  16.971 -0.7626  0.1964 -1.4398
 4780TIP3    H238536   6.569   5.643  17.020  0.1729  1.3144  0.9789
 4781TIP3   OH238537   4.398   6.348  16.048  0.2608  0.4100  0.0575
 4781TIP3    H138538   4.467   6.286  16.025 -1.7241 -2.0060  0.0653
 4781TIP3    H238539   4.415   6.370  16.140  1.0387 -0.0990  0.0444
 4782TIP3   OH238540   5.324   0.797  16.763  0.0304  0.1915 -0.1855
 4782TIP3    H138541   5.264   0.868  16.740 -1.4209 -0.6427  0.8682
 4782TIP3    H238542   5.338   0.807  16.857 -1.6467 -1.9373  0.3511
 4783TIP3   OH238543   2.235   0.637  14.879  0.1985  0.1097 -0.3401
 4783TIP3    H138544   2.323   0.641  14.918  0.5469  0.2671 -1.1310
 4783TIP3    H238545   2.235   0.708  14.814 -0.6862  0.4338  0.0055
 4784TIP3   OH238546   3.425   6.195  14.844  0.1170  0.0297 -0.5340
 4784TIP3    H138547   3.475   6.200  14.762  1.4078 -1.3287  0.1192
 4784TIP3    H238548   3.343   6.241  14.825 -0.0953 -1.1701 -2.9595
 4785TIP3   OH238549   0.401   3.328  14.737 -0.5011 -0.2369 -0.5244
 4785TIP3    H138550   0.454   3.396  14.695 -0.1328 -0.7195 -0.8395
 4785TIP3    H238551   0.321   3.325  14.685 -0.4778 -0.1140 -0.5689
 4786TIP3   OH238552   1.672   5.561  15.307  0.6119  0.0059 -0.3717
 4786TIP3    H138553   1.687   5.643  15.354  0.5565 -0.8759  1.2890
 4786TIP3    H238554   1.731   5.564  15.232 -0.9317  2.4941 -1.6110
 4787TIP3   OH238555   5.716   0.170  16.252  0.3125  0.2080  0.0011
 4787TIP3    H138556   5.647   0.208  16.306  0.3357  0.1313  0.0837
 4787TIP3    H238557   5.797   0.204  16.290  0.3180  0.3354 -0.1254
 4788TIP3   OH238558   6.504   3.429  14.979  0.6786 -0.4845  0.2033
 4788TIP3    H138559   6.478   3.344  14.943  1.0569 -0.8571  0.7889
 4788TIP3    H238560   6.583   3.410  15.030 -0.3738 -0.1943  2.0440
 4789TIP3   OH238561   0.186   0.858  16.129 -0.5018 -0.1390 -0.3280
 4789TIP3    H138562   0.132   0.936  16.138 -0.7331 -0.3224 -0.1339
 4789TIP3    H238563   0.245   0.879  16.057 -1.1149 -0.0990 -0.8300
 4790TIP3   OH238564   2.980   0.816  14.409 -0.2503 -0.1485  0.2064
 4790TIP3    H138565   3.061   0.855  14.440 -0.2308 -0.5504  0.6830
 4790TIP3    H238566   2.949   0.875  14.340 -0.1121  0.5807  0.7562
 4791TIP3   OH238567   3.662   2.484  15.635 -0.2071  0.4655 -0.1698
 4791TIP3    H138568   3.601   2.438  15.579 -1.5863 -1.0641  2.4135
 4791TIP3    H238569   3.704   2.415  15.687 -1.2728  1.8804  2.7997
 4792TIP3   OH238570   6.076   5.317  14.904  0.1794  0.1062 -0.1490
 4792TIP3    H138571   5.999   5.359  14.943  0.4400  1.2860 -0.8660
 4792TIP3    H238572   6.145   5.382  14.912  0.9834 -0.7421  0.0033
 4793TIP3   OH238573   1.455   0.237  14.072  0.5495 -0.5377 -0.2557
 4793TIP3    H138574   1.366   0.236  14.036  0.6900  0.3951 -0.6622
 4793TIP3    H238575   1.453   0.303  14.141  1.1742  0.2498 -0.9669
 4794TIP3   OH238576   3.293   5.804  14.390 -0.1911 -0.0250  0.2393
 4794TIP3    H138577   3.274   5.747  14.464 -2.9877  0.3523 -0.0672
 4794TIP3    H238578   3.323   5.886  14.429 -1.9652  0.2896  1.0428
 4795TIP3   OH238579   3.480   1.587  16.303 -0.0238 -0.5292 -0.0436
 4795TIP3    H138580   3.575   1.580  16.308 -0.0842 -1.0825  0.4123
 4795TIP3    H238581   3.452   1.600  16.394 -0.3870 -0.3794 -0.1727
 4796TIP3   OH238582   6.025   5.654  14.446  0.7302 -0.3410  0.4771
 4796TIP3    H138583   6.007   5.560  14.449  0.0965 -0.2546 -0.3391
 4796TIP3    H238584   6.121   5.659  14.443  0.7616 -1.0305 -0.9355
 4797TIP3   OH238585   1.817   5.874  13.909 -0.0730 -0.1689  0.1600
 4797TIP3    H138586   1.797   5.966  13.926  2.1174  0.1524  1.3814
 4797TIP3    H238587   1.830   5.869  13.815  3.6471  1.7485  0.4066
 4798TIP3   OH238588   2.254   6.133  14.701  0.0144  0.0633 -0.4026
 4798TIP3    H138589   2.199   6.055  14.694  0.2540 -0.1315 -0.1263
 4798TIP3    H238590   2.298   6.138  14.616 -0.3288  0.1447 -0.5762
 4799TIP3   OH238591   1.794   5.780  16.507 -0.1181  0.3496 -0.3047
 4799TIP3    H138592   1.811   5.838  16.433  1.5256  1.5507  0.9305
 4799TIP3    H238593   1.863   5.715  16.503 -0.3819  0.0601 -0.1800
 4800TIP3   OH238594   2.608   2.250  15.013 -0.6731 -0.3401 -0.0159
 4800TIP3    H138595   2.557   2.194  15.071 -1.2276  0.2891  0.1149
 4800TIP3    H238596   2.693   2.260  15.057 -0.4028 -1.4330 -0.2611
 4801TIP3   OH238597   6.457   5.896  17.112 -0.1690  0.4867 -0.4924
 4801TIP3    H138598   6.410   5.873  17.193  0.5783  0.2247 -0.1239
 4801TIP3    H238599   6.495   5.982  17.130  1.0329 -0.1150 -0.0984
 4802TIP3   OH238600   2.652   0.114  14.471 -0.5070  0.5925 -0.5960
 4802TIP3    H138601   2.748   0.114  14.466 -0.5164  0.4773 -0.7976
 4802TIP3    H238602   2.625   0.192  14.423 -0.5690 -0.1357 -1.7854
 4803TIP3   OH238603   6.151   3.076  15.663  0.3702 -0.2745  0.0874
 4803TIP3    H138604   6.237   3.034  15.671  0.7159 -0.2275 -2.5064
 4803TIP3    H238605   6.092   3.006  15.636 -0.2676 -0.1440  1.0859
 4804TIP3   OH238606   1.759   1.571  15.879  0.0363 -0.5684  0.1963
 4804TIP3    H138607   1.835   1.531  15.922  0.5138  0.8595  0.7721
 4804TIP3    H238608   1.732   1.508  15.813  0.3490 -2.0907  1.4628
 4805TIP3   OH238609   0.962   5.145  14.961  0.4968  0.4446 -0.3179
 4805TIP3    H138610   1.042   5.111  14.920  0.6720 -0.5401  0.7895
 4805TIP3    H238611   0.989   5.171  15.049 -0.1414  1.3567 -0.3726
 4806TIP3   OH238612   2.664   2.661  15.740  0.1945  0.0167 -0.5539
 4806TIP3    H138613   2.733   2.599  15.716  0.6427 -0.1468  1.0822
 4806TIP3    H238614   2.708   2.729  15.790 -0.4490  1.2359 -1.5765
 4807TIP3   OH238615   5.223   3.549  15.275  0.1043 -0.0511  0.1055
 4807TIP3    H138616   5.137   3.532  15.315  0.0381 -0.0474 -0.0358
 4807TIP3    H238617   5.203   3.582  15.188  0.2543 -0.2389 -0.0006
 4808TIP3   OH238618   5.108   0.205  15.392  0.2691  0.6022  0.2735
 4808TIP3    H138619   5.138   0.291  15.423  1.5776 -0.0753  0.9547
 4808TIP3    H238620   5.179   0.174  15.336 -0.7120  0.4469 -0.9125
 4809TIP3   OH238621   1.705   4.253  14.058 -0.6716  0.5503 -0.1623
 4809TIP3    H138622   1.770   4.184  14.073 -0.6150  0.8365  1.0028
 4809TIP3    H238623   1.745   4.310  13.992 -0.5100 -0.2391 -0.7724
 4810TIP3   OH238624   5.949   0.794  16.036  0.4349 -0.5574  0.2735
 4810TIP3    H138625   5.968   0.739  15.961 -0.1707 -0.6393  0.1696
 4810TIP3    H238626   5.944   0.883  16.001 -0.6390 -0.6887  0.0629
 4811TIP3   OH238627   3.014   0.307  17.229 -0.3247 -0.5222 -0.7265
 4811TIP3    H138628   2.981   0.237  17.172 -1.7213  0.0979 -0.7389
 4811TIP3    H238629   2.954   0.306  17.304 -0.6653  0.9568 -0.9580
 4812TIP3   OH238630   2.757   5.307  14.324  0.0567  0.5474  0.1080
 4812TIP3    H138631   2.712   5.223  14.309  1.0618 -0.2230  1.1974
 4812TIP3    H238632   2.799   5.327  14.240  3.1554 -2.1561  0.8210
 4813TIP3   OH238633   0.084   5.316  15.719  0.1955 -0.1032 -0.3748
 4813TIP3    H138634   0.179   5.331  15.713  0.3145 -0.7848 -0.1939
 4813TIP3    H238635   0.071   5.272  15.802 -0.4943  1.5210  0.4255
 4814TIP3   OH238636   2.049   0.539  15.080 -0.3754  0.1163  0.1118
 4814TIP3    H138637   2.083   0.588  15.005  1.5992 -0.5606  0.4991
 4814TIP3    H238638   1.981   0.483  15.043 -0.1845  0.5616 -0.9645
 4815TIP3   OH238639   1.873   4.714  16.084  0.7171  0.2404 -0.1268
 4815TIP3    H138640   1.942   4.660  16.045  0.9286  0.0319  0.5219
 4815TIP3    H238641   1.888   4.707  16.178 -1.3980 -1.4307  0.1480
 4816TIP3   OH238642   2.073   4.580  16.415  0.1111 -0.4403  0.2056
 4816TIP3    H138643   2.123   4.619  16.343  0.3379 -0.5177  0.3210
 4816TIP3    H238644   2.076   4.645  16.485 -0.4986 -0.1667 -0.0135
 4817TIP3   OH238645   4.195   1.053  16.382 -0.2919 -0.2163  0.0166
 4817TIP3    H138646   4.130   0.997  16.424 -2.3000  2.1691  0.3746
 4817TIP3    H238647   4.178   1.042  16.288  0.8971 -1.8580 -0.0469
 4818TIP3   OH238648   0.477   5.533  15.971 -0.5349  0.8884  0.1423
 4818TIP3    H138649   0.519   5.448  15.964 -2.0856  0.1115 -0.2456
 4818TIP3    H238650   0.514   5.584  15.899 -0.6536  0.0364 -0.5409
 4819TIP3   OH238651   4.772   0.326  14.977  0.4979  0.7808  0.0702
 4819TIP3    H138652   4.692   0.290  15.015  0.8150  1.6361  1.6132
 4819TIP3    H238653   4.842   0.273  15.015  0.9130  2.4461  1.7266
 4820TIP3   OH238654   2.887   6.296  16.881  0.2220 -0.0616 -0.3010
 4820TIP3    H138655   2.942   6.310  16.958 -0.8818  1.9410  0.1999
 4820TIP3    H238656   2.809   6.349  16.897 -0.1250  0.2816 -2.6993
 4821TIP3   OH238657   4.979   3.201  13.538 -0.4729 -0.4553 -0.4596
 4821TIP3    H138658   5.028   3.186  13.457  0.2081  0.7665 -0.2953
 4821TIP3    H238659   4.904   3.255  13.512  1.5254  2.8675  0.1441
 4822TIP3   OH238660   0.628   5.781  16.381 -0.4072  0.1421 -0.7691
 4822TIP3    H138661   0.582   5.697  16.390  3.2445 -1.9526  0.5637
 4822TIP3    H238662   0.681   5.787  16.461  0.1344  3.3559 -1.2601
 4823TIP3   OH238663   0.819   4.860  16.768  0.1588 -0.2607  0.4312
 4823TIP3    H138664   0.740   4.869  16.822  0.1671 -1.0925  0.5936
 4823TIP3    H238665   0.869   4.940  16.785 -0.2337 -0.1346  1.0144
 4824TIP3   OH238666   2.963   1.339  14.106 -0.6444  0.0028  0.1086
 4824TIP3    H138667   3.003   1.410  14.055 -2.5787  1.7367  0.8741
 4824TIP3    H238668   2.895   1.304  14.050  0.0664 -1.0510 -0.1247
 4825TIP3   OH238669   4.497   5.626  13.914  0.9400 -0.2629 -0.4058
 4825TIP3    H138670   4.527   5.717  13.921  0.6912 -0.1628 -0.6418
 4825TIP3    H238671   4.549   5.590  13.842  1.6679 -0.5652  0.2470
 4826TIP3   OH238672   3.715   0.738  16.395 -0.5390  0.2294 -0.0585
 4826TIP3    H138673   3.720   0.654  16.441 -1.2723  0.0314 -0.3261
 4826TIP3    H238674   3.759   0.721  16.311  3.6987  1.4362  1.6632
 4827TIP3   OH238675   4.842   4.636  13.485  0.3653  0.9603 -0.0102
 4827TIP3    H138676   4.868   4.709  13.541  2.7551  0.1054  0.1348
 4827TIP3    H238677   4.812   4.677  13.404  1.7156  2.1223  0.0450
 4828TIP3   OH238678   2.951   4.616  15.993 -0.1319  0.1467  0.1255
 4828TIP3    H138679   2.948   4.576  15.906 -0.6243  0.1630  0.1303
 4828TIP3    H238680   3.040   4.651  16.001  0.6992 -1.9089  0.5572
 4829TIP3   OH238681   2.892   3.891  15.948 -0.4405  0.5662  0.1572
 4829TIP3    H138682   2.837   3.819  15.917 -1.3847  0.6972  1.4727
 4829TIP3    H238683   2.941   3.853  16.022  0.4952  0.7457 -0.3528
 4830TIP3   OH238684   5.777   1.087  15.325 -0.0393  0.1111 -0.1943
 4830TIP3    H138685   5.833   1.164  15.310  0.7772 -0.4609 -0.1320
 4830TIP3    H238686   5.747   1.096  15.415  0.2955  0.2150 -0.0901
 4831TIP3   OH238687   0.638   4.110  14.716  0.1812  0.2976  0.0545
 4831TIP3    H138688   0.675   4.108  14.804  1.9371 -0.1662 -0.6511
 4831TIP3    H238689   0.572   4.179  14.719 -0.2512 -0.1429  1.8844
 4832TIP3   OH238690   3.677   4.515  15.112  0.4762 -0.4105 -0.0534
 4832TIP3    H138691   3.723   4.530  15.029 -2.2014  1.9164 -1.3119
 4832TIP3    H238692   3.608   4.453  15.090  0.1887 -0.3371  0.6233
 4833TIP3   OH238693   4.398   5.832  14.525 -0.3573 -0.0446 -0.5781
 4833TIP3    H138694   4.307   5.840  14.555 -1.4488 -2.0029 -2.9908
 4833TIP3    H238695   4.419   5.919  14.490 -1.7554  0.1413 -1.0476
 4834TIP3   OH238696   4.043   6.447  17.053  0.4931  0.2338  0.4290
 4834TIP3    H138697   4.078   6.438  16.964 -1.3302 -0.1147 -0.3120
 4834TIP3    H238698   4.058   6.538  17.076  1.2532  0.2544 -0.1041
 4835TIP3   OH238699   5.267   3.432  16.064  0.2358 -0.1793  0.5373
 4835TIP3    H138700   5.268   3.371  15.990  1.4770  0.6896 -0.1847
 4835TIP3    H238701   5.248   3.517  16.025 -0.5581  0.0741  1.4290
 4836TIP3   OH238702   5.430   2.598  15.584  0.5038  0.0210  0.2360
 4836TIP3    H138703   5.338   2.582  15.608  0.3076  0.5423 -0.1498
 4836TIP3    H238704   5.430   2.686  15.547  0.8001 -0.6769 -1.5321
 4837TIP3   OH238705   4.813   5.011  14.948 -0.8164 -0.0358 -0.4931
 4837TIP3    H138706   4.884   4.960  14.989 -2.0332 -0.8399  0.6959
 4837TIP3    H238707   4.821   5.098  14.986 -0.3908 -0.0780 -0.4778
 4838TIP3   OH238708   3.557   1.924  15.330 -0.4849  0.6724 -0.2267
 4838TIP3    H138709   3.581   1.838  15.363  0.2104  0.8751 -0.1809
 4838TIP3    H238710   3.640   1.973  15.329 -0.7806  1.1742 -0.7307
 4839TIP3   OH238711   2.300   4.207  15.953  0.4216 -0.2119  0.4872
 4839TIP3    H138712   2.288   4.229  16.046 -0.2436 -0.2599  0.4120
 4839TIP3    H238713   2.380   4.254  15.928 -0.2526  1.0773  0.6711
 4840TIP3   OH238714   6.427   4.137  14.362  0.4124  0.2874  0.3367
 4840TIP3    H138715   6.399   4.218  14.404 -1.9641 -0.3276  0.0997
 4840TIP3    H238716   6.480   4.092  14.428  0.0141  1.0952  1.2256
 4841TIP3   OH238717   4.516   2.932  14.620  0.4341  0.0750 -0.2057
 4841TIP3    H138718   4.569   3.009  14.604 -0.4656  0.5822 -0.8904
 4841TIP3    H238719   4.435   2.965  14.659 -0.2624 -0.4143 -1.1740
 4842TIP3   OH238720   2.728   3.672  14.990 -0.0059 -0.1290  0.3729
 4842TIP3    H138721   2.758   3.597  14.939  0.4553  0.1051  0.2907
 4842TIP3    H238722   2.647   3.700  14.947 -0.4940 -0.9237  0.7486
 4843TIP3   OH238723   5.391   5.036  17.044  0.1273  0.1271 -0.0271
 4843TIP3    H138724   5.363   4.966  16.984 -0.7045  0.5534 -0.1573
 4843TIP3    H238725   5.391   4.995  17.130 -1.9277  0.3398  0.1277
 4844TIP3   OH238726   3.132   5.603  16.156 -0.0176  0.2334 -0.2563
 4844TIP3    H138727   3.057   5.622  16.100 -1.1829  1.1502  1.5097
 4844TIP3    H238728   3.142   5.681  16.210  1.7262 -0.1879  0.0856
 4845TIP3   OH238729   4.809   5.991  14.514  0.2770 -0.1586 -0.2318
 4845TIP3    H138730   4.889   6.042  14.523 -0.6323  0.9969  2.3086
 4845TIP3    H238731   4.771   6.019  14.431  1.2768  1.1282 -0.2814
 4846TIP3   OH238732   5.336   1.903  13.993 -0.0455 -0.1632 -0.1704
 4846TIP3    H138733   5.383   1.980  13.962 -0.5774  0.4909  0.6305
 4846TIP3    H238734   5.400   1.832  13.986  0.8738  0.5951  0.3289
 4847TIP3   OH238735   3.501   6.499  17.242 -0.0142 -0.3847 -0.3114
 4847TIP3    H138736   3.433   6.509  17.309  0.5058  0.2661  0.1266
 4847TIP3    H238737   3.470   6.552  17.169  0.2717  0.3525  0.0919
 4848TIP3   OH238738   3.591   0.337  13.427 -0.4927 -0.1549 -0.2902
 4848TIP3    H138739   3.579   0.330  13.332 -0.1794  0.4610 -0.3756
 4848TIP3    H238740   3.553   0.421  13.450 -2.9518 -1.3982  0.5407
 4849TIP3   OH238741   0.322   6.454  14.161  0.2622  0.1785 -0.0889
 4849TIP3    H138742   0.365   6.436  14.244  0.0103 -1.5375 -0.2880
 4849TIP3    H238743   0.391   6.446  14.096  0.3326  0.9029 -0.1114
 4850TIP3   OH238744   0.607   0.253  14.728 -0.0951 -0.1287 -0.7076
 4850TIP3    H138745   0.533   0.314  14.719  0.8061  0.8610 -1.7319
 4850TIP3    H238746   0.673   0.303  14.777  0.0416 -0.8789 -0.1098
 4851TIP3   OH238747   2.822   5.068  17.005  0.4015 -0.2262 -0.0051
 4851TIP3    H138748   2.907   5.035  16.976  0.9783  0.7760  0.4594
 4851TIP3    H238749   2.769   5.071  16.926  1.5656  1.3400 -0.7867
 4852TIP3   OH238750   5.857   0.740  14.478 -0.1522 -0.1418 -0.3941
 4852TIP3    H138751   5.778   0.767  14.433  1.6731  1.5609 -2.8501
 4852TIP3    H238752   5.883   0.817  14.529  0.7986 -0.0519 -0.9882
 4853TIP3   OH238753   0.115   0.443  17.019  0.4700 -0.3346 -0.1004
 4853TIP3    H138754   0.159   0.526  17.037 -1.8477  0.5614  1.8949
 4853TIP3    H238755   0.036   0.467  16.970 -0.2247 -1.3449  0.4942
 4854TIP3   OH238756   5.569   5.684  13.911 -0.2624 -0.6808 -0.5727
 4854TIP3    H138757   5.507   5.615  13.934 -1.9474  1.0070  0.2425
 4854TIP3    H238758   5.523   5.736  13.845 -0.1723  1.1773  0.7486
 4855TIP3   OH238759   3.958   4.236  16.096  0.2293  0.5547  0.3580
 4855TIP3    H138760   3.991   4.154  16.132 -0.6550 -0.4493 -0.9910
 4855TIP3    H238761   4.014   4.253  16.020 -0.7828  0.1518 -0.4952
 4856TIP3   OH238762   0.744   0.452  15.338  0.4806  0.3987  0.2938
 4856TIP3    H138763   0.696   0.373  15.313  0.9173  0.2334 -0.0445
 4856TIP3    H238764   0.835   0.433  15.314  0.3847  1.5116 -1.0669
 4857TIP3   OH238765   0.035   4.154  16.138 -1.1405 -0.7941  0.2445
 4857TIP3    H138766  -0.010   4.228  16.179 -0.8651 -0.4860 -0.0048
 4857TIP3    H238767   0.078   4.192  16.061 -0.5702 -1.1124  0.4028
 4858TIP3   OH238768   0.959   3.007  14.820 -0.2883 -0.0166 -0.2277
 4858TIP3    H138769   1.005   3.021  14.903 -0.7720  1.1279 -0.1272
 4858TIP3    H238770   0.873   2.972  14.846  0.4158 -1.9716 -0.4024
 4859TIP3   OH238771   2.361   1.675  16.002  0.0342 -0.5643 -0.0077
 4859TIP3    H138772   2.418   1.609  16.042  1.7748  0.1691 -1.1172
 4859TIP3    H238773   2.361   1.652  15.909  0.8212  1.0428 -0.4398
 4860TIP3   OH238774   1.829   0.113  16.411  0.6437  0.2472  0.3960
 4860TIP3    H138775   1.755   0.167  16.383  0.0061 -1.1580 -0.7687
 4860TIP3    H238776   1.791   0.054  16.477  0.6195 -0.6688 -0.4100
 4861TIP3   OH238777   0.908   6.723  14.960  0.2379  0.7220 -0.2624
 4861TIP3    H138778   0.825   6.770  14.967 -0.2643 -0.3012  1.4313
 4861TIP3    H238779   0.885   6.638  14.921  0.6090  0.7146 -0.4691
 4862TIP3   OH238780   3.312   1.762  14.702  0.1710  0.5792 -0.2042
 4862TIP3    H138781   3.328   1.678  14.745 -0.5285  0.1564 -0.7371
 4862TIP3    H238782   3.269   1.815  14.769 -0.3567  0.1328 -0.1748
 4863TIP3   OH238783   2.262   6.173  14.036 -0.3681  0.4791  0.4137
 4863TIP3    H138784   2.190   6.144  13.980  0.4746 -0.3412 -0.2678
 4863TIP3    H238785   2.327   6.207  13.975  0.2271  0.3342  0.9616
 4864TIP3   OH238786   0.552   6.541  13.974 -0.3017  0.0665  0.2045
 4864TIP3    H138787   0.586   6.475  13.913 -0.5163  0.3455 -0.2205
 4864TIP3    H238788   0.626   6.599  13.990 -0.8440  1.3227 -1.5949
 4865TIP3   OH238789   6.521   4.344  14.169 -0.5555  0.1666  0.1566
 4865TIP3    H138790   6.555   4.421  14.212 -1.2186  0.2263  0.5900
 4865TIP3    H238791   6.536   4.272  14.231 -0.4701  0.0480  0.0009
 4866TIP3   OH238792   1.287   4.663  16.720  0.0488 -0.1527  0.0246
 4866TIP3    H138793   1.198   4.696  16.735 -0.7829 -1.3522 -1.8825
 4866TIP3    H238794   1.332   4.734  16.675 -0.1464  0.2288  0.4301
 4867TIP3   OH238795   1.192   3.278  14.854 -0.7884  0.1087  0.8777
 4867TIP3    H138796   1.185   3.363  14.897  0.8634 -0.1441  1.7028
 4867TIP3    H238797   1.160   3.215  14.919 -1.0364  0.0003  0.6522
 4868TIP3   OH238798   4.545   5.964  14.719 -0.0384 -0.5168 -0.0269
 4868TIP3    H138799   4.624   5.963  14.665 -0.0322 -0.2269 -0.0257
 4868TIP3    H238800   4.513   5.874  14.717 -0.7574 -0.2556 -1.5561
 4869TIP3   OH238801   3.208   6.747  16.679  0.0484 -0.6400  0.2009
 4869TIP3    H138802   3.197   6.757  16.584  0.1192  1.8261  0.3828
 4869TIP3    H238803   3.130   6.700  16.707 -1.0144  0.4291 -0.8463
 4870TIP3   OH238804   6.525   6.058  16.529 -0.1322 -0.0251  0.0190
 4870TIP3    H138805   6.550   6.053  16.437  0.4289 -0.3526  0.1864
 4870TIP3    H238806   6.587   6.001  16.575 -1.9916 -2.0053  0.2815
 4871TIP3   OH238807   5.223   4.898  15.882  0.2116  0.2013 -0.5139
 4871TIP3    H138808   5.223   4.908  15.977  0.3057 -0.7979 -0.3948
 4871TIP3    H238809   5.143   4.941  15.853 -0.6110 -0.8090  0.1871
 4872TIP3   OH238810   6.312   2.156  14.369  0.1458 -0.3239 -0.1525
 4872TIP3    H138811   6.293   2.092  14.301 -1.8395  0.1677 -0.1255
 4872TIP3    H238812   6.305   2.241  14.324  1.8609 -0.0557  0.0093
 4873TIP3   OH238813   1.094   2.319  16.112 -0.4896  0.2090 -0.2033
 4873TIP3    H138814   1.148   2.326  16.034 -0.9498  2.2976 -0.4040
 4873TIP3    H238815   1.014   2.275  16.083 -0.3181  0.2298 -0.7125
 4874TIP3   OH238816   1.750   2.472  16.247 -0.3448 -0.3535 -0.2808
 4874TIP3    H138817   1.719   2.419  16.174 -0.3513  2.3473 -2.4121
 4874TIP3    H238818   1.845   2.462  16.246 -0.3008  0.0568 -1.0292
 4875TIP3   OH238819   6.340   0.911  13.939  0.1622 -0.0301  0.0570
 4875TIP3    H138820   6.321   0.825  13.900 -0.2242  0.2849 -0.4710
 4875TIP3    H238821   6.434   0.922  13.928  0.2349 -0.4535  0.2623
 4876TIP3   OH238822   6.033   4.206  14.410  0.4032 -0.1782 -0.3574
 4876TIP3    H138823   5.970   4.166  14.471  0.6926  0.4146  0.3297
 4876TIP3    H238824   6.097   4.250  14.466  0.9439 -0.0333 -1.0773
 4877TIP3   OH238825   2.910   1.078  14.302 -0.0317 -0.6496  0.0303
 4877TIP3    H138826   2.947   1.164  14.286 -0.4305 -0.1370  1.6731
 4877TIP3    H238827   2.889   1.077  14.395 -0.0811 -2.5122  0.0495
 4878TIP3   OH238828   0.243   2.785  15.446  0.1150 -0.1340  0.3098
 4878TIP3    H138829   0.283   2.833  15.519 -0.2677 -0.6117  0.8437
 4878TIP3    H238830   0.315   2.771  15.384  0.6769 -0.5441  1.0352
 4879TIP3   OH238831   0.308   6.532  15.165 -0.8364 -0.2455 -0.1327
 4879TIP3    H138832   0.255   6.516  15.087 -1.6653  1.2837  0.0893
 4879TIP3    H238833   0.245   6.554  15.233  0.0050  0.5346  0.4224
 4880TIP3   OH238834   3.770   4.859  15.828  0.2089 -0.2007  0.7921
 4880TIP3    H138835   3.724   4.939  15.802  1.5247  0.4174  0.2806
 4880TIP3    H238836   3.854   4.864  15.783  1.2933 -0.6812  2.6602
 4881TIP3   OH238837   4.787   5.777  15.211  0.2090 -0.1177 -0.4930
 4881TIP3    H138838   4.865   5.734  15.174 -0.2598  0.1219 -1.8235
 4881TIP3    H238839   4.822   5.849  15.263  0.9020 -0.2820 -0.7180
 4882TIP3   OH238840   0.863   2.026  14.855  0.1228 -0.1784  0.2461
 4882TIP3    H138841   0.904   2.053  14.937  0.1931  1.8655 -0.4236
 4882TIP3    H238842   0.785   1.977  14.882 -0.4869  1.4295  1.5530
 4883TIP3   OH238843   0.240   3.838  16.125 -0.2786  0.0079 -0.3962
 4883TIP3    H138844   0.291   3.781  16.182 -3.1395 -0.9456  1.4121
 4883TIP3    H238845   0.226   3.918  16.177 -0.4259  0.3725 -0.9840
 4884TIP3   OH238846   6.183   2.859  16.036 -0.2011  0.3496 -0.0784
 4884TIP3    H138847   6.190   2.949  16.066  0.6735 -0.3182  1.9099
 4884TIP3    H238848   6.254   2.813  16.082 -0.5345 -1.3277 -1.1464
 4885TIP3   OH238849   5.765   6.604  14.131  0.0399  0.4842  0.7115
 4885TIP3    H138850   5.804   6.519  14.112 -1.3082  0.0587 -0.3272
 4885TIP3    H238851   5.797   6.661  14.062  0.9345  0.8444  1.4018
 4886TIP3   OH238852   3.903   2.207  14.714  0.3836 -0.8155  0.1454
 4886TIP3    H138853   3.995   2.184  14.705 -0.1235 -2.4404 -1.2303
 4886TIP3    H238854   3.891   2.219  14.808  2.2682  0.7927  0.2607
 4887TIP3   OH238855   3.128   4.238   8.336 -0.0100  0.2375 -0.0870
 4887TIP3    H138856   3.145   4.144   8.327 -0.9321  0.0091  0.4111
 4887TIP3    H238857   3.041   4.250   8.300 -0.0568  0.8393  0.2092
 4888TIP3   OH238858   4.080   1.255  15.700  0.4810  0.2802 -0.1223
 4888TIP3    H138859   4.131   1.295  15.629 -1.2093  0.6443 -1.1843
 4888TIP3    H238860   4.092   1.161  15.688  0.1901  0.3397 -0.9108
 4889TIP3   OH238861   6.089   0.477  15.847  0.7959 -0.1696  0.1170
 4889TIP3    H138862   6.017   0.531  15.814  2.0119  1.4579  0.0255
 4889TIP3    H238863   6.099   0.408  15.781 -0.5209 -0.2916  0.0241
 4890TIP3   OH238864   6.217   0.010  16.690  0.6417 -0.2325  0.6458
 4890TIP3    H138865   6.224   0.101  16.659 -0.2366 -0.0223  1.0338
 4890TIP3    H238866   6.204  -0.041  16.610 -1.6037  0.3002  0.5855
 4891TIP3   OH238867   4.303   1.715  15.099  0.3113  0.6398 -0.4913
 4891TIP3    H138868   4.291   1.666  15.017  0.8762  0.5468 -0.5187
 4891TIP3    H238869   4.332   1.802  15.072  0.8795  0.4894 -0.3789
 4892TIP3   OH238870   2.345   6.481  15.303 -0.5147  0.4506 -0.7929
 4892TIP3    H138871   2.255   6.451  15.289 -0.1339 -0.1143 -2.1445
 4892TIP3    H238872   2.336   6.576  15.317 -1.3935  0.2635  0.0701
 4893TIP3   OH238873   3.967   1.672  14.662 -0.6579 -0.1909  0.3877
 4893TIP3    H138874   4.021   1.723  14.723 -0.5046  0.5949 -0.3839
 4893TIP3    H238875   3.889   1.648  14.712 -0.0923 -0.4033  1.1829
 4894TIP3   OH238876   4.363   5.853  15.629  0.7329  0.1773 -0.6405
 4894TIP3    H138877   4.342   5.894  15.713 -3.7296 -0.5563 -1.1658
 4894TIP3    H238878   4.351   5.759  15.644 -0.2650  0.0458 -2.0586
 4895TIP3   OH238879   2.414   5.808  16.382  0.3845  0.2531  0.5273
 4895TIP3    H138880   2.479   5.738  16.381  1.7812  1.4841 -0.3757
 4895TIP3    H238881   2.444   5.868  16.451  0.1974  0.8148  0.1345
 4896TIP3   OH238882   5.581   6.150  15.981 -0.1736 -0.5533 -0.7178
 4896TIP3    H138883   5.539   6.191  15.906  0.3825  0.5107 -0.4765
 4896TIP3    H238884   5.527   6.176  16.056  0.4978  0.2637 -0.4928
 4897TIP3   OH238885   3.755   3.319  13.718 -0.4138 -0.2524  0.3126
 4897TIP3    H138886   3.825   3.383  13.727 -1.6128  1.0227  0.8212
 4897TIP3    H238887   3.776   3.272  13.637  0.6498  0.5682  0.0940
 4898TIP3   OH238888   6.015   1.888  14.504 -0.3986 -0.1734  0.2641
 4898TIP3    H138889   6.017   1.983  14.508  1.2458 -0.2122  1.9196
 4898TIP3    H238890   5.982   1.861  14.590 -2.1490 -1.1187 -0.6548
 4899TIP3   OH238891   2.974   1.341  14.409 -0.1556 -0.1985  0.4310
 4899TIP3    H138892   2.999   1.366  14.320  3.9332 -1.4195  0.9898
 4899TIP3    H238893   2.982   1.422  14.460 -1.3887  0.2596 -0.0663
 4900TIP3   OH238894   2.981   1.327  15.224  0.3007 -0.0476  0.8334
 4900TIP3    H138895   2.959   1.370  15.141 -0.3415 -0.3704  0.8296
 4900TIP3    H238896   2.946   1.238  15.214  1.0490 -0.3816  1.0859
 4901TIP3   OH238897   3.216   4.547  15.112  0.1721  0.1004  0.0637
 4901TIP3    H138898   3.178   4.543  15.025  0.1462  0.2842  0.0661
 4901TIP3    H238899   3.244   4.457  15.130  1.0057  0.2324 -0.5066
 4902TIP3   OH238900   5.610   1.572  14.757 -0.1189  0.5702  0.0693
 4902TIP3    H138901   5.573   1.651  14.718 -0.2278 -0.3090 -1.7165
 4902TIP3    H238902   5.705   1.585  14.751 -0.1329  0.8127  0.3378
 4903TIP3   OH238903   0.756   1.792  14.566  0.0978 -0.5089  0.1421
 4903TIP3    H138904   0.735   1.776  14.474  1.0554 -0.7845 -0.0340
 4903TIP3    H238905   0.811   1.719  14.591  0.7764  0.1551  0.6155
 4904TIP3   OH238906   0.011   2.754  16.278 -0.0948 -0.2149 -0.1901
 4904TIP3    H138907  -0.054   2.710  16.222 -0.6765  2.5008 -1.8231
 4904TIP3    H238908   0.095   2.721  16.247 -0.4972 -0.0798 -1.4958
 4905TIP3   OH238909   0.107   2.608  15.619 -0.8270 -0.4960 -0.6962
 4905TIP3    H138910   0.108   2.521  15.578  1.8002 -0.2608 -1.2991
 4905TIP3    H238911   0.161   2.662  15.561 -1.8657  1.4073  0.0268
 4906TIP3   OH238912   5.921   3.191  16.537 -0.0201 -0.0135  0.6701
 4906TIP3    H138913   5.875   3.157  16.460 -1.1384 -0.5943  1.5785
 4906TIP3    H238914   5.919   3.287  16.526 -0.8123 -0.0631  0.3410
 4907TIP3   OH238915   5.381   0.745  13.848  0.4711 -0.7062  0.1058
 4907TIP3    H138916   5.379   0.678  13.917 -1.0454 -1.4000 -0.5676
 4907TIP3    H238917   5.422   0.821  13.890 -0.9136 -0.9182  1.9794
 4908TIP3   OH238918   2.424   3.192  16.916  0.1836 -0.1178  0.6446
 4908TIP3    H138919   2.382   3.181  17.001 -2.6495  2.5863 -0.2051
 4908TIP3    H238920   2.360   3.160  16.853  1.0288  0.4782 -0.5735
 4909TIP3   OH238921   4.871   2.576  16.401  0.3872 -0.0659  0.2067
 4909TIP3    H138922   4.791   2.525  16.410  0.1981  0.4288  1.4478
 4909TIP3    H238923   4.941   2.518  16.430  0.5186 -0.5356 -0.9797
 4910TIP3   OH238924   2.168   1.938  14.688 -0.0965 -0.2841 -0.1570
 4910TIP3    H138925   2.113   1.952  14.765  0.2598 -0.1523  0.0807
 4910TIP3    H238926   2.196   1.846  14.694 -1.2075 -0.6863 -0.8947
 4911TIP3   OH238927   5.829   3.549  14.587 -0.0380 -0.4473  0.7523
 4911TIP3    H138928   5.888   3.485  14.549 -0.7279 -0.3794 -0.4987
 4911TIP3    H238929   5.876   3.633  14.579 -1.1142 -0.0073 -2.3669
 4912TIP3   OH238930   5.536   5.383  16.857 -0.0824 -0.5546  0.1121
 4912TIP3    H138931   5.529   5.479  16.859 -1.7356 -0.6606 -0.0063
 4912TIP3    H238932   5.615   5.367  16.805 -0.1748  0.7217 -0.4725
 4913TIP3   OH238933   6.386   3.467  16.475 -0.2436 -0.5312  0.6981
 4913TIP3    H138934   6.481   3.457  16.481 -0.2526 -0.0404  2.3781
 4913TIP3    H238935   6.369   3.552  16.517 -1.4148 -0.5768  0.3483
 4914TIP3   OH238936   5.677   3.109  14.776  0.1207  0.1852  0.2342
 4914TIP3    H138937   5.595   3.141  14.740  0.8443  0.5304 -1.1944
 4914TIP3    H238938   5.702   3.175  14.841 -0.6144  0.1879  0.5192
 4915TIP3   OH238939   3.209   4.277  14.168 -0.5327  0.3031  0.0406
 4915TIP3    H138940   3.126   4.287  14.214 -1.0965 -0.0826 -0.8644
 4915TIP3    H238941   3.224   4.361  14.126  0.2043  0.8020  1.2509
 4916TIP3   OH238942   3.736   5.778  15.911  1.1930  0.3778  0.2438
 4916TIP3    H138943   3.710   5.832  15.836 -1.4437  1.0273  1.5062
 4916TIP3    H238944   3.701   5.824  15.987  0.6154 -2.0476  1.5463
 4917TIP3   OH238945   3.734   5.730  15.063 -0.3169 -0.4625  0.1368
 4917TIP3    H138946   3.695   5.806  15.107 -1.6437 -0.6507 -0.6523
 4917TIP3    H238947   3.827   5.737  15.082 -0.4913  1.0012  0.6272
 4918TIP3   OH238948   5.537   4.921  13.767 -0.3017  0.4157  0.1103
 4918TIP3    H138949   5.508   4.917  13.675  0.6471  1.2757 -0.2421
 4918TIP3    H238950   5.581   5.006  13.775  0.5714 -0.1045  1.0798
 4919TIP3   OH238951   3.977   1.281  14.665 -0.4351  0.3539  0.1179
 4919TIP3    H138952   4.038   1.320  14.728 -1.1114 -0.8731  1.6007
 4919TIP3    H238953   3.904   1.251  14.719 -0.9457 -0.9257 -1.2329
 4920TIP3   OH238954   3.450   5.584  15.476 -0.8814 -0.1372 -0.2775
 4920TIP3    H138955   3.383   5.642  15.510 -0.3332 -0.3152  1.1779
 4920TIP3    H238956   3.458   5.515  15.542  1.4236  0.4243  0.1305
 4921TIP3   OH238957   3.193   1.272  16.239 -0.1096  0.1456 -0.8103
 4921TIP3    H138958   3.100   1.275  16.258 -0.0772 -0.4697 -0.5171
 4921TIP3    H238959   3.209   1.348  16.184 -1.1673 -0.8620 -2.5906
 4922TIP3   OH238960   1.593   1.045  14.484 -0.3806  0.3621 -0.1655
 4922TIP3    H138961   1.569   1.106  14.553  0.6418 -1.0827  1.5556
 4922TIP3    H238962   1.525   0.978  14.485  1.3615 -1.5493  1.9550
 4923TIP3   OH238963   1.645   2.574  15.473 -0.1400 -0.1954 -0.5045
 4923TIP3    H138964   1.682   2.507  15.531  0.0589  0.4503  0.1359
 4923TIP3    H238965   1.653   2.655  15.523 -2.2795  0.0082 -0.3941
 4924TIP3   OH238966   2.650   2.862  16.918 -0.3093  0.0111  0.2212
 4924TIP3    H138967   2.604   2.909  16.988 -0.1114  0.9950 -0.2945
 4924TIP3    H238968   2.648   2.771  16.946 -1.5927  0.1829  0.7549
 4925TIP3   OH238969   0.139   2.984  13.823 -0.0173  0.1028 -0.0678
 4925TIP3    H138970   0.165   2.920  13.757  1.2037 -0.3135  0.7827
 4925TIP3    H238971   0.148   3.069  13.780  0.3324 -0.1888 -0.5684
 4926TIP3   OH238972   4.803   3.815  14.235  0.4675 -0.2120  0.1991
 4926TIP3    H138973   4.874   3.811  14.298 -0.4811  0.1198  1.3180
 4926TIP3    H238974   4.798   3.908  14.211 -1.7701  0.4342  2.7569
 4927TIP3   OH238975   4.099   1.452  13.707  0.0523  0.2080  0.6043
 4927TIP3    H138976   4.059   1.533  13.738 -1.5994 -0.2417 -0.2844
 4927TIP3    H238977   4.144   1.417  13.784 -0.1456  1.3917  1.2862
 4928TIP3   OH238978   3.629   3.356  16.811 -0.0608  0.2170 -0.4247
 4928TIP3    H138979   3.608   3.371  16.904 -0.3447 -0.3263 -0.3993
 4928TIP3    H238980   3.725   3.363  16.807 -0.0032 -0.2612  0.0041
 4929TIP3   OH238981   6.189   0.581  16.589  0.2867 -0.3890 -0.0402
 4929TIP3    H138982   6.102   0.597  16.625 -0.4001  0.2421 -1.8255
 4929TIP3    H238983   6.208   0.659  16.537  1.3812 -1.0471 -0.6728
 4930TIP3   OH238984   5.793   1.917  16.289 -0.1084  0.0532  1.0791
 4930TIP3    H138985   5.858   1.968  16.241  0.2113 -0.4440  0.9797
 4930TIP3    H238986   5.709   1.951  16.259  0.0950  0.1408  0.5972
 4931TIP3   OH238987   0.072   2.307  15.580 -0.0465 -0.0488 -0.2718
 4931TIP3    H138988   0.065   2.326  15.487  1.6345  0.5390 -0.3000
 4931TIP3    H238989  -0.003   2.250  15.598 -1.9646  1.9247 -1.4006
 4932TIP3   OH238990   0.934   1.093  16.858 -0.4276  0.6481  0.3769
 4932TIP3    H138991   0.945   1.073  16.951 -3.8579  0.3478  0.8546
 4932TIP3    H238992   0.947   1.009  16.814 -1.6457  0.1250  0.9543
 4933TIP3   OH238993   4.592   5.916  16.633 -0.6254  0.6491 -0.3225
 4933TIP3    H138994   4.604   5.821  16.626  1.0869  0.7984  0.0073
 4933TIP3    H238995   4.603   5.948  16.544  1.9412  0.7763 -0.0438
 4934TIP3   OH238996   3.220   1.446  15.253  0.1969 -0.0435  0.4318
 4934TIP3    H138997   3.271   1.373  15.288 -0.3541 -0.7410 -0.2001
 4934TIP3    H238998   3.130   1.414  15.250 -0.1829  0.9222  0.8507
 4935TIP3   OH238999   2.384   5.027  16.000 -0.1725  0.0590  0.3556
 4935TIP3    H139000   2.323   5.065  15.936 -0.0392  0.4485  0.4593
 4935TIP3    H239001   2.462   5.005  15.948 -0.3888 -0.4113  0.2277
 4936TIP3   OH239002   3.979   2.495  13.868 -0.0362 -0.0744 -0.2270
 4936TIP3    H139003   3.888   2.500  13.897  0.3953 -1.5950  1.5587
 4936TIP3    H239004   4.030   2.518  13.945  1.1402  1.3141 -1.3528
 4937TIP3   OH239005   1.259   6.534  14.967 -0.4412 -0.0256 -0.5679
 4937TIP3    H139006   1.236   6.467  15.031 -2.1263 -0.8885 -2.0138
 4937TIP3    H239007   1.266   6.487  14.884 -0.2696  1.3734 -1.3759
 4938TIP3   OH239008   1.627   5.454  13.698  0.0313 -0.0666  0.5233
 4938TIP3    H139009   1.560   5.507  13.654 -0.0021 -2.1719 -2.2865
 4938TIP3    H239010   1.671   5.515  13.757 -3.5835  1.6741  1.7367
 4939TIP3   OH239011   5.298   1.728  15.149  0.2892  0.1078 -0.2013
 4939TIP3    H139012   5.336   1.647  15.184 -0.0292 -1.1790 -2.6236
 4939TIP3    H239013   5.296   1.788  15.224 -0.9257 -2.6128  2.1537
 4940TIP3   OH239014   4.042   5.177  17.109 -0.0434  0.0446  0.0745
 4940TIP3    H139015   4.058   5.114  17.039 -0.8392  0.8043 -0.8132
 4940TIP3    H239016   3.948   5.194  17.106 -0.2054 -0.3613  1.7392
 4941TIP3   OH239017   6.695   4.649  13.686 -0.2676  0.7483  0.2547
 4941TIP3    H139018   6.672   4.737  13.657  1.1856  0.5415 -1.7917
 4941TIP3    H239019   6.779   4.659  13.731 -0.0166  0.4334 -0.1247
 4942TIP3   OH239020   3.526   1.166  15.553  0.4282 -0.2525  0.0480
 4942TIP3    H139021   3.475   1.089  15.580 -0.7970 -0.4704 -2.5382
 4942TIP3    H239022   3.500   1.235  15.614 -1.4812 -0.9144  0.0541
 4943TIP3   OH239023   6.323   5.196  14.965  0.4182 -0.0851  0.0771
 4943TIP3    H139024   6.325   5.174  14.872  0.0649  1.2098 -0.2625
 4943TIP3    H239025   6.232   5.219  14.982  0.5757  0.1466  0.6302
 4944TIP3   OH239026   5.302   6.748  13.659 -0.0271  0.5106 -0.0232
 4944TIP3    H139027   5.239   6.802  13.707  1.0401  0.1059  1.9806
 4944TIP3    H239028   5.366   6.723  13.725  0.6235 -1.5346 -1.3306
 4945TIP3   OH239029   3.971   1.214  16.521  0.1558 -0.0484 -0.3012
 4945TIP3    H139030   4.052   1.231  16.569  0.0215 -0.2386 -0.0058
 4945TIP3    H239031   3.964   1.118  16.519 -0.1973 -0.0285 -0.0958
 4946TIP3   OH239032   4.716   0.844  14.691 -0.5327 -0.5141  0.1095
 4946TIP3    H139033   4.769   0.878  14.619 -1.1544  0.1677 -0.0377
 4946TIP3    H239034   4.625   0.858  14.663 -0.8058  1.3119  1.6931
 4947TIP3   OH239035   4.781   0.633  14.946 -0.0643 -0.1903 -0.1902
 4947TIP3    H139036   4.699   0.666  14.908 -0.1928 -1.5330 -1.1626
 4947TIP3    H239037   4.773   0.537  14.939  0.3016 -0.4702  2.4605
 4948TIP3   OH239038   5.782   4.269  13.546  0.1140 -0.2925  0.0550
 4948TIP3    H139039   5.856   4.262  13.485  0.2535 -1.0920  0.3039
 4948TIP3    H239040   5.721   4.329  13.504 -0.0580 -1.2721 -1.1479
 4949TIP3   OH239041   1.744   4.572  16.330 -0.3635  0.7430  0.1302
 4949TIP3    H139042   1.778   4.487  16.357 -0.9242  0.7580  0.9159
 4949TIP3    H239043   1.664   4.551  16.280  0.5425  0.7259 -1.3869
 4950TIP3   OH239044   5.583   2.587  14.081 -0.3029 -0.0038 -0.8468
 4950TIP3    H139045   5.494   2.575  14.047 -0.1530 -0.1498 -1.1916
 4950TIP3    H239046   5.587   2.679  14.106 -0.7924 -0.1647 -0.1173
 4951TIP3   OH239047   2.181   4.298  14.323  0.0669 -0.6481  0.4602
 4951TIP3    H139048   2.204   4.348  14.401 -0.2044 -0.1596  0.2257
 4951TIP3    H239049   2.167   4.209  14.356 -0.9102 -0.2669  1.1213
 4952TIP3   OH239050   2.772   1.032  16.244  0.3613 -0.5160 -0.1429
 4952TIP3    H139051   2.753   1.111  16.194  2.2880  0.5090  0.6428
 4952TIP3    H239052   2.710   1.033  16.316  1.0195  0.8798  0.4365
 4953TIP3   OH239053   5.118   1.618  14.633 -0.0179  0.0553 -0.4094
 4953TIP3    H139054   5.170   1.592  14.710  1.7871  0.3525 -1.4620
 4953TIP3    H239055   5.113   1.539  14.580 -2.6618 -0.6109  0.6743
 4954TIP3   OH239056   4.102   2.006  15.585  0.5648  0.0687  0.1289
 4954TIP3    H139057   4.169   2.015  15.653 -0.0202  0.1137  0.7071
 4954TIP3    H239058   4.135   1.936  15.528  0.5671 -0.6892  1.0445
 4955TIP3   OH239059   2.095   1.935  14.054  0.0040  0.1790 -0.3327
 4955TIP3    H139060   2.051   1.961  13.974  0.3099  0.5704 -0.3752
 4955TIP3    H239061   2.173   1.888  14.025 -0.2310 -0.2678 -0.2570
 4956TIP3   OH239062   6.292   5.895  17.350  0.5074  0.1448 -0.0543
 4956TIP3    H139063   6.302   5.974  17.404  1.6313  1.0407 -1.4948
 4956TIP3    H239064   6.234   5.922  17.279 -0.0788 -0.6979  0.0906
 4957TIP3   OH239065   3.645   1.006  16.102 -0.5939  0.1358 -0.3769
 4957TIP3    H139066   3.602   1.083  16.065 -0.5015  1.0349  1.3155
 4957TIP3    H239067   3.603   0.994  16.187 -0.0509 -1.2248 -0.2826
 4958TIP3   OH239068   5.612   3.818  14.399  0.1165 -0.7304 -0.0034
 4958TIP3    H139069   5.614   3.723  14.404 -2.2888 -0.8308  0.4686
 4958TIP3    H239070   5.580   3.837  14.311  0.4015 -0.3613 -0.0301
 4959TIP3   OH239071   1.503   2.241  13.358  0.3373 -0.3373 -0.3129
 4959TIP3    H139072   1.550   2.290  13.425  0.5893  0.1421 -0.8228
 4959TIP3    H239073   1.540   2.153  13.361 -0.2207 -0.5456  0.7113
 4960TIP3   OH239074   5.048   4.187  13.956  0.3430  0.3521  0.0777
 4960TIP3    H139075   5.100   4.244  14.012  0.7672  1.2977 -1.2274
 4960TIP3    H239076   5.110   4.153  13.892  0.0426 -1.4187  0.6915
 4961TIP3   OH239077   6.000   0.855  16.981  0.1446 -0.4379  0.3276
 4961TIP3    H139078   5.940   0.891  17.046  3.4928  2.3532  2.2138
 4961TIP3    H239079   6.022   0.930  16.925  1.9391 -1.2976 -0.1782
 4962TIP3   OH239080   3.955   4.700  15.489 -0.3777  0.1858  0.1768
 4962TIP3    H139081   3.937   4.619  15.536 -2.2011  0.7770  0.6130
 4962TIP3    H239082   4.008   4.674  15.414  0.7665 -1.0943  1.3813
 4963TIP3   OH239083   2.222   0.426  14.068  0.1885  0.5735 -0.8634
 4963TIP3    H139084   2.248   0.369  13.996  1.2368 -0.7026  0.4698
 4963TIP3    H239085   2.129   0.443  14.052 -0.4413 -2.3463 -0.7938
 4964TIP3   OH239086   3.307   4.105  16.750 -0.1808 -0.1978 -0.2884
 4964TIP3    H139087   3.328   4.025  16.702  0.9427  1.3846 -2.6161
 4964TIP3    H239088   3.281   4.167  16.682  1.3073  2.1232  1.1411
 4965TIP3   OH239089   6.181   6.182  16.692  0.0360 -0.2965  0.0019
 4965TIP3    H139090   6.247   6.154  16.756  0.6936  1.2553  0.0471
 4965TIP3    H239091   6.158   6.271  16.718 -0.5553 -0.0619 -1.2370
 4966TIP3   OH239092   0.267   0.391  16.412 -0.3190 -0.1802 -0.2078
 4966TIP3    H139093   0.275   0.433  16.498  1.4734 -1.1324  0.1346
 4966TIP3    H239094   0.236   0.461  16.354 -2.3670  0.2944  1.3264
 4967TIP3   OH239095   0.827   3.253  15.355  0.1291 -0.4463  0.6009
 4967TIP3    H139096   0.900   3.254  15.294 -0.5507  0.6370 -0.2387
 4967TIP3    H239097   0.855   3.309  15.428 -0.1781  0.6994 -0.1374
 4968TIP3   OH239098   6.289   1.388  16.044  0.5168 -0.4049 -0.5751
 4968TIP3    H139099   6.286   1.469  16.094  0.6051 -0.0273 -1.1690
 4968TIP3    H239100   6.317   1.322  16.107 -0.9271 -0.2542  0.2544
 4969TIP3   OH239101   1.135   3.843  15.560 -0.7373  0.0503 -0.4410
 4969TIP3    H139102   1.084   3.919  15.588 -0.9131 -0.2948  0.1939
 4969TIP3    H239103   1.192   3.824  15.634 -1.1482 -0.8310 -0.3446
 4970TIP3   OH239104   4.762   1.331  13.866  0.0788 -0.6194 -0.3617
 4970TIP3    H139105   4.807   1.322  13.782 -0.1203  2.3288 -0.8897
 4970TIP3    H239106   4.693   1.396  13.850  0.6796  0.8205  2.2444
 4971TIP3   OH239107   3.737   2.563  13.991  0.5421  0.0780  0.1236
 4971TIP3    H139108   3.732   2.638  13.931  1.3746 -0.6361 -0.8695
 4971TIP3    H239109   3.703   2.489  13.941 -0.0523 -0.2774  1.0171
 4972TIP3   OH239110   6.725   0.975  14.769  0.1762  0.3537 -0.1724
 4972TIP3    H139111   6.705   0.884  14.793 -0.0830  0.7608  1.2828
 4972TIP3    H239112   6.771   0.968  14.685 -0.7278 -1.0378 -0.5948
 4973TIP3   OH239113   3.013   4.695  14.195 -0.0445 -0.7600  0.7276
 4973TIP3    H139114   3.101   4.679  14.160 -0.4443 -0.5758 -0.4219
 4973TIP3    H239115   3.017   4.783  14.231 -0.6540  0.8076 -2.6119
 4974TIP3   OH239116   1.293   5.740  15.977  0.3824 -0.0368  0.0950
 4974TIP3    H139117   1.318   5.755  15.886 -0.0400  0.1175  0.0057
 4974TIP3    H239118   1.218   5.681  15.971  0.5585 -0.2894  0.3576
 4975TIP3   OH239119   0.734   0.249  16.384 -0.5357  1.0382 -0.5480
 4975TIP3    H139120   0.674   0.263  16.310 -1.3708  2.3531  0.3421
 4975TIP3    H239121   0.681   0.264  16.462  0.1487 -1.0407  0.3896
 4976TIP3   OH239122   5.413   5.339  16.243 -0.4710 -0.1454  0.5173
 4976TIP3    H139123   5.409   5.255  16.197 -2.1544 -0.7085  1.5893
 4976TIP3    H239124   5.479   5.326  16.311  0.3366 -0.0842 -0.2362
 4977TIP3   OH239125   2.116   3.529  16.755  0.4559  0.8815  0.2623
 4977TIP3    H139126   2.172   3.502  16.828 -1.5513 -0.8206  1.2913
 4977TIP3    H239127   2.157   3.492  16.677  1.0360  0.0798  0.9312
 4978TIP3   OH239128   6.665   0.059  14.748  0.4882  0.2406 -0.5290
 4978TIP3    H139129   6.722   0.018  14.813  0.5481  0.4658 -0.4361
 4978TIP3    H239130   6.577   0.044  14.781  0.5071  0.1332 -0.5270
 4979TIP3   OH239131   3.265   5.864  15.125  0.0836  0.8975 -0.1027
 4979TIP3    H139132   3.344   5.819  15.155  0.2127  0.7187 -0.6932
 4979TIP3    H239133   3.232   5.909  15.203  0.6702  0.8356  0.1890
 4980TIP3   OH239134   1.722   2.143  16.466 -0.0576 -0.1648 -0.2253
 4980TIP3    H139135   1.746   2.100  16.548  0.3932  0.2476 -0.1352
 4980TIP3    H239136   1.803   2.182  16.435 -0.0585 -0.9130 -1.2394
 4981TIP3   OH239137   3.453   3.244  17.151  0.2744  0.1082 -0.0852
 4981TIP3    H139138   3.548   3.255  17.147  0.5034 -1.5453  0.2556
 4981TIP3    H239139   3.440   3.157  17.187 -1.3804  0.1946 -0.3861
 4982TIP3   OH239140   4.743   4.462  15.664  0.3139 -0.7868  0.7390
 4982TIP3    H139141   4.652   4.453  15.693 -0.8069  1.1204 -1.7873
 4982TIP3    H239142   4.790   4.495  15.740 -1.8840  1.5598  1.2108
 4983TIP3   OH239143   3.019   6.003  16.588 -0.7149  0.2115 -0.7272
 4983TIP3    H139144   3.100   6.001  16.538 -0.6289 -0.4183 -0.5765
 4983TIP3    H239145   3.043   5.975  16.676 -0.5661  2.9005  0.1705
 4984TIP3   OH239146   5.821   1.770  15.930  0.4925 -0.4725  0.3487
 4984TIP3    H139147   5.895   1.828  15.948  0.7493 -0.0122 -1.9095
 4984TIP3    H239148   5.860   1.682  15.925  0.6314 -0.4284  0.6538
 4985TIP3   OH239149   2.301   6.575  16.809 -0.4121 -0.0293 -0.5299
 4985TIP3    H139150   2.231   6.559  16.873  0.2269  0.6622  0.3689
 4985TIP3    H239151   2.336   6.488  16.790 -1.0351 -0.3062 -0.4233
 4986TIP3   OH239152   4.815   0.590  15.337 -0.1502  0.3192  0.1043
 4986TIP3    H139153   4.732   0.633  15.319 -0.1567  0.4036  0.3284
 4986TIP3    H239154   4.850   0.567  15.251  0.1026  1.2313 -0.0477
 4987TIP3   OH239155   4.261   5.337  14.203  0.0306  0.3844  0.2104
 4987TIP3    H139156   4.327   5.340  14.134  0.8971  0.2770  1.0126
 4987TIP3    H239157   4.312   5.334  14.284 -0.9387 -0.6402  0.8144
 4988TIP3   OH239158   3.244   4.019  14.156 -0.6073  0.5883 -0.1613
 4988TIP3    H139159   3.203   4.106  14.153  0.9912  1.4466  1.2854
 4988TIP3    H239160   3.174   3.961  14.187 -1.9083  1.1678 -1.8250
 4989TIP3   OH239161   2.357   5.667  15.970 -0.2915 -0.0113  0.0986
 4989TIP3    H139162   2.314   5.752  15.967 -0.8029 -0.2874 -1.0560
 4989TIP3    H239163   2.287   5.605  15.991 -0.0301 -0.2208  0.3659
 4990TIP3   OH239164   5.112   5.478  15.620  0.6763 -0.2028  0.2614
 4990TIP3    H139165   5.093   5.468  15.714 -0.1539 -0.4604  0.0724
 4990TIP3    H239166   5.117   5.388  15.587 -0.5185 -0.1146 -0.2181
 4991TIP3   OH239167   4.247   4.291  15.654  0.2642  0.1600  0.2169
 4991TIP3    H139168   4.293   4.354  15.599  1.8802 -0.0092  1.2910
 4991TIP3    H239169   4.179   4.255  15.598  1.7116  0.1283 -1.6041
 4992TIP3   OH239170   5.662   0.363  16.886  0.1195  0.0026 -0.1298
 4992TIP3    H139171   5.713   0.287  16.858 -1.2641 -0.7274 -0.7723
 4992TIP3    H239172   5.650   0.351  16.980  1.0031  0.1182  0.0036
 4993TIP3   OH239173   4.167   0.961  15.763  0.3577  0.3055 -0.2201
 4993TIP3    H139174   4.111   0.885  15.776 -0.1877  0.9002  1.2147
 4993TIP3    H239175   4.220   0.965  15.842  0.4137  1.3711 -0.2985
 4994TIP3   OH239176   1.821   0.906  16.951 -0.6917  0.3874  0.0561
 4994TIP3    H139177   1.901   0.943  16.989 -0.9922  1.1204 -0.0011
 4994TIP3    H239178   1.847   0.879  16.862 -0.8220  1.9314 -0.4888
 4995TIP3   OH239179   3.211   4.373  16.143  0.2534 -0.3238  0.1857
 4995TIP3    H139180   3.116   4.370  16.159  0.5524 -0.4517  2.1852
 4995TIP3    H239181   3.228   4.465  16.121 -0.4441 -0.4888 -1.1301
 4996TIP3   OH239182   0.102   2.017  16.306 -0.3335 -0.1783  0.2357
 4996TIP3    H139183   0.035   1.958  16.271  0.6174 -0.2819 -1.5109
 4996TIP3    H239184   0.145   2.053  16.229  0.7003  0.9805  1.3061
 4997TIP3   OH239185   5.274   6.390  16.505 -0.1693  0.3500 -0.3189
 4997TIP3    H139186   5.338   6.452  16.469 -1.6662  2.8213  1.0256
 4997TIP3    H239187   5.271   6.410  16.598 -0.4278 -2.1154  0.2796
 4998TIP3   OH239188   0.575   1.806  14.300  0.0672 -0.2189  0.0068
 4998TIP3    H139189   0.541   1.717  14.307 -0.1084 -0.2008 -0.5709
 4998TIP3    H239190   0.508   1.853  14.249  0.7359 -0.0608 -0.7328
 4999TIP3   OH239191   4.553   6.647  14.682  0.0330 -0.4617 -0.2722
 4999TIP3    H139192   4.460   6.645  14.705 -0.0229  0.9054 -0.2879
 4999TIP3    H239193   4.561   6.583  14.611 -0.9578 -0.3701 -0.4869
 5000TIP3   OH239194   2.181   0.151  16.299 -0.3829  0.3966 -0.4693
 5000TIP3    H139195   2.275   0.151  16.280 -0.6272  0.1422 -1.8118
 5000TIP3    H239196   2.154   0.242  16.290 -0.2337  0.5043  0.1336
 5001TIP3   OH239197   0.591   5.376  16.525 -0.0025  0.2683  0.1223
 5001TIP3    H139198   0.527   5.446  16.512 -1.1992 -1.1454 -2.0548
 5001TIP3    H239199   0.670   5.421  16.555 -0.3258  2.7177 -2.3966
 5002TIP3   OH239200   3.500   2.238  17.009 -0.0697  0.3567  0.1615
 5002TIP3    H139201   3.477   2.183  16.933 -0.0303  0.2625  0.2167
 5002TIP3    H239202   3.430   2.302  17.014 -0.5200 -0.1573  0.5547
 5003TIP3   OH239203   5.020   4.136  14.337  0.1338  0.3086  0.5894
 5003TIP3    H139204   4.969   4.111  14.261  0.4255  1.7166 -0.1140
 5003TIP3    H239205   5.003   4.230  14.347  3.2382  1.0905 -0.2790
 5004TIP3   OH239206   1.174   5.407  16.289  0.6264  0.6746 -0.1447
 5004TIP3    H139207   1.229   5.417  16.212 -2.1323  0.5209 -2.2929
 5004TIP3    H239208   1.196   5.320  16.323  3.2436  1.4910  0.5301
 5005TIP3   OH239209   1.710   1.158  14.748  0.2070 -0.1576  0.1123
 5005TIP3    H139210   1.783   1.219  14.734 -0.0282  0.6262  1.9397
 5005TIP3    H239211   1.635   1.200  14.708  0.1091  0.6429  1.0985
 5006TIP3   OH239212   3.325   3.694  14.792 -0.3309 -0.2737  0.5432
 5006TIP3    H139213   3.281   3.779  14.795  1.4517  0.8169 -1.2475
 5006TIP3    H239214   3.295   3.655  14.709 -0.4190 -0.9809  0.9039
 5007TIP3   OH239215   1.981   3.180  15.313  0.2702 -0.6510 -0.3511
 5007TIP3    H139216   1.897   3.139  15.293  0.2884 -1.2283  0.6827
 5007TIP3    H239217   2.027   3.182  15.229  0.1893 -2.6049 -0.4965
 5008TIP3   OH239218   4.163   1.346  16.305 -0.2138 -0.2632  0.3209
 5008TIP3    H139219   4.163   1.288  16.381 -0.1752 -1.4946 -0.6023
 5008TIP3    H239220   4.077   1.333  16.265  0.2358 -0.6009 -0.5673
 5009TIP3   OH239221   2.650   2.644  14.965 -0.4195  0.3653  0.2452
 5009TIP3    H139222   2.667   2.630  14.872 -0.3037  1.4029  0.0997
 5009TIP3    H239223   2.640   2.739  14.974 -0.1944  0.2991  1.3323
 5010TIP3   OH239224   3.920   2.324  16.873  0.2291 -0.3714 -0.3676
 5010TIP3    H139225   3.912   2.413  16.841 -0.9465 -0.2653  0.1849
 5010TIP3    H239226   3.938   2.272  16.795  1.3706  0.3856 -0.6340
 5011TIP3   OH239227   1.606   6.413  14.523  0.2093 -0.0299  0.5832
 5011TIP3    H139228   1.624   6.467  14.599 -1.4118  0.9466  0.3095
 5011TIP3    H239229   1.584   6.327  14.559  0.6159  0.0978  1.1402
 5012TIP3   OH239230   4.870   3.320  15.488  0.1470 -0.0477  0.7236
 5012TIP3    H139231   4.814   3.301  15.413 -0.4686 -1.2161  1.4479
 5012TIP3    H239232   4.951   3.272  15.471  0.3927  0.4877  0.3517
 5013TIP3   OH239233   4.242   3.105  16.345  0.2130 -0.1291 -0.5470
 5013TIP3    H139234   4.178   3.069  16.284  0.1733 -2.1229  0.5891
 5013TIP3    H239235   4.319   3.124  16.292  0.3768 -2.3376 -1.1853
 5014TIP3   OH239236   4.226   0.870  16.830  0.1877  0.0136  0.4112
 5014TIP3    H139237   4.261   0.874  16.919  1.6493  1.6716 -0.1886
 5014TIP3    H239238   4.257   0.950  16.788  0.1222 -1.0442 -1.7984
 5015TIP3   OH239239   3.907   4.449  16.736 -0.0798  0.1687  0.2894
 5015TIP3    H139240   3.998   4.469  16.756 -0.1433 -0.7037  1.5858
 5015TIP3    H239241   3.858   4.524  16.770  0.2573  1.6641 -2.2923
 5016TIP3   OH239242   0.356   2.465  13.851  0.4793 -0.1412 -0.1068
 5016TIP3    H139243   0.441   2.422  13.848  0.7152 -0.0301  2.6355
 5016TIP3    H239244   0.376   2.559  13.855  0.3189 -0.1351  1.1863
 5017TIP3   OH239245   1.269   3.059  14.667  0.1974  0.5990  0.2430
 5017TIP3    H139246   1.363   3.074  14.663  0.3230 -0.0920  0.4409
 5017TIP3    H239247   1.232   3.142  14.697  0.5919  1.3618 -1.2564
 5018TIP3   OH239248   2.893   2.624  16.443  0.4344  0.3715 -0.2250
 5018TIP3    H139249   2.883   2.715  16.472 -0.0156  0.4626 -0.6452
 5018TIP3    H239250   2.870   2.571  16.520  1.2205  0.6142  0.1796
 5019TIP3   OH239251   4.426   3.768  15.412 -0.1491 -0.3685  0.2867
 5019TIP3    H139252   4.411   3.815  15.494  1.0523  1.5422 -0.5421
 5019TIP3    H239253   4.456   3.835  15.350  0.7635 -2.0743 -1.2096
 5020TIP3   OH239254   1.351   5.601  17.272  0.4939 -0.5136 -0.2815
 5020TIP3    H139255   1.292   5.549  17.218  1.0105  0.1047 -1.4943
 5020TIP3    H239256   1.376   5.544  17.344 -1.1101 -0.9792 -0.0640
 5021TIP3   OH239257   2.467   1.166  13.889  0.4921  0.0720  0.0929
 5021TIP3    H139258   2.516   1.202  13.815  2.0201 -0.7292  0.6637
 5021TIP3    H239259   2.501   1.212  13.965  0.3671 -0.5017  0.5046
 5022TIP3   OH239260   2.234   6.382  17.191 -0.0076 -0.4502 -0.1960
 5022TIP3    H139261   2.175   6.433  17.136  0.6623 -0.4783 -0.9492
 5022TIP3    H239262   2.318   6.427  17.186 -0.2539  0.3572  1.9318
 5023TIP3   OH239263   3.010   1.449  15.005  0.0629 -0.4282  0.1778
 5023TIP3    H139264   2.957   1.460  14.926  1.6147  0.9470 -0.7679
 5023TIP3    H239265   3.044   1.537  15.022  3.1054 -1.4158 -0.1236
 5024TIP3   OH239266   3.878   2.159  15.502 -0.4911 -0.1891  0.2342
 5024TIP3    H139267   3.951   2.101  15.524 -0.2613 -0.3808 -0.9879
 5024TIP3    H239268   3.810   2.136  15.566  1.4542  2.0782  3.4315
 5025TIP3   OH239269   0.730   0.453  14.873 -0.3088 -0.2995  0.2970
 5025TIP3    H139270   0.798   0.463  14.940  0.7929 -1.4491 -0.6209
 5025TIP3    H239271   0.667   0.523  14.893  0.6780  0.2313  1.7000
 5026TIP3   OH239272   2.342   0.000  15.433  0.1485  0.1783  0.2820
 5026TIP3    H139273   2.295   0.081  15.456 -1.6315 -0.6945 -0.0498
 5026TIP3    H239274   2.344  -0.050  15.514  0.5138  0.2028  0.2897
 5027TIP3   OH239275   4.863   1.685  15.091 -0.2438 -0.1479  0.0610
 5027TIP3    H139276   4.779   1.731  15.095 -0.7753 -1.0142 -0.7580
 5027TIP3    H239277   4.861   1.624  15.164  0.3038  0.8160  0.9185
 5028TIP3   OH239278   3.659   1.372  14.176  0.0531  0.0068 -0.6559
 5028TIP3    H139279   3.677   1.421  14.096 -2.4353  0.9551 -0.7320
 5028TIP3    H239280   3.658   1.438  14.245 -1.6645 -0.1423 -0.4923
 5029TIP3   OH239281   3.320   4.229  14.405 -0.7968  0.0915  0.2617
 5029TIP3    H139282   3.281   4.256  14.322 -2.1214 -1.3499  0.3589
 5029TIP3    H239283   3.410   4.261  14.401 -0.7898 -0.0538 -1.8003
 5030TIP3   OH239284   4.890   3.321  17.249  0.7923 -0.2286  0.3134
 5030TIP3    H139285   4.903   3.366  17.165 -1.3563  0.5989  0.3689
 5030TIP3    H239286   4.930   3.380  17.313  2.0302 -0.6380 -0.0633
 5031TIP3   OH239287   4.454   0.847  15.661 -0.2076  0.1182  0.1944
 5031TIP3    H139288   4.423   0.771  15.611  0.2383  0.9093 -1.3642
 5031TIP3    H239289   4.376   0.902  15.671 -0.6084 -0.6811  1.6312
 5032TIP3   OH239290   4.018   6.736  15.427  0.8217 -0.2758 -0.2854
 5032TIP3    H139291   4.074   6.750  15.351 -0.5983  0.7918 -1.1864
 5032TIP3    H239292   3.986   6.646  15.417  0.6039 -0.1285 -1.0041
 5033TIP3   OH239293   3.012   3.899  14.281 -0.1898  0.5841 -0.0391
 5033TIP3    H139294   2.975   3.977  14.321  0.1324 -0.0309  1.5576
 5033TIP3    H239295   2.947   3.872  14.216 -1.6106  0.6757  1.2745
 5034TIP3   OH239296   1.444   2.491  15.284  0.2695 -0.3554 -0.3019
 5034TIP3    H139297   1.500   2.514  15.358 -0.2269  0.4620 -0.1604
 5034TIP3    H239298   1.415   2.402  15.303  0.5412 -0.3356  0.2388
 5035TIP3   OH239299   5.171   2.586  12.932 -0.1530 -0.1328 -0.4438
 5035TIP3    H139300   5.214   2.636  13.001 -1.7522  0.7879 -0.0779
 5035TIP3    H239301   5.243   2.544  12.885  1.3579  2.9320 -1.1412
 5036TIP3   OH239302   3.996   1.387  14.060 -0.3510  0.3462 -0.0925
 5036TIP3    H139303   3.927   1.418  14.001 -1.1643 -0.0368  0.6408
 5036TIP3    H239304   3.969   1.417  14.146  0.6989  0.6751  0.1392
 5037TIP3   OH239305   1.075   6.556  15.372  0.0894 -0.2931  0.3130
 5037TIP3    H139306   1.149   6.495  15.367  1.5518  1.3936  0.6399
 5037TIP3    H239307   1.041   6.545  15.461  0.2977 -0.6553  0.3529
 5038TIP3   OH239308   0.363   5.117  17.279 -0.1627  0.0875 -0.3024
 5038TIP3    H139309   0.426   5.114  17.207 -1.6896  0.8433 -1.7389
 5038TIP3    H239310   0.415   5.099  17.357  1.8742  0.9480 -1.3884
 5039TIP3   OH239311   5.185   1.856  13.368  0.1874 -0.1393 -0.1411
 5039TIP3    H139312   5.271   1.888  13.396 -0.0513  0.9260 -0.5871
 5039TIP3    H239313   5.162   1.790  13.433 -0.0219  1.7463  1.8308
 5040TIP3   OH239314   5.625   4.422  15.648  0.2566 -0.4737 -0.0239
 5040TIP3    H139315   5.591   4.352  15.593  0.6412 -1.1122  0.5390
 5040TIP3    H239316   5.624   4.499  15.592  0.9582 -1.1816 -1.0423
 5041TIP3   OH239317   6.615   4.387  16.228  0.0733 -0.1254 -0.0517
 5041TIP3    H139318   6.632   4.454  16.162 -4.2983  1.3199  0.0126
 5041TIP3    H239319   6.623   4.433  16.311 -1.9613  0.1367  0.0322
 5042TIP3   OH239320   4.335   0.220  15.953  0.2150 -0.2108  0.4359
 5042TIP3    H139321   4.311   0.158  16.022  1.7811 -1.3886 -0.0327
 5042TIP3    H239322   4.413   0.264  15.987  1.4427 -1.3172 -0.8165
 5043TIP3   OH239323   4.931   0.279  16.848 -0.3208 -0.2243  0.4177
 5043TIP3    H139324   4.840   0.301  16.867 -1.0527 -3.7102  1.6661
 5043TIP3    H239325   4.926   0.203  16.791  1.9048  0.6704 -1.1169
 5044TIP3   OH239326   5.001   3.548  14.722 -0.1627  0.2826  0.3767
 5044TIP3    H139327   5.059   3.619  14.696  0.3598 -0.2567  0.0362
 5044TIP3    H239328   4.915   3.573  14.688 -0.1134  1.0474  0.8106
 5045TIP3   OH239329   4.341   4.565  15.111  0.3426  0.3348 -0.8602
 5045TIP3    H139330   4.315   4.477  15.138 -1.1396  0.0740 -2.8536
 5045TIP3    H239331   4.425   4.579  15.153 -0.3138 -1.2147  1.1511
 5046TIP3   OH239332   0.983   2.041  16.989 -0.0698  0.0278  0.4422
 5046TIP3    H139333   1.042   2.104  17.031  0.4489  0.2016 -0.5315
 5046TIP3    H239334   1.041   1.986  16.937 -0.8338  0.7631 -1.2426
 5047TIP3   OH239335   2.650   0.991  16.790 -0.2583 -0.0616  0.3193
 5047TIP3    H139336   2.559   1.011  16.811 -0.0547  1.6075 -0.2594
 5047TIP3    H239337   2.700   1.066  16.823  0.4356  1.1528 -3.0658
 5048TIP3   OH239338   0.043   2.470  15.157 -0.1680  0.4121 -0.3371
 5048TIP3    H139339   0.008   2.559  15.169 -1.4639 -0.1053 -0.1799
 5048TIP3    H239340   0.103   2.479  15.083 -2.6779  0.8231 -2.4772
 5049TIP3   OH239341   4.645   1.715  15.884  0.0337  0.1246 -0.0919
 5049TIP3    H139342   4.611   1.666  15.958 -3.5313  1.2451 -0.7773
 5049TIP3    H239343   4.591   1.794  15.881  2.3435  1.7748 -1.8745
 5050TIP3   OH239344   0.460   1.983  15.997 -0.4127 -0.3944 -0.0195
 5050TIP3    H139345   0.446   2.031  16.079 -0.0730 -1.0429  0.4365
 5050TIP3    H239346   0.381   1.999  15.946  0.0197  1.2504 -0.2036
 5051TIP3   OH239347   4.190   4.538  16.107 -0.0088 -0.1303 -0.0723
 5051TIP3    H139348   4.160   4.467  16.050 -0.1703  0.0170 -0.1718
 5051TIP3    H239349   4.115   4.559  16.162 -0.1964  0.4428 -0.5269
 5052TIP3   OH239350   0.885   4.241  15.535 -0.2326 -0.3673 -0.2615
 5052TIP3    H139351   0.937   4.173  15.579  0.1019 -0.6053 -1.0044
 5052TIP3    H239352   0.930   4.323  15.557 -0.4951 -0.4090  0.4370
 5053TIP3   OH239353   0.140   4.497  14.262 -1.0643  0.3452 -0.1779
 5053TIP3    H139354   0.215   4.493  14.323 -2.2630 -2.5956  1.3323
 5053TIP3    H239355   0.064   4.507  14.319 -2.0927 -0.5560 -1.3465
 5054TIP3   OH239356   4.440   2.972  14.073 -0.1184 -0.3227  0.5176
 5054TIP3    H139357   4.358   2.936  14.040 -1.0617  1.2306  1.0494
 5054TIP3    H239358   4.484   3.005  13.994 -0.4096 -0.3831  0.3247
 5055TIP3   OH239359   5.223   1.428  14.387  0.2176 -0.1918  0.5061
 5055TIP3    H139360   5.307   1.473  14.373 -0.4493  0.3062 -2.7347
 5055TIP3    H239361   5.157   1.497  14.379 -0.5928 -0.9256  0.7372
 5056TIP3   OH239362   3.164   2.046  16.148 -0.0767 -0.0669 -0.0664
 5056TIP3    H139363   3.192   2.034  16.058  0.9534 -2.3415  0.4832
 5056TIP3    H239364   3.090   1.985  16.158  0.6180 -0.7757  0.9306
 5057TIP3   OH239365   3.536   1.207  15.945  0.0851 -0.2789 -0.4915
 5057TIP3    H139366   3.587   1.288  15.945  1.3477 -1.0352  0.3394
 5057TIP3    H239367   3.445   1.236  15.948  0.5329  1.1284  0.9833
 5058TIP3   OH239368   1.844   0.187  14.378  0.5852  0.1405 -0.1905
 5058TIP3    H139369   1.791   0.215  14.453  1.7683  0.9478  0.3827
 5058TIP3    H239370   1.869   0.269  14.334  0.9431 -0.2479 -0.7300
 5059TIP3   OH239371   5.205   2.095  15.093 -0.4119 -0.0001  0.7983
 5059TIP3    H139372   5.229   2.176  15.048 -1.0826  0.4308  1.2100
 5059TIP3    H239373   5.284   2.041  15.088 -0.2889  0.2634 -0.3789
 5060TIP3   OH239374   1.263   1.560  14.462 -0.2417 -0.0590  0.3508
 5060TIP3    H139375   1.178   1.519  14.446 -0.1570 -0.6604  1.3531
 5060TIP3    H239376   1.260   1.642  14.413 -0.1885 -1.4791 -2.1601
 5061TIP3   OH239377   1.696   5.159  15.360 -0.0774  0.2690 -0.8872
 5061TIP3    H139378   1.705   5.175  15.266 -1.2390 -1.8938 -1.4535
 5061TIP3    H239379   1.761   5.092  15.379 -0.1538  0.3758 -0.2374
 5062TIP3   OH239380   0.866   3.829  15.843  0.4172 -0.0048  0.2879
 5062TIP3    H139381   0.913   3.820  15.925 -0.0132 -1.7507  0.3772
 5062TIP3    H239382   0.911   3.770  15.782 -1.5040 -1.6191  0.3446
 5063TIP3   OH239383   4.867   3.412  16.981  0.6486  0.5601  0.2615
 5063TIP3    H139384   4.867   3.508  16.980  0.8085  0.6004 -2.7593
 5063TIP3    H239385   4.948   3.387  16.937  0.9650 -1.0306  1.6191
 5064TIP3   OH239386   3.360   3.041  14.815 -0.3474 -0.3274 -0.0640
 5064TIP3    H139387   3.381   2.997  14.732 -1.2801  0.0136 -0.4885
 5064TIP3    H239388   3.444   3.078  14.844 -0.4482  1.8756 -2.2331
 5065TIP3   OH239389   5.926   2.879  15.469 -0.5032  0.1879  0.4438
 5065TIP3    H139390   5.897   2.897  15.559 -0.6801 -1.3018  0.7142
 5065TIP3    H239391   5.923   2.964  15.426 -1.5830  0.7443  1.5243
 5066TIP3   OH239392   0.204   4.230  15.929  0.3055 -0.0697 -0.4522
 5066TIP3    H139393   0.212   4.262  15.839 -0.0527  2.2344  0.2597
 5066TIP3    H239394   0.293   4.203  15.953  0.4496 -0.4791 -1.3985
 5067TIP3   OH239395   0.555   5.783  14.773  0.3084  0.2382 -0.2990
 5067TIP3    H139396   0.643   5.747  14.782  0.7304  1.6108  1.6007
 5067TIP3    H239397   0.499   5.721  14.820  0.4020 -0.1255 -0.6662
 5068TIP3   OH239398   4.431   3.949  16.031 -0.8293  0.0342  0.5108
 5068TIP3    H139399   4.397   3.895  16.103  0.1063  0.9729  1.6961
 5068TIP3    H239400   4.465   3.885  15.968 -1.3504 -0.8010  1.0435
 5069TIP3   OH239401   3.549   0.855  14.913 -0.1111  0.6222  0.3686
 5069TIP3    H139402   3.569   0.905  14.833  0.6420  0.1498  0.2551
 5069TIP3    H239403   3.627   0.803  14.929 -0.9067 -0.5912  0.4433
 5070TIP3   OH239404   6.018   5.098  15.118  0.5352  0.0475 -0.3420
 5070TIP3    H139405   6.010   5.193  15.114  1.3257  0.0725 -1.6811
 5070TIP3    H239406   6.006   5.077  15.211 -0.6400  1.3417 -0.1729
 5071TIP3   OH239407   1.668   6.731  13.562  0.4109 -0.2919  0.5099
 5071TIP3    H139408   1.601   6.680  13.607 -0.7450  0.4327 -0.3278
 5071TIP3    H239409   1.678   6.688  13.477  0.7240 -0.1603  0.4784
 5072TIP3   OH239410   3.475   4.329  15.094 -0.0565  0.1576  0.1260
 5072TIP3    H139411   3.385   4.299  15.100 -0.1654  0.7479  1.9636
 5072TIP3    H239412   3.523   4.272  15.154  1.0524 -0.9590 -1.7381
 5073TIP3   OH239413   3.090   5.845  13.774  0.3677  0.3318  0.0581
 5073TIP3    H139414   3.002   5.845  13.737 -0.3116 -0.6616  1.5807
 5073TIP3    H239415   3.106   5.936  13.800 -0.7722  0.2806  1.0073
 5074TIP3   OH239416   1.783   2.107  14.643 -0.1460 -0.1003 -0.2206
 5074TIP3    H139417   1.825   2.023  14.661 -0.5245 -0.4956 -1.1317
 5074TIP3    H239418   1.803   2.124  14.550  1.3505  1.6262  0.3554
 5075TIP3   OH239419   1.112   4.264  14.593  0.1091  0.0843  0.2462
 5075TIP3    H139420   1.147   4.300  14.512 -0.8186 -2.1954 -1.2791
 5075TIP3    H239421   1.026   4.304  14.602  0.0833  0.1033 -0.0722
 5076TIP3   OH239422   1.628   1.236  16.363 -0.1974  0.3782  0.2094
 5076TIP3    H139423   1.668   1.170  16.307 -0.0712 -0.2699  1.0528
 5076TIP3    H239424   1.534   1.221  16.355 -0.2301  0.9284 -0.5888
 5077TIP3   OH239425   2.216   6.599  16.285 -0.1460  0.2934  0.5646
 5077TIP3    H139426   2.259   6.629  16.365  0.2294  0.8396  0.1631
 5077TIP3    H239427   2.264   6.641  16.214  0.2453 -1.0898 -0.0117
 5078TIP3   OH239428   4.656   5.941  15.018  0.0960  0.0651  0.4647
 5078TIP3    H139429   4.578   5.888  15.001 -1.5623  2.2846  0.5263
 5078TIP3    H239430   4.707   5.889  15.080 -1.6153 -1.2636  0.8558
 5079TIP3   OH239431   0.493   0.341  16.247 -0.0924  0.1833 -0.0652
 5079TIP3    H139432   0.409   0.346  16.294 -0.8790 -0.9139 -1.2892
 5079TIP3    H239433   0.479   0.274  16.180  1.1218  1.4037 -1.6150
 5080TIP3   OH239434   3.966   6.278  14.268 -0.1179  0.2469 -0.0101
 5080TIP3    H139435   3.982   6.193  14.227 -0.7178 -0.5658  1.3638
 5080TIP3    H239436   3.939   6.335  14.196  0.3805 -0.6992 -0.9620
 5081TIP3   OH239437   3.677   4.632  16.829  0.2599 -0.3365 -0.6857
 5081TIP3    H139438   3.596   4.582  16.826 -0.3171  0.4986  0.0356
 5081TIP3    H239439   3.675   4.674  16.915 -0.4204  2.6826 -2.0237
 5082TIP3   OH239440   5.783   2.860  16.709 -0.0813 -0.0328 -0.0886
 5082TIP3    H139441   5.827   2.940  16.740 -0.8012  0.2221  0.2879
 5082TIP3    H239442   5.751   2.818  16.788  0.7494 -0.9851 -0.2388
 5083TIP3   OH239443   6.128   0.018  15.386 -0.6198  0.5127  0.1296
 5083TIP3    H139444   6.179   0.083  15.436 -2.3288  2.2893 -0.3262
 5083TIP3    H239445   6.170   0.016  15.300  0.6786 -0.5539  0.7445
 5084TIP3   OH239446   2.986   4.175  15.511 -0.1319 -0.8603 -0.4166
 5084TIP3    H139447   2.947   4.088  15.514  1.1885 -1.4887 -0.3623
 5084TIP3    H239448   3.061   4.170  15.571 -0.0190  0.3080 -0.4303
 5085TIP3   OH239449   0.854   0.934  13.939 -0.1744 -0.3419 -0.5019
 5085TIP3    H139450   0.895   1.007  13.893  0.3190  1.2615  2.2351
 5085TIP3    H239451   0.796   0.894  13.875  1.4917  0.8095 -2.8665
 5086TIP3   OH239452   1.720   1.169  16.767  0.0546  0.0408  0.4514
 5086TIP3    H139453   1.726   1.108  16.694 -0.1363  1.0152 -0.4000
 5086TIP3    H239454   1.655   1.130  16.826 -0.2524 -0.4504 -0.2003
 5087TIP3   OH239455   1.858   6.272  16.465 -0.9510 -1.2292  0.0502
 5087TIP3    H139456   1.912   6.337  16.420 -3.1285  0.7661  0.0727
 5087TIP3    H239457   1.917   6.199  16.484  1.7796  0.8995  0.3686
 5088TIP3   OH239458   1.356   5.937  16.700  0.0282 -0.2994  0.4520
 5088TIP3    H139459   1.449   5.958  16.713  0.4045 -0.4634 -1.6498
 5088TIP3    H239460   1.342   5.858  16.752  0.3474  1.1537  2.9011
 5089TIP3   OH239461   4.339   2.399  16.701 -0.2002 -0.2305 -0.4295
 5089TIP3    H139462   4.257   2.355  16.724  0.5433 -1.4195  0.0783
 5089TIP3    H239463   4.349   2.467  16.768 -1.6166  1.1031 -1.5149
 5090TIP3   OH239464   2.188   6.543  15.725 -0.4695 -0.2783  0.4905
 5090TIP3    H139465   2.131   6.494  15.666  0.1263 -0.8285  0.3643
 5090TIP3    H239466   2.276   6.534  15.688 -0.2098  0.0890  0.9912
 5091TIP3   OH239467   0.465   3.380  15.465  0.1608 -0.0644 -0.5643
 5091TIP3    H139468   0.496   3.468  15.445  0.1213  0.4264  1.3224
 5091TIP3    H239469   0.461   3.377  15.561 -0.6763 -1.8286 -0.6074
 5092TIP3   OH239470   0.133   3.618  13.845 -0.0124 -0.1626  0.9441
 5092TIP3    H139471   0.099   3.654  13.927 -0.2576 -0.0732  0.8042
 5092TIP3    H239472   0.060   3.624  13.784  0.1306 -0.3452  0.7525
 5093TIP3   OH239473   2.404   2.483  15.087  0.0293 -0.7565 -0.1067
 5093TIP3    H139474   2.480   2.462  15.032  0.1483  1.4914 -0.8992
 5093TIP3    H239475   2.439   2.543  15.154 -0.9423 -0.0092 -0.2410
 5094TIP3   OH239476   1.464   0.919  14.895  0.4655 -0.5620 -0.0559
 5094TIP3    H139477   1.524   0.924  14.821 -1.6638 -0.6610 -1.8852
 5094TIP3    H239478   1.457   0.825  14.913  2.0810 -0.4680  1.2887
 5095TIP3   OH239479   0.544   3.560  16.926  0.4039  0.8593  0.1685
 5095TIP3    H139480   0.625   3.520  16.893  2.1248  2.8029  1.7443
 5095TIP3    H239481   0.556   3.654  16.910 -1.5932  1.1931  0.4070
 5096TIP3   OH239482   5.811   1.821  15.269  0.1641 -0.1220  0.9894
 5096TIP3    H139483   5.902   1.846  15.286  0.5865  0.3989 -1.6270
 5096TIP3    H239484   5.801   1.738  15.315  2.0078 -0.2797  1.2158
 5097TIP3   OH239485   3.855   1.427  14.469 -0.4156 -0.5090  0.0394
 5097TIP3    H139486   3.913   1.372  14.523  1.4930  1.0234 -0.3622
 5097TIP3    H239487   3.812   1.484  14.532  1.5773  1.0662  0.0692
 5098TIP3   OH239488   0.996   2.669  14.632  0.4574  0.9469  0.3907
 5098TIP3    H139489   0.984   2.604  14.563 -0.7234 -0.5409  1.9230
 5098TIP3    H239490   1.057   2.630  14.693 -0.0395  1.3823  1.1929
 5099TIP3   OH239491   5.098   0.828  15.414 -0.4752 -0.0249 -0.3254
 5099TIP3    H139492   5.103   0.923  15.399  0.5109  0.3554  2.0210
 5099TIP3    H239493   5.044   0.819  15.492  1.0976 -1.2090  0.6838
 5100TIP3   OH239494   0.380   1.712  16.883 -0.3906  0.0891 -0.3396
 5100TIP3    H139495   0.424   1.789  16.919 -0.4900 -0.6532  1.4951
 5100TIP3    H239496   0.320   1.747  16.817 -0.5136  1.6165  0.5424
 5101TIP3   OH239497   1.138   3.242  15.736  0.3979  0.3845 -0.1622
 5101TIP3    H139498   1.118   3.311  15.673  1.4037 -1.0179 -2.1534
 5101TIP3    H239499   1.058   3.232  15.788 -0.6853  1.2363 -1.5868
 5102TIP3   OH239500   4.396   6.215  13.603 -0.0886 -0.3922  0.4872
 5102TIP3    H139501   4.366   6.288  13.549 -1.3049 -0.0048  1.6313
 5102TIP3    H239502   4.352   6.138  13.567  0.5496 -0.4408 -0.2046
 5103TIP3   OH239503   6.201   1.139  13.902 -0.2033  0.2168 -0.2876
 5103TIP3    H139504   6.184   1.155  13.809 -2.0928 -0.7025 -0.1646
 5103TIP3    H239505   6.248   1.056  13.904  0.6770  0.7054 -0.4556
 5104TIP3   OH239506   3.994   4.184  16.634 -0.1075  0.2436 -0.1028
 5104TIP3    H139507   3.947   4.263  16.661 -1.9600 -0.9238  0.2434
 5104TIP3    H239508   3.961   4.165  16.547 -0.1909 -0.5444  0.0959
 5105TIP3   OH239509   1.387   3.817  14.442 -0.7715  0.4687  0.4945
 5105TIP3    H139510   1.370   3.894  14.495  0.5926 -0.2648  2.0873
 5105TIP3    H239511   1.303   3.770  14.440 -1.3852  1.5421  0.2117
 5106TIP3   OH239512   4.876   0.101  15.292 -0.0772  0.5575  0.0041
 5106TIP3    H139513   4.955   0.146  15.322 -0.2816  0.5375  0.5895
 5106TIP3    H239514   4.886   0.097  15.197  0.1721  1.4110 -0.0195
 5107TIP3   OH239515   3.818   3.499  16.070 -0.5909  0.9464 -0.2487
 5107TIP3    H139516   3.866   3.447  16.134 -1.6061  2.2029  1.6160
 5107TIP3    H239517   3.876   3.571  16.049 -1.2411  1.9882  1.3433
 5108TIP3   OH239518   3.328   0.527  14.428  0.4321 -1.0996 -0.3073
 5108TIP3    H139519   3.315   0.584  14.352 -0.5890  0.2018  0.7853
 5108TIP3    H239520   3.401   0.471  14.403 -0.3143 -1.2163 -2.5196
 5109TIP3   OH239521   6.029   2.316  16.035  0.4200 -0.0192  0.1843
 5109TIP3    H139522   6.016   2.364  16.117 -0.8337  0.7622 -0.4461
 5109TIP3    H239523   6.052   2.383  15.971  0.2913 -0.4728 -0.3496
 5110TIP3   OH239524   1.475   1.233  15.008  0.2736 -0.6103 -0.2663
 5110TIP3    H139525   1.404   1.220  14.945 -0.1901  0.7696 -0.0725
 5110TIP3    H239526   1.448   1.310  15.059  1.9224 -0.0192 -0.2138
 5111TIP3   OH239527   1.377   5.393  14.755 -0.1480  0.2826 -0.1327
 5111TIP3    H139528   1.317   5.467  14.744 -0.4118 -0.2748 -3.1959
 5111TIP3    H239529   1.449   5.411  14.695  0.4912 -1.2832  0.1242
 5112TIP3   OH239530   0.643   1.741  15.541 -0.7984  0.6760 -0.1128
 5112TIP3    H139531   0.733   1.759  15.514 -0.4595 -0.0303  0.4941
 5112TIP3    H239532   0.637   1.779  15.629 -1.1927  0.9929 -0.2748
 5113TIP3   OH239533   5.406   2.842  15.471  0.2417  0.0873 -0.1148
 5113TIP3    H139534   5.312   2.850  15.487  0.2878 -0.3338  0.3750
 5113TIP3    H239535   5.436   2.932  15.459 -0.1514  0.2511  0.1228
 5114TIP3   OH239536   3.623   2.668  14.570  0.0238  0.4707 -0.0311
 5114TIP3    H139537   3.597   2.654  14.661 -2.1040 -0.9713 -0.7867
 5114TIP3    H239538   3.689   2.600  14.554  0.1107  0.4661  0.3291
 5115TIP3   OH239539   1.209   3.475  15.040 -0.0594 -0.1817  0.2727
 5115TIP3    H139540   1.225   3.564  15.073 -0.6023 -0.7950  2.3395
 5115TIP3    H239541   1.289   3.427  15.062 -0.3555 -0.5556  0.5519
 5116TIP3   OH239542   3.047   1.952  13.924 -0.4694  0.1214 -0.7895
 5116TIP3    H139543   3.009   2.031  13.963  0.3881 -0.9345  2.5242
 5116TIP3    H239544   2.972   1.897  13.902 -1.0041  0.6860 -0.3994
 5117TIP3   OH239545   4.145   1.889  16.650  0.4245 -0.3084  0.3980
 5117TIP3    H139546   4.079   1.831  16.612  1.6795 -1.3495 -0.2558
 5117TIP3    H239547   4.140   1.872  16.744 -0.4611 -0.1145  0.3980
 5118TIP3   OH239548   0.161   3.262  14.099 -1.0435 -0.5171 -0.0074
 5118TIP3    H139549   0.246   3.301  14.081 -0.4728 -0.8472  1.7785
 5118TIP3    H239550   0.100   3.313  14.045  0.1811  0.1807 -0.7932
 5119TIP3   OH239551   0.433   0.889  14.775  1.1909  0.3242  0.1342
 5119TIP3    H139552   0.519   0.897  14.816  0.7587  0.9126  0.9730
 5119TIP3    H239553   0.397   0.978  14.778  0.6884  0.1492 -0.5133
 5120TIP3   OH239554   4.839   4.105  14.101  0.2112 -0.1468  0.1544
 5120TIP3    H139555   4.925   4.118  14.060  0.4437 -1.4181  0.2001
 5120TIP3    H239556   4.788   4.182  14.074  1.1865  0.3531 -0.3286
 5121TIP3   OH239557   5.323   2.579  13.958  0.1375 -0.0342 -0.0151
 5121TIP3    H139558   5.245   2.545  14.002 -0.3146  0.6285 -0.2719
 5121TIP3    H239559   5.305   2.566  13.865 -0.2573  1.2961 -0.1439
 5122TIP3   OH239560   0.838   1.649  16.954  0.8138 -0.1362  0.7915
 5122TIP3    H139561   0.779   1.638  16.879  1.8723 -1.3936  0.1050
 5122TIP3    H239562   0.781   1.646  17.031 -0.1700  0.1385  0.0896
 5123TIP3   OH239563   4.731   2.095  15.821  0.0806  0.4581 -0.7476
 5123TIP3    H139564   4.817   2.112  15.783  1.8654 -2.4778  1.5043
 5123TIP3    H239565   4.686   2.041  15.757  0.4063  0.9590 -1.4067
 5124TIP3   OH239566   0.507   3.400  16.061  0.1298  0.0666 -0.1805
 5124TIP3    H139567   0.417   3.401  16.030 -0.2956 -0.4383  0.9934
 5124TIP3    H239568   0.544   3.482  16.029 -1.1025  0.8453  0.3308
 5125TIP3   OH239569   5.716   1.736  14.506 -0.0994  0.0282  0.5728
 5125TIP3    H139570   5.746   1.725  14.596 -0.6717 -1.3824  0.6178
 5125TIP3    H239571   5.781   1.692  14.452  0.3853  1.0985  0.2465
 5126TIP3   OH239572   1.009   1.722  14.179 -0.1199  0.1385  0.0286
 5126TIP3    H139573   0.940   1.788  14.172  0.5311  0.9302  0.7402
 5126TIP3    H239574   0.980   1.664  14.249  0.0793  0.6633  0.5533
 5127TIP3   OH239575   4.638   3.344  14.016  0.7549  0.0453 -0.0857
 5127TIP3    H139576   4.547   3.336  14.044  0.9134 -2.1362 -0.0161
 5127TIP3    H239577   4.641   3.426  13.966 -1.3580 -0.1032 -0.5367
 5128TIP3   OH239578   0.193   2.017  14.337  0.5218 -0.1962 -0.3655
 5128TIP3    H139579   0.202   1.922  14.353 -0.8391 -0.1796  0.6872
 5128TIP3    H239580   0.106   2.038  14.370 -0.5589  0.8463 -3.5484
 5129TIP3   OH239581   1.647   6.100  14.584 -0.5699 -0.0883  0.6745
 5129TIP3    H139582   1.727   6.087  14.634  0.3780  0.4729 -0.6175
 5129TIP3    H239583   1.582   6.128  14.648  0.0960 -1.1353  1.8410
 5130TIP3   OH239584   0.893   1.113  15.237 -0.0055  0.1295 -0.6594
 5130TIP3    H139585   0.813   1.080  15.196 -1.2131 -1.7677  2.8795
 5130TIP3    H239586   0.905   1.059  15.314  4.1060  1.1463 -0.3595
 5131TIP3   OH239587   2.206   3.820  16.021  0.1911  0.4807 -0.1253
 5131TIP3    H139588   2.165   3.770  15.951 -0.4709  1.1210 -0.2108
 5131TIP3    H239589   2.297   3.831  15.992  0.0758  0.2212 -0.5971
 5132TIP3   OH239590   4.657   2.060  16.541  0.0760 -0.0779  0.1052
 5132TIP3    H139591   4.705   2.054  16.624 -0.0333  1.5256  0.3181
 5132TIP3    H239592   4.599   2.136  16.553 -0.6721 -0.4417 -1.0768
 5133TIP3   OH239593   0.856   4.310  14.750 -0.7946 -0.5521 -0.2290
 5133TIP3    H139594   0.837   4.239  14.812  0.2202 -0.3951  0.2845
 5133TIP3    H239595   0.880   4.384  14.806  2.9046 -1.1667 -0.7336
 5134TIP3   OH239596   2.630   2.206  15.454 -0.2066  0.5906 -0.0818
 5134TIP3    H139597   2.614   2.298  15.431 -4.3141 -0.3692 -2.0516
 5134TIP3    H239598   2.658   2.166  15.372  0.1263 -0.1984  0.4134
 5135TIP3   OH239599   6.359   6.291  16.516  0.4423 -0.3494  0.3370
 5135TIP3    H139600   6.279   6.256  16.556  0.8706 -1.9502 -0.1328
 5135TIP3    H239601   6.416   6.215  16.505  0.7748  0.1739 -2.2810
 5136TIP3   OH239602   3.095   4.764  16.649 -0.0278 -0.1162 -0.2190
 5136TIP3    H139603   3.088   4.780  16.554 -1.9944  2.3445  0.2234
 5136TIP3    H239604   3.183   4.793  16.671 -0.2707  1.3443 -1.0253
 5137TIP3   OH239605   6.458   4.161  16.444  0.0263 -0.0696  0.4361
 5137TIP3    H139606   6.461   4.163  16.348 -0.1591  0.1400  0.4357
 5137TIP3    H239607   6.396   4.229  16.468 -1.0833 -1.1278  0.6539
 5138TIP3   OH239608   5.966   3.829  14.256  0.3051  0.3557  0.2216
 5138TIP3    H139609   5.976   3.890  14.183  1.8038 -0.7463 -0.5452
 5138TIP3    H239610   5.981   3.743  14.217 -1.0130 -0.4573  1.4251
 5139TIP3   OH239611   4.925   0.401  14.040  0.1709 -0.1398 -0.1828
 5139TIP3    H139612   4.980   0.433  13.968  4.0485 -0.5813  2.2890
 5139TIP3    H239613   4.862   0.343  13.998  2.5370 -0.7755 -3.2014
 5140TIP3   OH239614   0.898   5.083  15.522  0.4025  0.3611  0.3399
 5140TIP3    H139615   0.807   5.079  15.492  0.4916  0.4256  0.0563
 5140TIP3    H239616   0.936   5.158  15.476  1.1220 -0.7987 -1.0422
 5141TIP3   OH239617   2.356   0.186  14.170 -0.1704 -0.2561 -0.5457
 5141TIP3    H139618   2.313   0.271  14.181 -1.4797 -0.8713 -0.6332
 5141TIP3    H239619   2.414   0.197  14.096 -0.9540  0.3522 -1.0824
 5142TIP3   OH239620   5.433   1.718  16.871  0.4173  0.0122 -0.1896
 5142TIP3    H139621   5.476   1.798  16.842  1.3812 -0.8387 -1.2042
 5142TIP3    H239622   5.448   1.715  16.965 -0.2261  1.3461 -0.0163
 5143TIP3   OH239623   1.889   0.394  13.518 -0.7986 -0.8668 -0.1017
 5143TIP3    H139624   1.939   0.316  13.543  0.6535  0.2779  0.7673
 5143TIP3    H239625   1.942   0.435  13.450  0.4084  1.2197  1.9407
 5144TIP3   OH239626   1.786   6.448  17.014  0.1446  0.0778 -0.7405
 5144TIP3    H139627   1.728   6.520  16.990 -0.1058  0.6302  1.3406
 5144TIP3    H239628   1.728   6.376  17.038  0.3203  0.1877  0.0493
 5145TIP3   OH239629   4.751   5.171  17.133  0.3070 -0.4459 -0.1020
 5145TIP3    H139630   4.664   5.131  17.128 -0.3997  0.9000  0.8507
 5145TIP3    H239631   4.775   5.167  17.226  2.4166 -3.0446 -0.6222
 5146TIP3   OH239632   5.581   2.421  14.667  0.2616  0.0121  0.3422
 5146TIP3    H139633   5.664   2.457  14.636 -0.6799  0.0733 -2.3824
 5146TIP3    H239634   5.576   2.334  14.628 -1.1399  0.1755  0.1079
 5147TIP3   OH239635   5.327   4.750  15.269 -0.7446  0.0950 -0.0879
 5147TIP3    H139636   5.246   4.732  15.316 -2.2022 -0.6221 -2.6391
 5147TIP3    H239637   5.345   4.669  15.222  0.8113  0.6408 -0.4841
 5148TIP3   OH239638   3.033   1.893  15.180  0.0368  0.5738  0.0438
 5148TIP3    H139639   3.118   1.918  15.215  0.1403  2.8708 -1.6376
 5148TIP3    H239640   3.028   1.937  15.095 -2.3260 -0.5136 -0.4664
 5149TIP3   OH239641   1.056   4.764  16.136  0.9205 -0.3307  0.0795
 5149TIP3    H139642   1.082   4.718  16.056  0.7972 -1.2424  0.5621
 5149TIP3    H239643   1.034   4.853  16.106 -1.0338 -1.1755 -1.2285
 5150TIP3   OH239644   0.109   3.705  14.159 -0.0784 -0.1556 -0.0112
 5150TIP3    H139645   0.075   3.719  14.247  1.3479 -0.3713  0.6026
 5150TIP3    H239646   0.150   3.789  14.135 -3.0689  0.9525 -1.7526
 5151TIP3   OH239647   0.461   3.865  14.299  0.3126 -0.0863  0.2827
 5151TIP3    H139648   0.457   3.854  14.204 -1.2772  1.1053  0.1689
 5151TIP3    H239649   0.523   3.799  14.328  1.0733 -0.2720 -1.6120
 5152TIP3   OH239650   6.286   2.449  15.065 -0.1561  0.5458 -0.2391
 5152TIP3    H139651   6.371   2.418  15.097 -0.5750 -0.1096  0.2599
 5152TIP3    H239652   6.281   2.540  15.094  0.6555  0.7987 -0.8498
 5153TIP3   OH239653   4.115   5.650  16.207 -0.0129  0.2578 -0.5968
 5153TIP3    H139654   4.102   5.736  16.247 -0.1506 -0.0808  0.1066
 5153TIP3    H239655   4.032   5.631  16.162  0.0671  0.5493 -0.8701
 5154TIP3   OH239656   6.696   6.347  15.751  0.1558  0.4950 -0.0298
 5154TIP3    H139657   6.760   6.297  15.801  0.3172 -1.8532 -2.3357
 5154TIP3    H239658   6.706   6.315  15.661 -2.1322  2.2995 -1.0387
 5155TIP3   OH239659   1.912   4.850  16.372  0.0148  0.1954 -0.0790
 5155TIP3    H139660   1.983   4.804  16.416 -2.1487 -0.5104  3.0703
 5155TIP3    H239661   1.833   4.807  16.404 -1.9456  2.2757 -1.7610
 5156TIP3   OH239662   0.495   5.331  14.819 -0.3850 -0.8022  0.1875
 5156TIP3    H139663   0.476   5.423  14.801 -0.9485 -1.0273 -0.3995
 5156TIP3    H239664   0.411   5.294  14.844 -0.2066 -1.2260  0.1598
 5157TIP3   OH239665   3.222   3.759  14.408 -0.1507  0.0995 -0.0023
 5157TIP3    H139666   3.234   3.666  14.389 -0.7051 -0.1735  0.9261
 5157TIP3    H239667   3.148   3.786  14.354  0.1149  0.0458 -0.3961
 5158TIP3   OH239668   3.245   0.354  17.101  0.3888 -0.5059  0.1045
 5158TIP3    H139669   3.197   0.326  17.023 -0.2772  0.6307  0.0955
 5158TIP3    H239670   3.180   0.351  17.171  0.3958  0.6386  0.1730
 5159TIP3   OH239671   2.524   0.995  14.390 -1.0118 -0.6791  0.3951
 5159TIP3    H139672   2.577   1.002  14.310  1.4627  2.2830  2.0770
 5159TIP3    H239673   2.589   0.986  14.460 -2.9347  0.0481  2.3525
 5160TIP3   OH239674   2.225   0.347  15.785 -0.3656 -0.2191  0.0786
 5160TIP3    H139675   2.260   0.322  15.870 -1.1340  1.1890  0.8325
 5160TIP3    H239676   2.215   0.442  15.789 -0.7580 -0.1597 -1.4610
 5161TIP3   OH239677   3.943   2.545  16.711  0.3909  0.2448  0.0572
 5161TIP3    H139678   3.887   2.505  16.645  1.5285 -0.3369 -0.5759
 5161TIP3    H239679   4.011   2.591  16.661 -0.1604  1.9425  0.7823
 5162TIP3   OH239680   1.653   6.192  16.211 -0.4346  0.3817 -0.0159
 5162TIP3    H139681   1.685   6.282  16.207  2.2952 -0.4603  0.6383
 5162TIP3    H239682   1.621   6.183  16.301 -1.3800  0.8420 -0.2826
 5163TIP3   OH239683   5.009   1.288  13.398 -0.2652 -0.2675 -0.3374
 5163TIP3    H139684   5.030   1.197  13.415  1.1547  0.2034  0.6344
 5163TIP3    H239685   4.947   1.312  13.466 -0.8491 -0.5735 -0.7581
 5164TIP3   OH239686   3.845   5.255  13.877  0.2096 -0.1803 -0.4747
 5164TIP3    H139687   3.804   5.251  13.790  1.0049 -0.4987 -0.8468
 5164TIP3    H239688   3.799   5.325  13.922  1.5085  1.8276 -2.0698
 5165TIP3   OH239689   3.267   5.757  15.544 -0.4693  0.1056  0.5519
 5165TIP3    H139690   3.233   5.827  15.488 -1.4415  0.4870  1.5765
 5165TIP3    H239691   3.191   5.730  15.596 -0.0753 -1.6455  0.2483
 5166TIP3   OH239692   5.945   1.129  14.913 -0.0405 -0.6440 -0.1241
 5166TIP3    H139693   5.915   1.122  14.822 -0.8011 -0.1646  0.0897
 5166TIP3    H239694   5.952   1.038  14.943  1.1186 -0.8552 -0.9405
 5167TIP3   OH239695   5.781   0.008  13.883 -0.3081  0.3297 -0.0523
 5167TIP3    H139696   5.773   0.082  13.943  0.7956  1.0349 -0.7266
 5167TIP3    H239697   5.860   0.028  13.832 -0.2972 -1.0561 -0.6095
 5168TIP3   OH239698   0.448   1.179  15.289  0.1318  0.3817 -0.2531
 5168TIP3    H139699   0.446   1.267  15.252 -0.0343  0.5006  0.0352
 5168TIP3    H239700   0.363   1.169  15.331  0.0504 -0.0160 -0.5089
 5169TIP3   OH239701   6.736   0.295  16.369  0.1178 -0.2928  0.3043
 5169TIP3    H139702   6.778   0.381  16.366  0.7153 -0.5674 -2.3773
 5169TIP3    H239703   6.643   0.313  16.361  0.3266  0.1292 -1.6150
 5170TIP3   OH239704   4.561   5.263  14.707 -0.2519  0.0657 -0.6482
 5170TIP3    H139705   4.570   5.286  14.800  0.2385  1.7881 -1.0720
 5170TIP3    H239706   4.619   5.188  14.695  0.6793  0.6236  0.1858
 5171TIP3   OH239707   4.893   5.718  14.553  0.2184  0.1564 -0.2400
 5171TIP3    H139708   4.850   5.685  14.632 -0.2593  0.3771 -0.4023
 5171TIP3    H239709   4.867   5.810  14.548  2.0669  0.7630  0.5682
 5172TIP3   OH239710   2.045   0.711  15.693 -0.6394 -0.3114 -0.1565
 5172TIP3    H139711   2.053   0.798  15.732  0.6276 -0.4404 -0.0740
 5172TIP3    H239712   2.008   0.657  15.762 -0.9761  0.0470 -0.0498
 5173TIP3   OH239713   0.549   0.189  16.985 -0.6551  0.8624  0.4999
 5173TIP3    H139714   0.505   0.243  16.920 -2.0523  0.2419  0.8916
 5173TIP3    H239715   0.531   0.099  16.958  0.9662  0.5689  0.3071
 5174TIP3   OH239716   2.037   2.800  14.291 -0.5921  0.2870 -0.3112
 5174TIP3    H139717   2.054   2.825  14.200  0.0638 -2.3654 -0.9987
 5174TIP3    H239718   2.059   2.707  14.295 -0.2048  0.4069  2.6794
 5175TIP3   OH239719   5.252   5.787  15.028 -0.2412 -0.0174 -0.5623
 5175TIP3    H139720   5.161   5.810  15.009 -0.1992 -0.2336 -1.0369
 5175TIP3    H239721   5.271   5.714  14.969  0.5462  0.6759 -1.1986
 5176TIP3   OH239722   6.140   5.596  14.768 -0.3388 -0.2584 -0.0079
 5176TIP3    H139723   6.189   5.630  14.694 -2.2773  1.7434 -0.5077
 5176TIP3    H239724   6.078   5.534  14.730 -0.1643 -0.5584  0.1942
 5177TIP3   OH239725   6.023   4.882  14.625  0.0740  0.1353  0.4128
 5177TIP3    H139726   6.027   4.975  14.648 -0.0887  0.1834  0.2497
 5177TIP3    H239727   5.930   4.859  14.635  0.1818 -0.1140  0.8592
 5178TIP3   OH239728   1.610   3.499  17.121 -0.2998 -0.0979  0.4155
 5178TIP3    H139729   1.696   3.541  17.125 -0.4168  0.1574  0.2625
 5178TIP3    H239730   1.558   3.555  17.062 -0.3340 -0.6697 -0.1129
 5179TIP3   OH239731   6.248   1.224  14.162  0.9168  0.4691 -0.0085
 5179TIP3    H139732   6.235   1.198  14.071  2.7189 -0.4628 -0.0382
 5179TIP3    H239733   6.336   1.193  14.184  0.1419 -0.3213  2.3671
 5180TIP3   OH239734   3.097   5.055  15.463 -0.4183  0.4918  0.4287
 5180TIP3    H139735   3.144   5.037  15.545  0.5388  0.8572 -0.0265
 5180TIP3    H239736   3.006   5.067  15.490 -0.2842 -0.3856  1.3110
 5181TIP3   OH239737   0.771   6.458  14.329  0.3051  0.5109 -0.1145
 5181TIP3    H139738   0.818   6.381  14.298  0.3897  1.1865 -1.7250
 5181TIP3    H239739   0.799   6.529  14.271 -0.1791  1.6549  0.9940
 5182TIP3   OH239740   0.893   3.681  15.490 -0.6485 -0.4938 -0.1968
 5182TIP3    H139741   0.976   3.729  15.491 -0.1971 -1.2550  0.4675
 5182TIP3    H239742   0.865   3.683  15.399 -0.7624  1.2014 -0.1606
 5183TIP3   OH239743   5.609   5.738  14.213  0.4962  1.0890  0.9553
 5183TIP3    H139744   5.605   5.720  14.119  0.4646 -0.6021  1.2574
 5183TIP3    H239745   5.674   5.808  14.221 -0.9403  2.7000 -0.4973
 5184TIP3   OH239746   6.449   4.469  15.128  0.1393  0.7353 -0.0859
 5184TIP3    H139747   6.416   4.532  15.192  0.6246  1.0853 -0.1680
 5184TIP3    H239748   6.534   4.505  15.102 -0.1869  0.7420 -1.1461
 5185TIP3   OH239749   6.188   6.439  15.760  0.1678  0.1549 -0.3715
 5185TIP3    H139750   6.129   6.365  15.767 -0.4076  0.4551 -1.7466
 5185TIP3    H239751   6.275   6.400  15.751 -0.0325 -0.3192 -0.2699
 5186TIP3   OH239752   3.737   0.792  15.814 -0.0537 -0.1006  0.2725
 5186TIP3    H139753   3.690   0.875  15.816  0.0403 -0.0319 -0.2627
 5186TIP3    H239754   3.729   0.761  15.724  1.4530  0.2340 -0.0173
 5187TIP3   OH239755   0.585   5.060  17.128  0.6738 -0.0356  0.5119
 5187TIP3    H139756   0.676   5.083  17.149  1.7594 -3.6753  0.6386
 5187TIP3    H239757   0.592   5.006  17.049 -1.6277  0.8289 -0.3712
 5188TIP3   OH239758   3.729   0.136  16.016  0.6315 -0.1518  0.0357
 5188TIP3    H139759   3.692   0.057  15.976 -0.6732 -0.5917  1.9638
 5188TIP3    H239760   3.817   0.110  16.044  1.1585 -0.1441 -1.5114
 5189TIP3   OH239761   3.382   2.094  15.549  0.2578  0.1729 -0.5268
 5189TIP3    H139762   3.423   2.048  15.475 -0.0653 -0.2970 -0.4205
 5189TIP3    H239763   3.301   2.045  15.565  0.7542 -0.2747  0.7151
 5190TIP3   OH239764   6.432   2.355  15.714  0.2366  0.4225  0.1743
 5190TIP3    H139765   6.468   2.318  15.634  0.7722  0.0386  0.5889
 5190TIP3    H239766   6.343   2.381  15.690 -0.1533 -1.1054 -0.1337
 5191TIP3   OH239767   2.010   4.836  14.204 -0.3869 -0.1422  0.8078
 5191TIP3    H139768   2.045   4.748  14.193  0.2716  0.2931 -0.8378
 5191TIP3    H239769   2.035   4.860  14.293  0.7931 -1.0436  0.7451
 5192TIP3   OH239770   3.374   5.412  14.531 -0.1183  0.0782 -0.2551
 5192TIP3    H139771   3.303   5.386  14.472  1.8908  0.1234 -2.8806
 5192TIP3    H239772   3.436   5.340  14.526  1.2238  1.1974 -0.1167
 5193TIP3   OH239773   3.056   4.834  15.298 -0.1519  0.1751 -0.1451
 5193TIP3    H139774   3.060   4.915  15.348  0.4473  0.0132  0.0842
 5193TIP3    H239775   3.132   4.837  15.240 -0.1567 -0.1963 -0.1740
 5194TIP3   OH239776   6.725   1.916  15.739  0.2151  0.2384  0.5012
 5194TIP3    H139777   6.733   2.010  15.754  0.5038  0.4419 -0.8406
 5194TIP3    H239778   6.665   1.886  15.808 -2.5573  1.9420 -1.0060
 5195TIP3   OH239779   4.597   3.995  15.566  0.0853  0.2099 -0.2006
 5195TIP3    H139780   4.665   4.034  15.621 -0.1780 -1.2162  1.2098
 5195TIP3    H239781   4.645   3.943  15.502  0.4031 -1.6073  1.4076
 5196TIP3   OH239782   3.597   0.128  14.912 -1.0463 -0.3074  0.3176
 5196TIP3    H139783   3.660   0.185  14.867 -0.1075 -1.2107  0.4553
 5196TIP3    H239784   3.635   0.115  14.999 -0.3618 -2.4662 -0.2429
 5197TIP3   OH239785   6.205   3.095  16.842  0.1848 -0.6089 -0.2625
 5197TIP3    H139786   6.254   3.014  16.827  0.6361 -0.8580  2.1346
 5197TIP3    H239787   6.267   3.165  16.820  1.6154 -0.9303  2.2737
 5198TIP3   OH239788   0.088   6.063  14.321 -0.0868 -0.6204  0.4073
 5198TIP3    H139789   0.074   6.157  14.309  0.2089 -0.4955  1.0272
 5198TIP3    H239790   0.064   6.024  14.236 -0.6274 -0.0351  0.2871
 5199TIP3   OH239791   1.366   5.525  15.258  0.4874  0.4483 -0.2209
 5199TIP3    H139792   1.377   5.560  15.169  0.3123  0.1678 -0.3552
 5199TIP3    H239793   1.273   5.538  15.277  0.2376 -0.6854 -0.5934
 5200TIP3   OH239794   0.548   5.251  15.957  0.1529  0.3816 -0.7573
 5200TIP3    H139795   0.478   5.216  15.901  0.0178 -0.3544 -0.1437
 5200TIP3    H239796   0.629   5.220  15.917  0.0136 -2.9544  1.1530
 5201TIP3   OH239797   6.199   3.550  16.312  0.5680 -0.5725  0.2113
 5201TIP3    H139798   6.272   3.502  16.351  2.9030  1.0259 -1.8399
 5201TIP3    H239799   6.241   3.618  16.259 -2.4448  0.2824 -1.3185
 5202TIP3   OH239800   1.645   6.106  15.151 -0.1785 -0.1830 -0.7288
 5202TIP3    H139801   1.613   6.019  15.127  1.6678 -0.8209 -1.0340
 5202TIP3    H239802   1.730   6.090  15.192 -0.7332  1.3260  1.1623
 5203TIP3   OH239803   5.434   0.037  16.127  0.6405 -0.3399 -0.6634
 5203TIP3    H139804   5.499   0.049  16.057  1.3456 -3.6740 -0.7364
 5203TIP3    H239805   5.404  -0.053  16.118 -2.0681  0.2547  1.0768
 5204TIP3   OH239806   6.281   0.251  16.566  0.1402 -0.3492  0.6632
 5204TIP3    H139807   6.221   0.286  16.500  1.3286  1.0463  0.2705
 5204TIP3    H239808   6.348   0.204  16.515  0.7182  0.1994  0.9001
 5205TIP3   OH239809   2.085   6.103  16.370  0.0962 -0.0913  0.2712
 5205TIP3    H139810   2.158   6.147  16.325 -0.2407 -0.2347 -0.4363
 5205TIP3    H239811   2.100   6.010  16.356 -0.2699 -0.1187  0.0422
 5206TIP3   OH239812   2.480   6.075  14.507 -0.0199  0.4349 -0.3825
 5206TIP3    H139813   2.496   6.167  14.526 -0.6267  0.4862 -0.0772
 5206TIP3    H239814   2.495   6.066  14.413  0.6812  0.6989 -0.3025
 5207TIP3   OH239815   3.877   3.915  15.973  0.0909  0.6946 -0.2307
 5207TIP3    H139816   3.959   3.933  15.928  0.6968  0.0139  0.5676
 5207TIP3    H239817   3.899   3.846  16.035 -1.0219  0.7114  0.1966
 5208TIP3   OH239818   5.801   5.646  16.139  0.1883  0.0625  0.5348
 5208TIP3    H139819   5.885   5.602  16.153 -0.3490 -0.2136  3.5583
 5208TIP3    H239820   5.821   5.739  16.142  0.5126  0.0029  0.2479
 5209TIP3   OH239821   2.304   2.623  14.847 -0.7737  0.1983 -0.2200
 5209TIP3    H139822   2.346   2.610  14.762 -1.6330 -0.8031 -0.5105
 5209TIP3    H239823   2.334   2.550  14.901  0.4397  1.2812  0.6491
 5210TIP3   OH239824   4.149   4.317  14.933 -0.2249 -0.6895  0.5204
 5210TIP3    H139825   4.216   4.293  14.997  0.7813 -2.6128 -1.1594
 5210TIP3    H239826   4.072   4.266  14.959 -0.7345  0.6406  1.7649
 5211TIP3   OH239827   0.310   0.839  15.344 -0.5163 -0.1010  0.5004
 5211TIP3    H139828   0.302   0.826  15.439 -1.1410 -0.5492  0.3906
 5211TIP3    H239829   0.404   0.854  15.330  0.2332 -3.6148  0.7732
 5212TIP3   OH239830   4.212   2.097  15.980  0.5007  0.1200 -0.3879
 5212TIP3    H139831   4.220   2.064  16.069  1.7743  1.2299 -0.0463
 5212TIP3    H239832   4.118   2.102  15.964  0.2636 -1.0712  0.4937
 5213TIP3   OH239833   3.365   2.369  16.377  0.2675  0.5321  0.3134
 5213TIP3    H139834   3.298   2.369  16.308  0.9658  1.5791 -0.3987
 5213TIP3    H239835   3.340   2.297  16.435 -0.8940  0.2547 -0.4938
 5214TIP3   OH239836   6.593   3.988  14.884 -0.2950 -0.1529  0.2279
 5214TIP3    H139837   6.600   4.050  14.958 -0.1370 -0.2870  0.3262
 5214TIP3    H239838   6.645   3.913  14.911 -0.0904 -0.1290 -0.0978
 5215TIP3   OH239839   5.736   3.316  15.003 -0.3711 -0.5552  0.3251
 5215TIP3    H139840   5.818   3.352  15.039 -0.1666 -0.9543  0.2624
 5215TIP3    H239841   5.678   3.308  15.079  0.7005 -3.2129  0.9755
 5216TIP3   OH239842   4.770   5.645  14.779  0.5807  0.6553  0.1017
 5216TIP3    H139843   4.676   5.635  14.761  0.5159  0.7566  0.3854
 5216TIP3    H239844   4.783   5.739  14.788  0.4212  0.5613  1.5943
 5217TIP3   OH239845   2.625   0.713  17.216  0.0511  0.1832  0.2907
 5217TIP3    H139846   2.584   0.796  17.243 -0.0629  0.1194  0.3161
 5217TIP3    H239847   2.709   0.712  17.261  0.1654  0.4083  0.0804
 5218TIP3   OH239848   6.692   3.767  16.544  0.3066 -0.1332  0.1850
 5218TIP3    H139849   6.688   3.830  16.616 -0.5372  2.7660 -2.1936
 5218TIP3    H239850   6.779   3.779  16.506 -0.5076  1.1170 -1.4305
 5219TIP3   OH239851   0.034   1.968  16.864 -0.1378  0.2433 -0.2992
 5219TIP3    H139852   0.039   2.000  16.954  0.4670 -0.5204 -0.0462
 5219TIP3    H239853  -0.018   2.033  16.817 -0.4365  0.6565  0.5987
 5220TIP3   OH239854   3.143   6.225  16.829  0.1824  0.3496 -0.2981
 5220TIP3    H139855   3.156   6.286  16.756 -0.5500 -0.0101 -0.7376
 5220TIP3    H239856   3.049   6.210  16.832  0.3003 -0.3844  0.1209
 5221TIP3   OH239857   2.919   1.692  14.898  0.4364 -0.3309 -0.4859
 5221TIP3    H139858   2.867   1.626  14.852 -0.3064 -0.0549 -0.0522
 5221TIP3    H239859   2.856   1.759  14.923  0.8166 -0.4864  0.9560
 5222TIP3   OH239860   6.531   0.781  14.514  0.4618 -0.1189  0.2089
 5222TIP3    H139861   6.479   0.700  14.515  0.4846 -0.1403 -0.1715
 5222TIP3    H239862   6.500   0.828  14.436  1.7981 -0.6528 -0.6748
 5223TIP3   OH239863   6.599   6.161  17.219  0.3845  0.6007  0.6765
 5223TIP3    H139864   6.508   6.187  17.204  0.9544  1.0608 -2.7105
 5223TIP3    H239865   6.642   6.240  17.250 -0.0543  0.7590  0.8940
 5224TIP3   OH239866   5.825   0.852  14.832  0.1969  0.6670  0.3218
 5224TIP3    H139867   5.871   0.922  14.785 -0.2627  1.1601  0.5894
 5224TIP3    H239868   5.893   0.811  14.886  0.3907  1.1760  0.4715
 5225TIP3   OH239869   5.062   5.782  16.994 -0.3204  0.2866 -0.3979
 5225TIP3    H139870   5.107   5.700  16.975 -0.8733  0.2155 -1.4260
 5225TIP3    H239871   5.129   5.836  17.036  0.1108 -0.5954  0.0942
 5226TIP3   OH239872   5.373   0.153  14.382  0.4149  0.1530 -0.1588
 5226TIP3    H139873   5.438   0.115  14.322 -0.2822  2.1173 -2.2976
 5226TIP3    H239874   5.292   0.156  14.331 -1.6477 -2.6968  2.5942
 5227TIP3   OH239875   1.470   2.551  14.543 -0.1162 -0.2393  0.4292
 5227TIP3    H139876   1.466   2.524  14.451 -1.8016 -1.4005  0.7978
 5227TIP3    H239877   1.563   2.553  14.563  0.2773 -0.1477 -1.2523
 5228TIP3   OH239878   3.084   1.620  15.495 -0.2028 -0.5874 -0.0360
 5228TIP3    H139879   3.005   1.613  15.442 -0.9465  0.1336  0.9279
 5228TIP3    H239880   3.139   1.547  15.466 -1.5624 -1.6123 -0.1807
 5229TIP3   OH239881   1.567   0.811  16.979 -0.5092  0.2245  0.8111
 5229TIP3    H139882   1.660   0.831  16.974 -0.4037 -0.4618 -0.8532
 5229TIP3    H239883   1.529   0.883  17.029  1.1079 -0.3408  2.9851
 5230TIP3   OH239884   5.823   4.170  14.588 -0.1519 -0.4000  0.2038
 5230TIP3    H139885   5.739   4.170  14.634  0.6927 -0.3315  1.8155
 5230TIP3    H239886   5.808   4.117  14.509 -1.1262 -2.2745  1.5706
 5231TIP3   OH239887   4.878   6.206  14.743  0.2337  0.1912 -0.3207
 5231TIP3    H139888   4.911   6.203  14.653  2.0388 -1.2317  0.3271
 5231TIP3    H239889   4.823   6.285  14.746  1.3695  1.1209 -2.2342
 5232TIP3   OH239890   1.637   4.352  15.094  0.2615 -0.3771 -0.3426
 5232TIP3    H139891   1.566   4.338  15.156  0.9438  0.1177  0.5783
 5232TIP3    H239892   1.714   4.371  15.149  0.5436  1.6984 -1.3294
 5233TIP3   OH239893   4.568   4.903  14.842  0.0143  0.5550 -0.2650
 5233TIP3    H139894   4.633   4.846  14.801  0.9087  0.9810  0.5224
 5233TIP3    H239895   4.620   4.966  14.893 -1.0290  0.0027  1.5816
 5234TIP3   OH239896   6.022   4.737  15.960  0.1353  0.0494  0.1647
 5234TIP3    H139897   5.952   4.751  15.896  0.5500 -0.2629 -0.3689
 5234TIP3    H239898   5.988   4.669  16.018 -0.0228 -0.0632 -0.0573
 5235TIP3   OH239899   2.863   6.743  15.411  0.3352  0.0358 -0.5245
 5235TIP3    H139900   2.879   6.801  15.485  2.4957 -1.4437  0.2823
 5235TIP3    H239901   2.779   6.771  15.376  0.0077  1.8305  1.4928
 5236TIP3   OH239902   5.751   1.943  15.038  0.6321  1.5095 -0.3784
 5236TIP3    H139903   5.832   1.987  15.015  1.8137 -0.2788  0.1663
 5236TIP3    H239904   5.763   1.914  15.129 -0.3214  0.6265 -0.5009
 5237TIP3   OH239905   1.328   4.790  15.804 -0.4087  0.2485 -0.4752
 5237TIP3    H139906   1.374   4.773  15.886  1.1139  0.2245 -1.2975
 5237TIP3    H239907   1.327   4.885  15.795  0.7771  0.2110 -1.1435
 5238TIP3   OH239908   1.761   2.565  14.548 -0.2692  0.3343  0.4752
 5238TIP3    H139909   1.786   2.566  14.640 -0.5995  0.2703  0.5665
 5238TIP3    H239910   1.799   2.645  14.511  1.3356 -0.4702  0.2722
 5239TIP3   OH239911   3.356   0.588  13.977 -0.1148 -0.5917 -0.4162
 5239TIP3    H139912   3.306   0.634  13.910  0.0186  0.0833 -0.0553
 5239TIP3    H239913   3.326   0.625  14.060 -0.0796 -1.2264 -0.1118
 5240TIP3   OH239914   5.173   4.622  15.843  0.4541 -0.6036 -0.3366
 5240TIP3    H139915   5.218   4.640  15.761 -1.0734  1.9454 -0.7062
 5240TIP3    H239916   5.191   4.698  15.898 -0.9842 -0.8752  0.5746
 5241TIP3   OH239917   1.631   1.540  16.630 -0.2514  0.0661  0.0647
 5241TIP3    H139918   1.566   1.482  16.668  0.2127 -1.2657 -1.1071
 5241TIP3    H239919   1.700   1.482  16.598  1.3447  1.4138  0.9241
 5242TIP3   OH239920   6.135   5.562  13.732  0.0318 -0.2533  0.1638
 5242TIP3    H139921   6.200   5.493  13.713 -0.8324 -1.0128 -0.0985
 5242TIP3    H239922   6.141   5.621  13.657  1.6734  0.6987  0.9718
 5243TIP3   OH239923   2.646   3.630  13.730 -0.1039 -0.1197 -0.0054
 5243TIP3    H139924   2.698   3.614  13.651  0.9083 -1.0758  0.8250
 5243TIP3    H239925   2.708   3.664  13.793 -0.4175 -1.4832  1.0809
 5244TIP3   OH239926   5.561   1.032  14.369 -1.1737  0.0610  0.3500
 5244TIP3    H139927   5.609   0.963  14.416  0.3826  0.8293 -0.0211
 5244TIP3    H239928   5.516   1.081  14.438  0.9800  1.0964  1.1125
 5245TIP3   OH239929   2.523   2.830  16.351  0.1386  0.0472  0.3477
 5245TIP3    H139930   2.558   2.919  16.354 -0.0757  0.1220  0.7095
 5245TIP3    H239931   2.544   2.793  16.437 -0.0193 -0.1541  0.3005
 5246TIP3   OH239932   2.136   2.471  15.814 -0.5068  0.0665  0.1915
 5246TIP3    H139933   2.228   2.446  15.825 -0.5518 -0.3551 -0.3216
 5246TIP3    H239934   2.090   2.428  15.886 -0.4124 -0.3811 -0.0145
 5247TIP3   OH239935   3.720   1.430  16.003  0.5146  0.2786 -0.4847
 5247TIP3    H139936   3.796   1.456  16.055  0.5728  0.6921 -0.7645
 5247TIP3    H239937   3.757   1.381  15.930  0.4681  0.0421 -0.3498
 5248TIP3   OH239938   5.082   1.027  16.382 -0.4787 -0.1923  0.4309
 5248TIP3    H139939   5.171   0.997  16.364 -0.9853 -1.9869  0.7756
 5248TIP3    H239940   5.061   1.086  16.310  1.5471  1.5544  1.1638
 5249TIP3   OH239941   2.007   4.446  16.092 -0.1630  0.0095 -0.4216
 5249TIP3    H139942   1.951   4.445  16.170 -1.1045  1.3733 -1.0503
 5249TIP3    H239943   2.080   4.388  16.114 -1.2975 -1.0017  0.8115
 5250TIP3   OH239944   4.447   5.373  16.653  0.1685 -0.3588  0.1350
 5250TIP3    H139945   4.367   5.415  16.684 -0.1615 -0.9461  0.0994
 5250TIP3    H239946   4.416   5.298  16.601  0.7384 -0.6424  0.1970
 5251TIP3   OH239947   3.789   5.648  16.856 -0.0203  0.2013 -0.3072
 5251TIP3    H139948   3.828   5.590  16.921  0.6198  1.9175  0.9327
 5251TIP3    H239949   3.837   5.630  16.775 -0.5322 -1.6590 -0.2449
 5252TIP3   OH239950   6.273   2.938  14.488  0.3231 -0.2338 -0.0127
 5252TIP3    H139951   6.331   2.994  14.436  1.0385  2.1860  3.0860
 5252TIP3    H239952   6.236   2.877  14.424  2.3903  1.3442 -3.0086
 5253TIP3   OH239953   4.564   0.724  15.286  0.0457  0.8510 -0.0104
 5253TIP3    H139954   4.512   0.708  15.365 -3.2484  2.9028 -1.5403
 5253TIP3    H239955   4.559   0.642  15.237  0.0524  0.3561  0.7932
 5254TIP3   OH239956   5.223   6.570  15.768 -0.0790 -0.7664 -0.2227
 5254TIP3    H139957   5.231   6.582  15.673  2.8659 -0.8088 -0.0715
 5254TIP3    H239958   5.182   6.484  15.778 -0.0369 -0.9491 -1.4548
 5255TIP3   OH239959   5.545   0.351  14.304  0.2305  0.2873 -0.4356
 5255TIP3    H139960   5.494   0.323  14.228 -0.6819  2.5131 -0.7411
 5255TIP3    H239961   5.501   0.313  14.379  1.0276 -1.7775 -0.9544
 5256TIP3   OH239962   5.107   5.200  13.387  0.1690  0.2411 -0.0394
 5256TIP3    H139963   5.202   5.210  13.389  0.1213  0.8921 -0.6809
 5256TIP3    H239964   5.092   5.107  13.408  1.0108 -0.1748 -1.1761
 5257TIP3   OH239965   1.212   0.410  14.917 -0.2956 -0.3778  0.2622
 5257TIP3    H139966   1.241   0.468  14.847  0.4804 -2.9766 -1.6764
 5257TIP3    H239967   1.175   0.334  14.873 -1.0149 -1.5475  2.6879
 5258TIP3   OH239968   1.337   3.252  14.389 -0.4058  0.3598 -0.4111
 5258TIP3    H139969   1.250   3.214  14.383 -0.2684  0.2113 -1.7440
 5258TIP3    H239970   1.375   3.215  14.469 -1.7645  0.9004  0.5176
 5259TIP3   OH239971   5.341   1.099  14.232  0.6636 -0.3579 -0.3722
 5259TIP3    H139972   5.418   1.058  14.271  1.7398  0.9414 -1.0479
 5259TIP3    H239973   5.267   1.056  14.274  1.7640 -0.9599  1.0204
 5260TIP3   OH239974   1.683   0.729  14.171 -0.4920  0.3000  0.0651
 5260TIP3    H139975   1.736   0.680  14.234 -0.9627  0.3091  0.4681
 5260TIP3    H239976   1.744   0.794  14.135 -0.1272  0.0616  0.2401
 5261TIP3   OH239977   6.147   4.556  16.765 -0.3293  0.0107  0.4956
 5261TIP3    H139978   6.149   4.563  16.669 -0.9097 -0.3228  0.4564
 5261TIP3    H239979   6.068   4.603  16.791  1.1279  2.3566  1.0315
 5262TIP3   OH239980   2.271   2.568  16.230  0.0704  0.5622  0.4431
 5262TIP3    H139981   2.297   2.590  16.141  0.6840  0.8718  0.6932
 5262TIP3    H239982   2.178   2.548  16.224  0.0524  0.8335 -0.2179
 5263TIP3   OH239983   2.852   3.952  16.329  0.3419  0.0862 -0.3325
 5263TIP3    H139984   2.775   3.901  16.354  1.2378 -1.6190 -0.9270
 5263TIP3    H239985   2.866   4.012  16.403 -0.0792 -1.3248  0.9381
 5264TIP3   OH239986   0.806   3.667  16.641  0.1122 -0.0502 -0.0942
 5264TIP3    H139987   0.795   3.762  16.635  0.5931  0.0853  0.9880
 5264TIP3    H239988   0.899   3.655  16.663 -0.0630 -0.7415  0.3034
 5265TIP3   OH239989   4.998   2.792  16.461 -0.2481 -0.0250 -0.1408
 5265TIP3    H139990   5.006   2.847  16.384 -0.6242  0.3608  0.0881
 5265TIP3    H239991   4.944   2.718  16.433 -0.7364  0.3283 -0.1372
 5266TIP3   OH239992   3.415   4.631  15.545  0.1555  0.0778 -0.2296
 5266TIP3    H139993   3.495   4.624  15.493  0.1578 -0.3325 -0.1677
 5266TIP3    H239994   3.395   4.542  15.572  1.2759  0.4480  2.1582
 5267TIP3   OH239995   2.879   2.359  14.799 -0.5276  0.0184  0.0737
 5267TIP3    H139996   2.832   2.284  14.836 -1.4726  0.1175 -0.8820
 5267TIP3    H239997   2.971   2.343  14.821 -0.8827 -0.6733  1.1365
 5268TIP3   OH239998   1.436   3.288  15.181 -0.1370 -0.1162  0.0689
 5268TIP3    H139999   1.458   3.267  15.272  1.4550 -2.0993 -0.7068
 5268TIP3    H240000   1.517   3.322  15.144 -0.3546 -0.7284 -0.9902
 5269TIP3   OH240001   4.767   2.703  15.799 -0.8923  0.1796 -0.2644
 5269TIP3    H140002   4.702   2.698  15.869 -0.4666  0.3740  0.1511
 5269TIP3    H240003   4.803   2.614  15.794 -0.9215  0.1662 -0.2340
 5270TIP3   OH240004   0.468   0.421  15.135 -0.0658 -0.1206 -0.1492
 5270TIP3    H140005   0.416   0.352  15.095 -2.0771  0.7119  0.8940
 5270TIP3    H240006   0.539   0.375  15.180  0.3679 -1.2590 -1.8821
 5271TIP3   OH240007   3.824   3.779  15.578 -0.4809  0.2224 -1.0136
 5271TIP3    H140008   3.782   3.732  15.506 -2.4350 -1.1180  0.8749
 5271TIP3    H240009   3.782   3.865  15.578 -1.9486 -0.4655 -0.2968
 5272TIP3   OH240010   5.305   2.773  13.105 -0.0013  0.2542  0.3179
 5272TIP3    H140011   5.240   2.837  13.136 -1.4036 -0.5923 -0.7596
 5272TIP3    H240012   5.379   2.783  13.165 -0.7201  1.9399  0.9904
 5273TIP3   OH240013   2.279   2.179  14.746 -0.3075  0.2430 -0.4014
 5273TIP3    H140014   2.249   2.171  14.837 -0.7724  1.1352 -0.4653
 5273TIP3    H240015   2.261   2.094  14.708 -2.4399  0.5811 -0.3189
 5274TIP3   OH240016   4.693   3.424  16.221 -0.2207 -0.4594  0.0477
 5274TIP3    H140017   4.694   3.421  16.126 -2.6441 -0.2164 -0.0467
 5274TIP3    H240018   4.629   3.491  16.243  0.2258 -0.5562  1.8592
 5275TIP3   OH240019   1.200   6.300  15.090  0.0651  0.2079  0.4896
 5275TIP3    H140020   1.126   6.271  15.037 -1.0508  0.6121  1.7715
 5275TIP3    H240021   1.276   6.257  15.051 -0.1843  2.6702 -3.2272
 5276TIP3   OH240022   4.773   2.776  14.902 -0.0078  0.0511  0.3905
 5276TIP3    H140023   4.748   2.788  14.810 -1.5142  1.8244  0.9781
 5276TIP3    H240024   4.811   2.688  14.905 -0.2669 -0.1948 -1.8518
 5277TIP3   OH240025   6.281   6.505  17.194  0.4538 -0.1968  0.3267
 5277TIP3    H140026   6.311   6.550  17.115 -1.3747 -0.2433 -0.4300
 5277TIP3    H240027   6.351   6.520  17.258  1.8339  0.0957 -1.1849
 5278TIP3   OH240028   5.485   2.447  14.932 -0.2250  0.1677 -0.6547
 5278TIP3    H140029   5.446   2.534  14.923  0.0164  0.2697 -0.7255
 5278TIP3    H240030   5.530   2.433  14.849 -1.5444 -0.6694 -1.2617
 5279TIP3   OH240031   2.791   2.255  17.148 -0.1800  0.8381 -0.2248
 5279TIP3    H140032   2.749   2.179  17.108 -0.1704  0.4458  0.5048
 5279TIP3    H240033   2.885   2.240  17.135 -0.1503  0.4253  0.4506
 5280TIP3   OH240034   1.331   4.209  16.092 -0.8112  0.2562  0.6626
 5280TIP3    H140035   1.381   4.244  16.166  0.2449  0.3253 -0.0654
 5280TIP3    H240036   1.346   4.115  16.094  1.4229  0.4726 -0.9532
 5281TIP3   OH240037   6.415   1.281  15.214 -0.6109 -0.5192  0.6243
 5281TIP3    H140038   6.481   1.348  15.233 -0.8353 -0.2383  0.4276
 5281TIP3    H240039   6.437   1.249  15.126 -1.2950  0.2602  0.1480
 5282TIP3   OH240040   1.855   4.204  16.723 -0.5334  0.0953 -0.2824
 5282TIP3    H140041   1.760   4.206  16.734 -0.3450 -0.3358  2.1141
 5282TIP3    H240042   1.879   4.296  16.712 -1.1783  0.2908 -0.1029
 5283TIP3   OH240043   0.613   1.851  14.816  0.2169 -0.4663 -0.1874
 5283TIP3    H140044   0.519   1.864  14.825  0.0436 -1.0568 -1.0842
 5283TIP3    H240045   0.625   1.820  14.726  1.3731  0.5759 -0.4246
 5284TIP3   OH240046   5.477   3.096  15.430 -0.3473  0.0197  0.5525
 5284TIP3    H140047   5.488   3.186  15.460 -0.7844  0.0594  0.6072
 5284TIP3    H240048   5.531   3.091  15.351  0.8259 -0.0977  1.3348
 5285TIP3   OH240049   5.582   0.053  14.992 -0.5703  0.0347  0.0061
 5285TIP3    H140050   5.580   0.026  14.900 -1.2101  1.1387 -0.3238
 5285TIP3    H240051   5.505   0.110  15.002 -0.7288 -0.3725  1.3233
 5286TIP3   OH240052   3.530   3.855  16.000 -0.5195  0.4208 -0.2291
 5286TIP3    H140053   3.564   3.922  16.060  2.2544 -1.0026 -0.0781
 5286TIP3    H240054   3.518   3.900  15.917  1.1363  1.1953 -0.0837
 5287TIP3   OH240055   4.578   5.305  15.021 -0.0545  0.0148 -0.5489
 5287TIP3    H140056   4.515   5.245  15.060 -0.5558  0.6377 -0.3898
 5287TIP3    H240057   4.541   5.393  15.035  0.0454  0.3006 -1.8615
 5288TIP3   OH240058   1.547   0.225  14.752  0.2496  0.1471  0.4514
 5288TIP3    H140059   1.579   0.195  14.667  0.9629 -0.1729  0.8264
 5288TIP3    H240060   1.535   0.319  14.741 -3.6966 -0.3731 -1.2867
 5289TIP3   OH240061   1.736   1.990  16.685 -0.1792  0.5782  0.4411
 5289TIP3    H140062   1.817   1.949  16.655 -0.5000  0.3413 -0.1173
 5289TIP3    H240063   1.696   1.924  16.742 -0.8947 -0.0731 -0.7785
 5290TIP3   OH240064   1.566   2.829  14.488 -1.1608  0.5244 -0.8580
 5290TIP3    H140065   1.567   2.917  14.525  0.7243  0.7164 -1.2625
 5290TIP3    H240066   1.477   2.798  14.503 -1.3714  1.8015  0.9220
 5291TIP3   OH240067   4.232   5.558  16.762 -0.3047 -0.5019 -0.2114
 5291TIP3    H140068   4.262   5.546  16.852  0.6581 -0.8518 -0.5691
 5291TIP3    H240069   4.271   5.641  16.735  1.7953 -1.7276 -1.2206
 5292TIP3   OH240070   1.076   3.103  15.052 -0.1444  0.4554 -0.7001
 5292TIP3    H140071   1.004   3.162  15.073 -0.3197  0.2632 -0.7529
 5292TIP3    H240072   1.070   3.034  15.118  1.0229  1.3088  0.3477
 5293TIP3   OH240073   3.834   2.497  14.536  0.4429  0.7361 -0.1707
 5293TIP3    H140074   3.915   2.530  14.496  1.2242 -1.8629 -0.9510
 5293TIP3    H240075   3.825   2.408  14.502 -2.1697  0.5391  0.8009
 5294TIP3   OH240076   3.828   2.730  16.878 -0.0445 -0.7955  0.1172
 5294TIP3    H140077   3.885   2.664  16.840  1.1308 -0.2855  0.9279
 5294TIP3    H240078   3.845   2.809  16.826 -1.6024 -1.1568 -0.9887
 5295TIP3   OH240079   6.532   0.204  16.773  0.3460 -0.6105 -0.3461
 5295TIP3    H140080   6.606   0.264  16.759  0.1661 -0.2668  0.1485
 5295TIP3    H240081   6.463   0.237  16.716 -0.0764  0.2392  0.6248
 5296TIP3   OH240082   0.198   2.252  15.237  1.0749  0.8450 -0.4355
 5296TIP3    H140083   0.181   2.193  15.163  0.6725  1.0668 -0.5247
 5296TIP3    H240084   0.147   2.331  15.216 -0.1841  0.3893  0.7386
 5297TIP3   OH240085   3.139   2.757  15.412  0.3740  0.1062 -0.4312
 5297TIP3    H140086   3.189   2.702  15.472  1.1757  0.5559 -0.6702
 5297TIP3    H240087   3.205   2.814  15.372 -0.4260  1.1398 -0.2918
 5298TIP3   OH240088   2.518   0.019  14.963 -0.2527 -0.0884 -0.5229
 5298TIP3    H140089   2.435  -0.022  14.986 -0.0253 -1.2572 -1.6352
 5298TIP3    H240090   2.496   0.082  14.895 -0.2562 -0.3564 -0.7752
 5299TIP3   OH240091   3.220   2.104  15.037 -0.1460 -0.1070 -0.0665
 5299TIP3    H140092   3.172   2.187  15.028 -0.3595 -0.0993  1.0035
 5299TIP3    H240093   3.176   2.044  14.976 -0.1897  0.4760 -0.6168
 5300TIP3   OH240094   5.614   1.912  16.704 -0.1549 -0.2796  0.1798
 5300TIP3    H140095   5.626   2.001  16.671  0.6798 -0.3008  0.4111
 5300TIP3    H240096   5.689   1.864  16.671  0.7662 -0.2877  2.1356
 5301TIP3   OH240097   4.141   4.346  14.652  0.5182 -0.4752  0.0413
 5301TIP3    H140098   4.147   4.262  14.607  1.5106  0.5865 -1.9401
 5301TIP3    H240099   4.159   4.325  14.744 -0.4683 -2.5741 -0.1905
 5302TIP3   OH240100   5.156   6.716  16.360  0.7306  0.4408 -0.6126
 5302TIP3    H140101   5.208   6.636  16.352  0.7448  0.5391 -1.7092
 5302TIP3    H240102   5.145   6.729  16.454 -2.4394 -2.8732 -0.3166
 5303TIP3   OH240103   1.033   1.228  15.718 -0.1265  0.4275  0.1317
 5303TIP3    H140104   0.983   1.152  15.748 -1.2653  0.9988 -0.2683
 5303TIP3    H240105   1.068   1.201  15.633 -0.9847  0.5161 -0.2658
 5304TIP3   OH240106   2.129   0.948  16.840  0.5966  0.8929 -0.6257
 5304TIP3    H140107   2.060   0.931  16.777 -0.7193 -0.0491  0.9730
 5304TIP3    H240108   2.195   0.880  16.823 -0.2895 -0.0804 -0.2698
 5305TIP3   OH240109   3.082   6.546  13.735  0.2454  0.0263  0.0271
 5305TIP3    H140110   3.113   6.519  13.649  0.5961  0.7009 -0.0578
 5305TIP3    H240111   3.006   6.602  13.717  1.1741  1.3335  0.0924
 5306TIP3   OH240112   0.360   2.698  14.473 -0.9237 -0.2125  0.3411
 5306TIP3    H140113   0.398   2.729  14.555 -1.8175 -0.8326  1.0177
 5306TIP3    H240114   0.272   2.738  14.470 -0.8535 -0.0850 -0.3866
 5307TIP3   OH240115   4.233   5.886  16.789  0.4201  0.0067  0.5793
 5307TIP3    H140116   4.174   5.941  16.841  1.3423  1.3777  0.2165
 5307TIP3    H240117   4.317   5.889  16.835  0.1328 -2.3837  1.3992
 5308TIP3   OH240118   0.917   4.952  15.982 -0.4271  0.4236 -0.7278
 5308TIP3    H140119   0.886   4.909  15.902  0.7298  1.5298 -1.8296
 5308TIP3    H240120   0.882   5.040  15.977  1.6211  1.2648 -1.3001
 5309TIP3   OH240121   5.794   0.223  16.656 -0.2010  0.9535  0.9586
 5309TIP3    H140122   5.772   0.155  16.720  2.5217 -1.8013 -0.7883
 5309TIP3    H240123   5.724   0.217  16.591  1.1152 -2.0386 -0.3956
 5310TIP3   OH240124   5.913   0.288  15.540  0.6696  0.0079 -0.1531
 5310TIP3    H140125   5.933   0.372  15.499  0.5579 -0.8209 -1.9917
 5310TIP3    H240126   5.999   0.254  15.566  0.7593  0.4654  0.1665
 5311TIP3   OH240127   4.149   0.592  15.639 -0.7446  0.2320  0.2622
 5311TIP3    H140128   4.089   0.547  15.579 -0.4598  2.3614 -1.7825
 5311TIP3    H240129   4.095   0.659  15.680 -0.1072  1.3141 -0.6105
 5312TIP3   OH240130   5.158   2.899  15.593  0.1271 -0.1232  0.5029
 5312TIP3    H140131   5.162   2.979  15.646 -0.3827  0.9303 -1.0059
 5312TIP3    H240132   5.151   2.828  15.658 -0.5103  1.1195  1.8545
 5313TIP3   OH240133   0.883   6.263  16.324 -0.3491  0.0781  0.0715
 5313TIP3    H140134   0.970   6.299  16.303 -0.7527  0.4990 -0.9504
 5313TIP3    H240135   0.893   6.168  16.313  0.0738  0.0887  0.3355
 5314TIP3   OH240136   3.595   4.011  14.644 -0.1027  0.1655  0.3142
 5314TIP3    H140137   3.676   4.036  14.599  0.4869 -0.5393  0.9665
 5314TIP3    H240138   3.534   3.990  14.573  0.6227 -0.3561 -0.1672
 5315TIP3   OH240139   5.088   3.322  15.781  0.4044  0.4590  0.5503
 5315TIP3    H140140   5.133   3.384  15.724 -0.4124 -0.7607 -1.5210
 5315TIP3    H240141   5.142   3.243  15.777 -0.4863 -0.1519  0.1536
 5316TIP3   OH240142   5.284   3.109  16.801 -0.3090 -0.2732 -0.0491
 5316TIP3    H140143   5.358   3.169  16.795 -0.6492  0.1165 -0.4315
 5316TIP3    H240144   5.323   3.022  16.796  0.0728 -0.0619 -0.9074
 5317TIP3   OH240145   1.554   5.495  14.548 -0.2569  0.3668  0.5100
 5317TIP3    H140146   1.594   5.427  14.495  0.9611  1.3846  0.0600
 5317TIP3    H240147   1.627   5.553  14.572 -1.2279  1.4632  0.9317
 5318TIP3   OH240148   2.238   3.647  15.776 -0.2801  0.0867  0.2445
 5318TIP3    H140149   2.156   3.613  15.741 -0.2904 -0.8040  1.0974
 5318TIP3    H240150   2.280   3.690  15.702 -1.8057  1.1300 -0.0654
 5319TIP3   OH240151   1.370   0.359  16.785 -0.3903  0.3206  0.1881
 5319TIP3    H140152   1.380   0.441  16.833 -0.7088  0.6027 -0.2261
 5319TIP3    H240153   1.285   0.325  16.814  0.9017 -1.2772  2.4862
 5320TIP3   OH240154   1.175   4.539  16.270  0.4159 -0.0623 -0.7034
 5320TIP3    H140155   1.115   4.466  16.257 -1.5974  0.6697  3.0216
 5320TIP3    H240156   1.124   4.616  16.246  0.7132  0.4071  0.1356
 5321TIP3   OH240157   5.646   3.619  16.255  0.1522 -0.2482  0.2681
 5321TIP3    H140158   5.718   3.618  16.318  0.1719  1.5198  0.3289
 5321TIP3    H240159   5.687   3.635  16.170 -0.1458  0.6958  0.2919
 5322TIP3   OH240160   1.643   0.691  15.806 -0.0625  0.2435  0.4057
 5322TIP3    H140161   1.688   0.609  15.785 -0.0801  0.0766  0.9862
 5322TIP3    H240162   1.619   0.728  15.721 -2.9417 -1.9407  0.1387
 5323TIP3   OH240163   3.095   0.449  13.587  0.4605  0.1206  0.3049
 5323TIP3    H140164   3.157   0.444  13.514 -0.6177 -1.1813 -0.5795
 5323TIP3    H240165   3.149   0.463  13.664  1.8042 -0.4663 -0.5026
 5324TIP3   OH240166   0.423   5.596  16.473 -0.0040  0.0148  0.3914
 5324TIP3    H140167   0.335   5.562  16.457 -0.3154  0.8594  0.2424
 5324TIP3    H240168   0.409   5.686  16.502  0.8601  0.6368 -0.9998
 5325TIP3   OH240169   0.654   1.577  15.981 -0.1854 -0.9286 -0.1667
 5325TIP3    H140170   0.574   1.627  15.967  0.4112  0.1759  0.2406
 5325TIP3    H240171   0.692   1.568  15.893  0.0343 -0.0714 -0.1691
 5326TIP3   OH240172   5.053   0.906  16.673 -0.4159 -0.2699  0.2505
 5326TIP3    H140173   4.981   0.930  16.732  0.3812  1.4892  0.5708
 5326TIP3    H240174   5.075   0.988  16.628  1.4922 -0.7311  0.2854
 5327TIP3   OH240175   4.757   0.870  16.226  0.2198  0.2431  0.0519
 5327TIP3    H140176   4.839   0.850  16.272  1.1361  0.1381 -1.5508
 5327TIP3    H240177   4.738   0.961  16.249  0.2152 -0.0325  1.2286
 5328TIP3   OH240178   5.220   4.589  16.613  0.5069 -0.1314 -0.3204
 5328TIP3    H140179   5.284   4.532  16.569  2.0497  1.1311  0.1761
 5328TIP3    H240180   5.213   4.665  16.555  0.6820  0.4427  0.4025
 5329TIP3   OH240181   4.218   0.729  14.430 -0.5923 -0.1503  0.0343
 5329TIP3    H140182   4.184   0.688  14.350  1.7804  2.2175 -2.3812
 5329TIP3    H240183   4.153   0.797  14.451 -0.1931  0.6540 -1.2290
 5330TIP3   OH240184   4.821   6.596  14.092 -0.2918 -0.3546 -0.1570
 5330TIP3    H140185   4.765   6.542  14.036 -2.9712  1.6979  0.3403
 5330TIP3    H240186   4.875   6.646  14.031 -1.0104 -0.3634 -0.8178
 5331TIP3   OH240187   6.689   4.876  16.494 -0.0016 -0.1866 -0.4073
 5331TIP3    H140188   6.707   4.949  16.553  0.4463 -0.3796 -0.3006
 5331TIP3    H240189   6.596   4.858  16.506 -0.0549  0.1894 -0.2367
 5332TIP3   OH240190   6.399   1.885  15.676  0.0794 -0.2462  0.0344
 5332TIP3    H140191   6.493   1.869  15.683  0.3772  1.8284  1.7849
 5332TIP3    H240192   6.360   1.822  15.737  0.3183 -0.9659 -0.5363
 5333TIP3   OH240193   1.828   4.087  15.237  0.6122  0.4698  0.0215
 5333TIP3    H140194   1.880   4.159  15.201  1.2331  0.0806  0.1140
 5333TIP3    H240195   1.827   4.021  15.168 -1.2472  1.1557 -0.6639
 5334TIP3   OH240196   0.292   4.950  14.642 -0.3102  0.2627  0.0587
 5334TIP3    H140197   0.385   4.973  14.640  0.0225 -1.0505 -0.6645
 5334TIP3    H240198   0.261   4.985  14.726  1.1903 -0.5818  1.0086
 5335TIP3   OH240199   5.609   3.236  13.731  0.1915 -0.2119  0.2803
 5335TIP3    H140200   5.544   3.270  13.670  0.1822 -0.1790  0.3076
 5335TIP3    H240201   5.588   3.280  13.814 -0.2427 -0.7877  0.4848
 5336TIP3   OH240202   5.665   6.496  15.530  0.1804  0.4827 -0.1728
 5336TIP3    H140203   5.706   6.446  15.601 -1.6014  1.0871  1.3430
 5336TIP3    H240204   5.700   6.584  15.540  0.0216  0.5403 -0.1288
 5337TIP3   OH240205   4.294   2.982  16.597 -0.0805 -0.8585 -0.1636
 5337TIP3    H140206   4.341   3.050  16.645 -1.6224 -0.4983  0.9030
 5337TIP3    H240207   4.273   3.023  16.513  1.6200 -1.0966 -0.7497
 5338TIP3   OH240208   5.458   5.123  16.094 -0.1821 -0.6435  0.2554
 5338TIP3    H140209   5.518   5.059  16.056 -0.9041 -0.9298 -0.4355
 5338TIP3    H240210   5.403   5.151  16.020  1.3403  2.2319  0.0768
 5339TIP3   OH240211   4.298   2.306  14.192 -0.1755 -0.5922 -0.2137
 5339TIP3    H140212   4.349   2.225  14.194 -1.8690 -1.6732  0.8194
 5339TIP3    H240213   4.356   2.371  14.232  0.4572 -1.7579  0.8273
 5340TIP3   OH240214   3.921   0.789  14.226 -0.1855  0.3765  1.2205
 5340TIP3    H140215   3.963   0.812  14.143 -1.9317  1.0951  0.4949
 5340TIP3    H240216   3.911   0.694  14.222 -0.6976  0.4603  0.3868
 5341TIP3   OH240217   3.882   5.433  15.044 -0.3003 -0.2536 -0.0234
 5341TIP3    H140218   3.953   5.458  15.105 -0.7091  1.2535 -0.1177
 5341TIP3    H240219   3.830   5.370  15.093  0.4814 -0.5465  0.4601
 5342TIP3   OH240220   2.006   4.038  16.943  1.0243 -0.2632 -0.1745
 5342TIP3    H140221   1.971   3.951  16.925  1.4149 -0.9380  1.9646
 5342TIP3    H240222   1.955   4.097  16.888  0.5028 -1.8031 -1.3941
 5343TIP3   OH240223   1.071   6.294  16.898  0.3167 -0.5739 -0.6664
 5343TIP3    H140224   1.088   6.248  16.816  1.8734  1.2316 -1.4570
 5343TIP3    H240225   0.979   6.319  16.893 -0.4909 -3.2106 -0.3423
 5344TIP3   OH240226   2.883   3.615  15.565 -0.0808 -0.4192  0.6207
 5344TIP3    H140227   2.975   3.589  15.576  0.0971  0.1725  0.5379
 5344TIP3    H240228   2.835   3.532  15.571  0.4810 -0.7733  0.3605
 5345TIP3   OH240229   3.292   6.078  15.669  0.1778 -0.0399 -0.0136
 5345TIP3    H140230   3.223   6.033  15.621  0.1123  0.4842 -0.4154
 5345TIP3    H240231   3.281   6.048  15.759 -2.1701  1.9205  0.4512
 5346TIP3   OH240232   0.696   4.247  15.896  0.6494 -0.3946  0.3379
 5346TIP3    H140233   0.689   4.169  15.841  0.5944 -0.4404  0.4098
 5346TIP3    H240234   0.769   4.296  15.859  1.3069 -0.9459  0.8710
 5347TIP3   OH240235   5.811   4.619  15.770 -0.0518  0.3501  0.0921
 5347TIP3    H140236   5.874   4.549  15.785 -0.1954  0.3807  0.8854
 5347TIP3    H240237   5.752   4.584  15.703  1.2305  0.6078 -1.2542
 5348TIP3   OH240238   6.005   6.639  17.281  0.0463 -0.6396  0.6569
 5348TIP3    H140239   6.015   6.731  17.256 -2.4195 -0.8652 -1.6842
 5348TIP3    H240240   6.089   6.598  17.261  1.2415  1.0822  1.9096
 5349TIP3   OH240241   1.344   5.405  16.047  0.1604  0.3366  0.5113
 5349TIP3    H140242   1.262   5.423  16.002 -1.0871  0.4833  2.7312
 5349TIP3    H240243   1.406   5.385  15.976 -1.5444  1.0337 -1.2650
 5350TIP3   OH240244   4.298   3.771  16.209  0.0526 -0.0521 -0.5142
 5350TIP3    H140245   4.220   3.809  16.249 -0.1565 -2.5478  1.7353
 5350TIP3    H240246   4.283   3.676  16.211  1.8477 -0.4985 -2.9125
 5351TIP3   OH240247   4.346   0.719  14.942 -0.1791 -0.3466 -0.2763
 5351TIP3    H140248   4.322   0.638  14.988  2.5541 -0.1531  1.7906
 5351TIP3    H240249   4.409   0.690  14.876  0.3505  0.0040  0.0682
 5352TIP3   OH240250   0.681   0.914  14.163  0.4251  0.2232  0.0714
 5352TIP3    H140251   0.698   0.824  14.135  0.9546 -0.1959  1.6480
 5352TIP3    H240252   0.737   0.967  14.107 -0.0175 -0.3970 -0.9883
 5353TIP3   OH240253   1.233   4.054  16.972  0.3882  0.4748  0.1920
 5353TIP3    H140254   1.287   4.022  17.044 -0.2972  1.2854  1.0976
 5353TIP3    H240255   1.161   3.992  16.966  2.0225 -1.3483 -1.8728
 5354TIP3   OH240256   4.261   0.470  15.048  0.3008 -0.2110  1.0653
 5354TIP3    H140257   4.220   0.467  15.134  0.6162 -0.5008  1.2080
 5354TIP3    H240258   4.216   0.403  14.997 -1.3537  1.3666  0.3254
 5355TIP3   OH240259   4.819   4.493  16.602  0.1163 -0.8544  0.2721
 5355TIP3    H140260   4.890   4.538  16.556 -0.7902  0.1882 -0.1667
 5355TIP3    H240261   4.863   4.440  16.669  1.3161 -0.5101 -0.2160
 5356TIP3   OH240262   5.890   3.012  13.475  0.0716  0.4128 -0.3287
 5356TIP3    H140263   5.817   2.984  13.421 -0.2978  0.2038  0.2647
 5356TIP3    H240264   5.943   2.933  13.486  0.1095  0.4378 -0.3345
 5357TIP3   OH240265   6.482   2.805  14.631  0.5911  0.1091  0.3119
 5357TIP3    H140266   6.522   2.743  14.570  0.4811  0.2146  0.1282
 5357TIP3    H240267   6.392   2.814  14.599  0.0005 -1.1678  1.5214
 5358TIP3   OH240268   2.144   1.615  15.576 -0.3238  0.2594 -0.4683
 5358TIP3    H140269   2.229   1.655  15.555  0.3967 -1.0657 -0.1669
 5358TIP3    H240270   2.120   1.652  15.660 -0.2105  0.8874 -0.7030
 5359TIP3   OH240271   0.435   5.177  16.469 -0.1442  0.4354 -0.3583
 5359TIP3    H140272   0.505   5.222  16.515  0.8209 -1.2905 -0.0264
 5359TIP3    H240273   0.460   5.180  16.377  0.8736 -0.8849 -0.1680
 5360TIP3   OH240274   0.639   1.622  17.142  0.5180  0.1328 -0.4024
 5360TIP3    H140275   0.648   1.697  17.200 -1.1751 -0.3234  0.5175
 5360TIP3    H240276   0.545   1.619  17.122  0.8002 -0.8134 -1.6954
 5361TIP3   OH240277   3.568   5.871  15.697  0.2953  0.5820 -0.5497
 5361TIP3    H140278   3.485   5.852  15.653 -1.0489 -0.7379  2.3057
 5361TIP3    H240279   3.566   5.966  15.711 -0.4751  0.6404 -1.0005
 5362TIP3   OH240280   6.010   0.356  13.871 -0.1726  0.0356 -0.1239
 5362TIP3    H140281   6.055   0.327  13.950 -0.9445 -1.7106 -0.2859
 5362TIP3    H240282   6.009   0.279  13.814  1.7505  1.6460 -2.5466
 5363TIP3   OH240283   1.265   4.301  14.288  0.4494  0.1531 -0.1730
 5363TIP3    H140284   1.199   4.368  14.271 -1.9065 -1.3463  2.0945
 5363TIP3    H240285   1.298   4.276  14.202 -1.3372  1.6107 -1.3548
 5364TIP3   OH240286   5.248   1.055  15.224  0.0780  0.1566 -0.2281
 5364TIP3    H140287   5.325   1.087  15.178  0.2975 -1.3934 -1.0099
 5364TIP3    H240288   5.181   1.044  15.156 -0.6330  0.8411  0.3369
 5365TIP3   OH240289   3.599   1.793  15.667  0.2565  0.6962  0.2658
 5365TIP3    H140290   3.572   1.809  15.758  2.0702 -1.5828  1.3145
 5365TIP3    H240291   3.534   1.732  15.633  1.7135 -1.7129  1.5023
 5366TIP3   OH240292   2.177   6.281  14.939  0.0901  0.3454 -0.2267
 5366TIP3    H140293   2.188   6.252  14.848  2.2579  0.2472  0.0226
 5366TIP3    H240294   2.168   6.376  14.933  0.6823  0.3835 -0.5121
 5367TIP3   OH240295   3.661   3.270  15.473 -0.0411  0.7726  0.0517
 5367TIP3    H140296   3.720   3.277  15.548 -1.5589 -0.7973  1.4948
 5367TIP3    H240297   3.662   3.178  15.449  0.6939  1.2947 -2.1795
 5368TIP3   OH240298   6.597   3.615  14.797  0.2691 -0.3355  0.1930
 5368TIP3    H140299   6.570   3.564  14.873  1.1519 -0.0174  0.7383
 5368TIP3    H240300   6.663   3.675  14.831  1.8342 -1.2479 -1.1022
 5369TIP3   OH240301   0.083   0.364  13.976  0.2643 -0.0252 -0.3647
 5369TIP3    H140302   0.073   0.339  13.884  0.3937 -1.8826  0.0690
 5369TIP3    H240303   0.035   0.296  14.024  0.8772  0.4480  0.9717
 5370TIP3   OH240304   5.051   2.692  14.415 -0.2557  0.2866  0.7357
 5370TIP3    H140305   4.979   2.687  14.353 -1.0589 -0.4514  1.6948
 5370TIP3    H240306   5.130   2.695  14.361 -0.9726  0.3730 -0.3166
 5371TIP3   OH240307   6.161   2.141  14.585  0.4089 -0.5769  0.2513
 5371TIP3    H140308   6.208   2.159  14.503  0.6115  0.4715  0.5810
 5371TIP3    H240309   6.227   2.103  14.643  0.6716  0.1958  0.4644
 5372TIP3   OH240310   5.768   0.575  17.171  0.1461 -0.1990 -0.5493
 5372TIP3    H140311   5.858   0.575  17.138  0.5141 -0.7260  0.4147
 5372TIP3    H240312   5.719   0.627  17.107  1.2343  0.5257 -0.8241
 5373TIP3   OH240313   6.175   5.681  14.133 -0.1952 -0.1148  0.3044
 5373TIP3    H140314   6.090   5.723  14.120 -0.4472 -0.4795  0.7565
 5373TIP3    H240315   6.233   5.722  14.068 -1.5188 -2.2252 -2.4497
 5374TIP3   OH240316   2.528   6.346  14.596 -0.1028 -0.4860 -0.7417
 5374TIP3    H140317   2.543   6.426  14.547 -1.0877 -0.0377 -0.3532
 5374TIP3    H240318   2.596   6.346  14.664  0.0633 -0.1108 -0.9071
 5375TIP3   OH240319   0.160   6.549  16.742 -0.5130  0.5111 -0.3023
 5375TIP3    H140320   0.079   6.517  16.703 -0.9633  1.6861 -0.3441
 5375TIP3    H240321   0.222   6.552  16.668  0.0182 -1.6608 -0.0377
 5376TIP3   OH240322   4.821   5.256  16.668  0.1515  0.1569  0.5474
 5376TIP3    H140323   4.792   5.165  16.675  0.1635  0.1755  0.8841
 5376TIP3    H240324   4.816   5.289  16.758 -2.1322  1.1933  0.0981
 5377TIP3   OH240325   1.833   5.646  15.088  0.4423  0.1677  0.3283
 5377TIP3    H140326   1.807   5.694  15.009  0.2226  0.7055  0.7183
 5377TIP3    H240327   1.926   5.629  15.077  0.5800  0.9198  0.2969
 5378TIP3   OH240328   6.425   0.091  14.892  0.1988  0.2211  0.0559
 5378TIP3    H140329   6.469   0.152  14.951  0.9326 -0.5443  0.3296
 5378TIP3    H240330   6.338   0.081  14.929 -0.0087  1.2693 -0.1258
 5379TIP3   OH240331   0.569   5.581  16.853 -0.4130  0.2676 -0.3152
 5379TIP3    H140332   0.641   5.558  16.912 -0.2249  0.5545 -0.4341
 5379TIP3    H240333   0.522   5.499  16.840 -0.4532  0.1994  0.2327
 5380TIP3   OH240334   2.803   6.465  16.106 -0.2753 -0.0022 -0.1427
 5380TIP3    H140335   2.773   6.537  16.050  1.8205  1.2615  0.2428
 5380TIP3    H240336   2.888   6.494  16.139 -0.4530 -1.6311  2.0025
 5381TIP3   OH240337   4.187   2.744  16.663 -0.1073 -0.2911  0.0466
 5381TIP3    H140338   4.247   2.717  16.733 -0.5408 -0.8492  0.2177
 5381TIP3    H240339   4.226   2.823  16.626  0.3288 -0.2120  0.6651
 5382TIP3   OH240340   1.742   1.098  15.015 -0.3703  0.3120 -0.4300
 5382TIP3    H140341   1.736   1.186  15.051 -0.6909 -0.1591  0.7028
 5382TIP3    H240342   1.720   1.109  14.922 -2.5480  1.1365  0.1229
 5383TIP3   OH240343   5.913   1.501  15.991 -0.1002  0.1140  0.2026
 5383TIP3    H140344   5.953   1.453  15.919  0.3572  0.3202  0.3110
 5383TIP3    H240345   5.987   1.543  16.036 -0.3929  0.1093  0.7002
 5384TIP3   OH240346   5.678   1.586  16.572  0.1768 -0.5726  0.2071
 5384TIP3    H140347   5.645   1.517  16.515  0.6240 -0.9751  0.4256
 5384TIP3    H240348   5.695   1.660  16.514  1.7967 -1.3735 -0.4179
 5385TIP3   OH240349   1.684   2.475  14.008 -0.3870  0.1363  0.1278
 5385TIP3    H140350   1.734   2.549  13.974  3.1530 -1.0634  2.1279
 5385TIP3    H240351   1.595   2.508  14.017  0.6033  3.4941 -0.8725
 5386TIP3   OH240352   0.098   4.901  14.097 -0.0859  0.2827  0.2716
 5386TIP3    H140353   0.129   4.917  14.008  0.1544  2.5762  0.7015
 5386TIP3    H240354   0.140   4.819  14.123 -0.1055 -0.3869 -1.6845
 5387TIP3   OH240355   3.530   5.290  15.394  0.1167  0.3792  0.2199
 5387TIP3    H140356   3.609   5.282  15.447  0.3418 -0.7510 -0.2470
 5387TIP3    H240357   3.549   5.362  15.333  0.2045  1.0813  1.0678
 5388TIP3   OH240358   5.630   6.064  14.697  0.3870  0.4345 -0.4105
 5388TIP3    H140359   5.618   6.124  14.624  1.6857 -0.2924 -1.2597
 5388TIP3    H240360   5.706   6.097  14.743  2.3497 -1.5396 -2.0118
 5389TIP3   OH240361   4.704   0.074  14.242  0.7687  0.0076 -0.1659
 5389TIP3    H140362   4.724  -0.018  14.221  0.5922 -0.0202 -0.2144
 5389TIP3    H240363   4.718   0.121  14.160  1.3381  0.1010 -0.0155
 5390TIP3   OH240364   0.526   6.287  16.063 -0.0183 -0.1257  0.3818
 5390TIP3    H140365   0.469   6.212  16.078  0.6387 -0.2311  2.7596
 5390TIP3    H240366   0.588   6.258  15.996 -0.7847 -1.1173  0.0928
 5391TIP3   OH240367   0.606   0.366   7.742  1.0676  0.4462 -0.0685
 5391TIP3    H140368   0.648   0.414   7.813  1.3527  0.7715 -0.4569
 5391TIP3    H240369   0.672   0.304   7.711  0.8820  0.1740  0.0697
 5392TIP3   OH240370   1.906   0.574   7.713  0.3735 -0.1266 -0.0260
 5392TIP3    H140371   1.961   0.637   7.666 -1.1173  0.8240 -0.5462
 5392TIP3    H240372   1.856   0.530   7.644 -3.9651  3.2458  0.5421
 5393TIP3   OH240373   6.668   6.211   7.108  0.1975 -0.0421 -0.0238
 5393TIP3    H140374   6.679   6.251   7.195  1.3643 -2.5149  1.0836
 5393TIP3    H240375   6.589   6.158   7.116 -0.4921  0.8291 -0.9657
 5394TIP3   OH240376   1.486   1.072   7.108 -0.3214  0.2152 -0.2789
 5394TIP3    H140377   1.467   1.043   7.019 -1.5968 -0.8518  0.3127
 5394TIP3    H240378   1.571   1.033   7.128  1.1816  2.4421 -1.8353
 5395TIP3   OH240379   1.819   6.045   8.402  0.0558  0.8185  0.0895
 5395TIP3    H140380   1.902   6.006   8.373 -0.9531 -0.4934 -1.2146
 5395TIP3    H240381   1.775   5.974   8.450 -0.2876  1.5164  0.8182
 5396TIP3   OH240382   5.268   6.444   8.102 -0.4330  0.1371  0.4994
 5396TIP3    H140383   5.261   6.470   8.010 -1.5186 -1.0100  0.2296
 5396TIP3    H240384   5.264   6.526   8.150 -1.1512  0.6682 -0.4275
 5397TIP3   OH240385   3.025   0.099   8.188 -0.4902 -0.4188 -0.1994
 5397TIP3    H140386   2.974   0.062   8.116 -2.0068  1.0624  0.0783
 5397TIP3    H240387   2.962   0.114   8.258  0.4523  0.7521  0.4394
 5398TIP3   OH240388   2.634   4.653   5.829 -0.0883  0.1596  0.3155
 5398TIP3    H140389   2.718   4.698   5.842  0.0524  0.2737 -0.8612
 5398TIP3    H240390   2.651   4.563   5.857  0.7344 -0.0652 -0.8406
 5399TIP3   OH240391   1.012   0.239   6.568 -0.0355  0.4132  0.3595
 5399TIP3    H140392   0.996   0.319   6.618 -1.5995 -0.0461  0.6444
 5399TIP3    H240393   0.932   0.187   6.579  0.8512 -1.0998  0.0028
 5400TIP3   OH240394   5.934   3.324   7.663 -0.3636  0.3041  0.3134
 5400TIP3    H140395   5.945   3.312   7.568 -0.6894  2.0366  0.0199
 5400TIP3    H240396   5.943   3.419   7.676 -0.8729  0.1562  1.9497
 5401TIP3   OH240397   6.092   4.658   7.759 -0.0727  0.0694 -0.6056
 5401TIP3    H140398   6.009   4.681   7.717  0.8025  0.7096 -2.0391
 5401TIP3    H240399   6.154   4.722   7.725  0.6884  0.6802  1.7402
 5402TIP3   OH240400   0.475   3.861   6.684  0.1203  0.4633  0.1268
 5402TIP3    H140401   0.456   3.897   6.771 -1.4506 -1.0650  0.4827
 5402TIP3    H240402   0.543   3.795   6.700  0.2387  0.5807  0.1061
 5403TIP3   OH240403   3.246   4.485   8.388  0.0748  0.0554  0.3690
 5403TIP3    H140404   3.217   4.396   8.365  1.1642  0.1692 -1.7061
 5403TIP3    H240405   3.342   4.479   8.391  0.1117  0.8784  1.6322
 5404TIP3   OH240406   1.749   3.031   8.207  0.1237  0.2406  0.0661
 5404TIP3    H140407   1.766   3.070   8.122  1.3693  0.5578  0.4389
 5404TIP3    H240408   1.828   2.981   8.227  0.2386  0.9150  1.4394
 5405TIP3   OH240409   3.500   6.606   7.207 -0.4147 -0.3009 -0.7114
 5405TIP3    H140410   3.464   6.541   7.147 -0.7908 -1.3226  0.5557
 5405TIP3    H240411   3.465   6.582   7.293 -1.6030  2.3508 -0.3510
 5406TIP3   OH240412   2.626   0.909   6.331 -0.0071 -0.3330  0.2470
 5406TIP3    H140413   2.567   0.963   6.384 -2.2676 -1.9825 -0.4871
 5406TIP3    H240414   2.671   0.854   6.395 -0.5873 -0.3050  0.6923
 5407TIP3   OH240415   3.994   4.152   6.091 -0.4993  0.2091 -0.3244
 5407TIP3    H140416   3.905   4.137   6.122 -0.3773  3.0737  1.8238
 5407TIP3    H240417   4.049   4.117   6.161  0.0435  0.1495 -0.7742
 5408TIP3   OH240418   1.461   1.134   8.278 -0.5611 -0.3142  0.4947
 5408TIP3    H140419   1.511   1.057   8.306 -0.5166 -0.5437 -0.2110
 5408TIP3    H240420   1.425   1.169   8.359  1.2428  0.2148  1.1272
 5409TIP3   OH240421   0.422   2.674   6.940  0.1998  0.0579 -0.1380
 5409TIP3    H140422   0.366   2.751   6.934 -1.0775 -0.8013  0.2240
 5409TIP3    H240423   0.453   2.673   7.031 -0.6860 -0.4305  0.1741
 5410TIP3   OH240424   6.505   0.616   7.298 -0.7111  0.2894 -0.1480
 5410TIP3    H140425   6.495   0.545   7.233  0.0322  0.6330 -0.6469
 5410TIP3    H240426   6.594   0.607   7.330 -0.5658  1.0763 -0.3116
 5411TIP3   OH240427   6.421   6.703   6.626 -0.1543 -0.0313  0.7194
 5411TIP3    H140428   6.405   6.721   6.719 -3.2431  2.3009 -0.1013
 5411TIP3    H240429   6.339   6.667   6.594  0.2367  0.8608 -1.4598
 5412TIP3   OH240430   4.961   4.820   8.041 -0.1441 -0.2532 -0.1550
 5412TIP3    H140431   4.952   4.879   8.116 -0.9481 -1.5624  0.8349
 5412TIP3    H240432   5.020   4.751   8.072  0.6332 -0.0951 -1.2192
 5413TIP3   OH240433   2.936   5.686   8.875  0.4926 -0.0276  0.1030
 5413TIP3    H140434   2.908   5.739   8.949 -4.2517 -1.1054 -0.5758
 5413TIP3    H240435   2.977   5.748   8.815 -2.3906  2.4799  0.4892
 5414TIP3   OH240436   0.509   4.385   5.704  0.3451 -0.3345 -0.0928
 5414TIP3    H140437   0.590   4.334   5.713  0.1862 -0.3504  1.6690
 5414TIP3    H240438   0.486   4.408   5.794 -1.4822 -0.1110 -0.5881
 5415TIP3   OH240439   6.698   4.190   7.981 -0.1399 -0.3511 -0.1164
 5415TIP3    H140440   6.615   4.233   8.004  1.1069  0.0912  4.4018
 5415TIP3    H240441   6.763   4.260   7.983  0.8941 -1.2927  0.2481
 5416TIP3   OH240442   1.860   4.427   6.970  0.7823  0.1334 -0.1121
 5416TIP3    H140443   1.813   4.345   6.962 -1.1982  1.0946  1.0326
 5416TIP3    H240444   1.886   4.432   7.062 -4.7015  3.4384  1.7479
 5417TIP3   OH240445   3.853   1.442   7.237  0.0965 -0.3785  0.1218
 5417TIP3    H140446   3.759   1.436   7.217  0.2637 -1.4805 -0.4066
 5417TIP3    H240447   3.886   1.505   7.173 -0.2595 -0.1039  0.2030
 5418TIP3   OH240448   2.011   4.837   7.922  0.1348  0.6603 -0.8681
 5418TIP3    H140449   1.917   4.840   7.900 -0.1395 -1.2198 -0.0967
 5418TIP3    H240450   2.040   4.751   7.892  1.5573  1.1067 -0.8149
 5419TIP3   OH240451   4.504   2.515   7.310 -0.2334  0.8329  0.4859
 5419TIP3    H140452   4.550   2.495   7.228 -0.6618  1.8310 -0.0069
 5419TIP3    H240453   4.479   2.429   7.344 -0.6176  0.4238 -0.7689
 5420TIP3   OH240454   5.916   2.973   6.184  0.0052 -0.4714 -0.0880
 5420TIP3    H140455   5.869   2.923   6.250 -1.4465 -1.1368 -1.5472
 5420TIP3    H240456   5.848   3.026   6.142  1.2618  1.6549  0.4161
 5421TIP3   OH240457   2.791   5.118   7.972  0.2831 -0.1890  0.5265
 5421TIP3    H140458   2.813   5.211   7.961  1.6737 -0.6880 -1.3401
 5421TIP3    H240459   2.696   5.115   7.959  0.3880  0.8403 -0.7232
 5422TIP3   OH240460   0.315   3.047   6.282 -0.0397  0.0434  0.1095
 5422TIP3    H140461   0.271   2.998   6.351 -1.6132  1.4474  0.1750
 5422TIP3    H240462   0.328   3.134   6.319  0.7662  0.3005 -0.7267
 5423TIP3   OH240463   0.069   3.961   6.661  0.1901  0.3260  0.1005
 5423TIP3    H140464   0.038   3.981   6.749 -1.0896  0.6197 -0.3964
 5423TIP3    H240465   0.088   4.047   6.622  0.2169  0.2335 -0.0928
 5424TIP3   OH240466   1.320   5.154   8.023  0.0451 -0.1487 -0.3116
 5424TIP3    H140467   1.263   5.105   8.083  0.2330  1.2876  1.0903
 5424TIP3    H240468   1.266   5.228   7.994  0.6394  0.2953 -0.2903
 5425TIP3   OH240469   0.871   2.353   8.329  0.1194  0.1867 -0.2937
 5425TIP3    H140470   0.961   2.320   8.341 -0.0993 -0.2706  0.1503
 5425TIP3    H240471   0.875   2.443   8.360  0.4587  0.2102 -0.3964
 5426TIP3   OH240472   4.945   1.943   7.560 -0.4223 -0.3557  0.3014
 5426TIP3    H140473   4.902   2.023   7.592 -1.2080 -0.2596 -0.9321
 5426TIP3    H240474   5.031   1.945   7.601 -0.8222  0.5541  1.1646
 5427TIP3   OH240475   0.529   1.828   8.080  0.4094  0.4163 -0.1281
 5427TIP3    H140476   0.621   1.829   8.055  0.5317 -2.1320 -0.0897
 5427TIP3    H240477   0.528   1.785   8.166 -0.6376  2.5310  0.9807
 5428TIP3   OH240478   0.866   4.934   6.314 -0.4193 -0.1267  0.0306
 5428TIP3    H140479   0.881   4.859   6.256  1.3465 -1.4774  2.0801
 5428TIP3    H240480   0.841   5.005   6.255 -0.8874 -1.9604 -2.1360
 5429TIP3   OH240481   1.281   3.608   5.759  0.5106 -0.7263 -0.2101
 5429TIP3    H140482   1.323   3.689   5.733 -1.1675 -0.3904 -2.1231
 5429TIP3    H240483   1.188   3.629   5.764  0.3060 -1.8619  2.1249
 5430TIP3   OH240484   5.203   6.168   8.118  0.2304 -0.5125  0.3942
 5430TIP3    H140485   5.259   6.245   8.116 -1.4318  0.7736  1.0306
 5430TIP3    H240486   5.121   6.197   8.077  0.1595 -2.4742 -0.9956
 5431TIP3   OH240487   2.099   0.130   5.830 -0.0707 -0.8067 -0.3240
 5431TIP3    H140488   2.035   0.196   5.804  0.4679 -0.2409 -0.2710
 5431TIP3    H240489   2.070   0.049   5.788 -1.2502 -0.7479  0.3371
 5432TIP3   OH240490   0.242   5.553   8.505  0.1472  0.1841  0.0643
 5432TIP3    H140491   0.302   5.516   8.570 -0.3315 -0.3219  0.2245
 5432TIP3    H240492   0.251   5.648   8.516 -0.7921  0.1200  1.7044
 5433TIP3   OH240493   1.404   0.521   6.764  0.5838  0.4857 -0.4820
 5433TIP3    H140494   1.437   0.441   6.806  0.9177  0.4404 -0.8188
 5433TIP3    H240495   1.309   0.510   6.763  0.5748  0.4473  0.1767
 5434TIP3   OH240496   5.773   0.875   7.494 -0.2048  0.3090  0.1147
 5434TIP3    H140497   5.694   0.838   7.454 -0.4655 -0.8911  1.6499
 5434TIP3    H240498   5.841   0.811   7.474  0.2395  1.0035 -0.6190
 5435TIP3   OH240499   3.794   5.627   5.739  0.3553 -0.2268  0.2959
 5435TIP3    H140500   3.827   5.539   5.760  1.3610  0.1327  0.2660
 5435TIP3    H240501   3.751   5.616   5.654  0.1353 -0.7706  0.4743
 5436TIP3   OH240502   4.310   6.699   6.416 -0.2739  0.1764  0.1609
 5436TIP3    H140503   4.390   6.691   6.466 -0.6279 -1.1886  0.5298
 5436TIP3    H240504   4.334   6.673   6.327 -0.6923 -2.1300  0.6687
 5437TIP3   OH240505   5.150   4.744   8.450 -0.0410  0.2149 -0.0268
 5437TIP3    H140506   5.192   4.786   8.375  1.0190  2.5421  1.7153
 5437TIP3    H240507   5.104   4.815   8.495  0.6394 -0.7152  2.3197
 5438TIP3   OH240508   3.251   4.088   6.596 -0.1923 -0.1917  1.1670
 5438TIP3    H140509   3.189   4.159   6.582  0.7656  0.5868  0.7289
 5438TIP3    H240510   3.268   4.053   6.509  0.0445 -0.3443  1.2747
 5439TIP3   OH240511   1.840   2.213   8.334 -0.4421 -0.2881 -0.3851
 5439TIP3    H140512   1.833   2.117   8.327  0.4528 -0.2576 -3.2650
 5439TIP3    H240513   1.886   2.228   8.416 -0.1889 -2.3646 -0.0909
 5440TIP3   OH240514   5.063   3.581   6.749  0.1584 -0.2913  0.3982
 5440TIP3    H140515   5.131   3.535   6.799 -0.5131 -0.3305  1.3069
 5440TIP3    H240516   5.105   3.604   6.666  1.0115 -1.0826  0.5940
 5441TIP3   OH240517   2.198   1.935   7.183 -0.5022  0.4527  0.4346
 5441TIP3    H140518   2.191   1.977   7.097 -1.4217 -2.7136 -1.1820
 5441TIP3    H240519   2.291   1.916   7.193 -0.7088 -2.3988 -1.7164
 5442TIP3   OH240520   0.978   4.475   7.256 -0.3470  0.3471 -0.1612
 5442TIP3    H140521   0.911   4.482   7.188  0.1004  0.3397 -0.6087
 5442TIP3    H240522   1.044   4.418   7.218  0.3316  1.0591 -0.0687
 5443TIP3   OH240523   2.174   1.080   6.793 -0.4018 -0.2616  0.3101
 5443TIP3    H140524   2.254   1.033   6.816 -0.5324 -0.2223  0.8476
 5443TIP3    H240525   2.117   1.070   6.869 -0.6386  0.3110  0.2157
 5444TIP3   OH240526   3.339   3.351   8.728 -0.1474  1.1913 -0.2474
 5444TIP3    H140527   3.396   3.316   8.659  0.8324  1.3135  0.4689
 5444TIP3    H240528   3.265   3.290   8.731  0.3572  0.5370 -0.6442
 5445TIP3   OH240529   0.197   1.264   7.474 -0.5069  0.3789  0.0374
 5445TIP3    H140530   0.197   1.285   7.568  0.1868 -0.5014  0.2474
 5445TIP3    H240531   0.275   1.308   7.440 -0.3257  0.0595  0.0324
 5446TIP3   OH240532   3.898   0.788   8.243  0.1356  0.4249  0.3006
 5446TIP3    H140533   3.889   0.697   8.214  0.6597  0.3085  0.5087
 5446TIP3    H240534   3.989   0.796   8.270  0.1573  1.0821  0.0452
 5447TIP3   OH240535   6.108   0.440   7.864 -0.1682 -0.3596 -0.2812
 5447TIP3    H140536   6.173   0.491   7.815 -0.0009  0.4573  0.7702
 5447TIP3    H240537   6.042   0.416   7.798  0.3845  0.1495 -1.0368
 5448TIP3   OH240538   1.000   4.961   7.628  0.1637 -0.0448  0.4020
 5448TIP3    H140539   1.069   4.896   7.611  0.5923  0.5176 -0.0716
 5448TIP3    H240540   1.038   5.044   7.597 -0.9760  0.1661 -0.4887
 5449TIP3   OH240541   5.833   4.826   6.259 -0.4602  0.0800 -0.3718
 5449TIP3    H140542   5.857   4.768   6.187 -1.7053 -0.9956  0.0391
 5449TIP3    H240543   5.759   4.783   6.300  0.5875  0.3656  1.9431
 5450TIP3   OH240544   3.354   0.813   8.685 -0.7279 -0.6255 -0.4151
 5450TIP3    H140545   3.401   0.773   8.612  1.4099  0.4135  0.3258
 5450TIP3    H240546   3.386   0.903   8.688 -0.1107 -0.8629  2.3018
 5451TIP3   OH240547   0.178   1.177   6.248  0.3201  0.2593  0.4780
 5451TIP3    H140548   0.086   1.168   6.223  0.8274 -1.2009 -0.9927
 5451TIP3    H240549   0.198   1.269   6.232  0.0698 -0.1570 -2.8000
 5452TIP3   OH240550   6.579   0.896   9.461 -0.0325  0.1707  0.0144
 5452TIP3    H140551   6.664   0.910   9.503  0.0622  0.5883 -0.3072
 5452TIP3    H240552   6.584   0.947   9.380 -0.2182 -0.6051 -0.4999
 5453TIP3   OH240553   5.392   0.428   5.667 -0.3405 -0.5092  0.3693
 5453TIP3    H140554   5.310   0.469   5.643  0.6191 -0.2732 -3.2364
 5453TIP3    H240555   5.452   0.500   5.685  0.6034 -0.1544 -3.2720
 5454TIP3   OH240556   2.398   6.088   7.346 -0.3459 -0.5568  0.1890
 5454TIP3    H140557   2.384   6.115   7.437  2.1694 -0.6770  0.6806
 5454TIP3    H240558   2.484   6.123   7.324 -0.8157 -0.7099 -2.1175
 5455TIP3   OH240559   2.858   6.094   8.742  0.1888 -0.2105  0.1253
 5455TIP3    H140560   2.907   6.078   8.822 -0.9173  1.1629  1.1129
 5455TIP3    H240561   2.857   6.009   8.697  2.5757 -0.5285  0.5175
 5456TIP3   OH240562   0.199   0.439   6.770  0.6419  0.0513 -0.7052
 5456TIP3    H140563   0.190   0.446   6.675 -0.4296 -1.2017 -0.7343
 5456TIP3    H240564   0.187   0.528   6.802  2.1268  0.6946 -1.7884
 5457TIP3   OH240565   1.933   4.848   7.119  0.3678 -0.4681 -0.0097
 5457TIP3    H140566   1.990   4.866   7.193 -1.2778 -0.8251  1.4267
 5457TIP3    H240567   1.870   4.920   7.119 -0.5804 -1.2694 -0.0721
 5458TIP3   OH240568   0.708   6.167   7.787  0.8375 -0.2948 -0.2323
 5458TIP3    H140569   0.620   6.174   7.751  0.2439  2.0958  1.4948
 5458TIP3    H240570   0.707   6.086   7.838 -0.7408  0.2830  0.7075
 5459TIP3   OH240571   6.444   1.144   7.454 -0.2366  0.9016  0.4272
 5459TIP3    H140572   6.498   1.069   7.427 -1.3151  0.3650 -0.3079
 5459TIP3    H240573   6.384   1.107   7.520  1.2856  1.8411  2.4508
 5460TIP3   OH240574   0.138   4.975   6.056  0.1954 -0.0999 -0.0158
 5460TIP3    H140575   0.121   4.881   6.059  2.0693 -0.4603  0.0303
 5460TIP3    H240576   0.216   4.984   6.001  0.1552  1.4140  0.1325
 5461TIP3   OH240577   5.477   6.042   6.514  0.6061  0.0359 -0.4021
 5461TIP3    H140578   5.534   6.107   6.474  0.8430  1.0118  1.4071
 5461TIP3    H240579   5.533   5.966   6.530  1.5963  1.1163  1.7038
 5462TIP3   OH240580   4.281   5.103   7.241  0.0968 -0.2810 -0.2858
 5462TIP3    H140581   4.204   5.059   7.278  0.7216 -2.3307 -1.2668
 5462TIP3    H240582   4.284   5.187   7.286 -1.7959 -0.7924  0.9363
 5463TIP3   OH240583   2.911   0.683   8.343  0.2814  0.1988 -0.0158
 5463TIP3    H140584   2.819   0.706   8.353  0.3772 -0.0333  1.8632
 5463TIP3    H240585   2.956   0.766   8.333  0.0848  0.4888  1.3812
 5464TIP3   OH240586   1.732   3.813   9.113 -0.0328  0.1530 -0.4852
 5464TIP3    H140587   1.660   3.857   9.159  0.4126  0.3611  0.0205
 5464TIP3    H240588   1.802   3.878   9.110  1.1357 -0.9437  1.4635
 5465TIP3   OH240589   3.271   6.292   5.774 -0.4619 -0.2518  0.1849
 5465TIP3    H140590   3.222   6.362   5.730 -0.0845  1.2616  2.0399
 5465TIP3    H240591   3.310   6.242   5.702  0.0241  1.9974 -1.2496
 5466TIP3   OH240592   2.223   5.116   5.301  0.0771 -0.1337  0.1955
 5466TIP3    H140593   2.147   5.158   5.340  0.5862  0.3679  0.6546
 5466TIP3    H240594   2.224   5.149   5.211 -0.6846 -0.7453 -0.0555
 5467TIP3   OH240595   5.295   4.603   8.632  0.1231  0.9653  0.6978
 5467TIP3    H140596   5.234   4.652   8.577 -0.2765 -1.1001 -0.8433
 5467TIP3    H240597   5.238   4.548   8.686  0.5838  1.0471  1.2751
 5468TIP3   OH240598   0.836   4.141   7.356 -0.2397 -0.7926 -0.0751
 5468TIP3    H140599   0.744   4.151   7.331 -0.2661 -2.2371 -0.6574
 5468TIP3    H240600   0.834   4.082   7.432 -0.0026  1.9229  2.2073
 5469TIP3   OH240601   6.615   4.597   7.769  0.0567 -0.1271 -0.0680
 5469TIP3    H140602   6.581   4.508   7.761  1.1801 -0.4387 -2.1701
 5469TIP3    H240603   6.707   4.586   7.793  0.7634  0.3143 -2.3350
 5470TIP3   OH240604   0.430   0.420   7.999  0.2201  0.4270  0.3966
 5470TIP3    H140605   0.341   0.403   8.030 -1.2734  0.2400 -3.4415
 5470TIP3    H240606   0.427   0.400   7.905  4.2971  0.6132  0.0354
 5471TIP3   OH240607   4.934   3.126   7.545  0.2110 -0.2443  0.3592
 5471TIP3    H140608   4.924   3.219   7.528  0.4726 -0.4568 -1.0704
 5471TIP3    H240609   4.893   3.083   7.470 -2.2031 -1.3574  2.1403
 5472TIP3   OH240610   5.429   2.935   8.327 -0.1068 -0.1418 -0.0855
 5472TIP3    H140611   5.421   2.999   8.257 -0.0498  0.6127  0.5784
 5472TIP3    H240612   5.341   2.898   8.336 -0.8875  1.9087  1.4121
 5473TIP3   OH240613   6.525   0.226   5.937  0.2631  0.4038 -0.0621
 5473TIP3    H140614   6.452   0.188   5.986  1.8602  0.0381  2.2314
 5473TIP3    H240615   6.526   0.318   5.961 -0.5626  0.8659 -1.6447
 5474TIP3   OH240616   4.096   5.253   8.483 -0.1540  0.0007  0.2698
 5474TIP3    H140617   4.125   5.213   8.401  0.7917 -1.0085  1.0662
 5474TIP3    H240618   4.134   5.340   8.482  0.1787 -0.1442 -0.1895
 5475TIP3   OH240619   6.632   2.240   6.464  0.1980  0.2430  0.6784
 5475TIP3    H140620   6.632   2.329   6.429  1.9458 -0.4009 -1.1435
 5475TIP3    H240621   6.649   2.251   6.557 -0.6050  1.8441  0.6652
 5476TIP3   OH240622   6.649   2.772   7.272  0.1148  0.1659  0.2183
 5476TIP3    H140623   6.717   2.810   7.217 -0.6050  1.0917 -0.0414
 5476TIP3    H240624   6.578   2.749   7.212 -0.0947 -0.1520  0.5765
 5477TIP3   OH240625   2.432   5.582   8.845  0.3520 -0.4997 -0.0703
 5477TIP3    H140626   2.357   5.539   8.888  0.3811 -0.4589  0.0215
 5477TIP3    H240627   2.493   5.511   8.827  0.5686 -0.4426  0.4309
 5478TIP3   OH240628   5.544   3.290   7.114 -0.1153  0.6971  0.1120
 5478TIP3    H140629   5.531   3.245   7.197 -0.0952 -0.4315 -0.4727
 5478TIP3    H240630   5.582   3.374   7.137  0.4492  0.1578  1.2044
 5479TIP3   OH240631   0.991   6.651   6.122 -0.8979  0.1467 -0.4792
 5479TIP3    H140632   0.984   6.600   6.202 -0.3135 -1.4340 -1.3804
 5479TIP3    H240633   0.919   6.713   6.126 -2.0548 -1.1949  0.3612
 5480TIP3   OH240634   0.027   5.402   7.869 -0.0367  0.0501 -0.0893
 5480TIP3    H140635   0.056   5.484   7.909  1.5794 -0.9968  1.0104
 5480TIP3    H240636  -0.052   5.426   7.820  0.1078  2.1476  0.5917
 5481TIP3   OH240637   1.497   0.148   6.454 -0.2053 -0.1086  0.4914
 5481TIP3    H140638   1.508   0.187   6.367 -0.7146 -1.0285 -0.0036
 5481TIP3    H240639   1.446   0.212   6.503 -2.4833 -0.7876 -0.8216
 5482TIP3   OH240640   6.497   5.975   5.888  0.4746  0.4792 -0.3402
 5482TIP3    H140641   6.521   6.065   5.865  1.4778  0.2223 -0.3646
 5482TIP3    H240642   6.561   5.921   5.841 -0.2789 -0.2636 -0.5411
 5483TIP3   OH240643   2.258   1.900   9.311  0.1776  0.3333 -0.1500
 5483TIP3    H140644   2.262   1.980   9.258 -0.9282  0.2464 -0.3892
 5483TIP3    H240645   2.227   1.833   9.250  0.9872 -0.2700  0.0749
 5484TIP3   OH240646   1.104   6.025   6.657 -0.0237 -0.3060 -0.2877
 5484TIP3    H140647   1.081   6.022   6.750 -1.5983 -4.0629 -0.6312
 5484TIP3    H240648   1.046   6.091   6.621  0.6991  1.3194  1.3515
 5485TIP3   OH240649   6.604   1.190   7.156 -0.2470  0.1561 -0.0235
 5485TIP3    H140650   6.530   1.130   7.154 -0.8875  0.9198  0.0968
 5485TIP3    H240651   6.575   1.265   7.103  0.9309 -0.0769 -1.0462
 5486TIP3   OH240652   2.790   1.805   8.631 -0.2589 -0.4745  0.4416
 5486TIP3    H140653   2.804   1.836   8.720  0.1202 -1.9286  0.9149
 5486TIP3    H240654   2.831   1.718   8.629 -2.4880 -1.5905 -0.4022
 5487TIP3   OH240655   0.173   0.009   6.169 -0.2921 -0.8675 -0.0075
 5487TIP3    H140656   0.167   0.037   6.260  0.3027 -1.1836  0.1349
 5487TIP3    H240657   0.120  -0.070   6.164 -0.9717 -0.4099 -0.1240
 5488TIP3   OH240658   2.360   6.448   7.657 -0.3059 -0.0216  0.2420
 5488TIP3    H140659   2.267   6.430   7.650  0.1517 -2.5658 -0.4737
 5488TIP3    H240660   2.396   6.370   7.699  1.6536  0.2809 -0.7448
 5489TIP3   OH240661   6.319   6.294   7.629 -0.0411  0.2193  0.3331
 5489TIP3    H140662   6.302   6.313   7.721  0.9081  0.9478  0.3717
 5489TIP3    H240663   6.385   6.358   7.603  1.0605 -1.1375 -0.3529
 5490TIP3   OH240664   0.615   2.405   7.163 -0.4443 -0.2378  0.6008
 5490TIP3    H140665   0.654   2.338   7.218 -0.4053 -0.7403 -0.0275
 5490TIP3    H240666   0.522   2.402   7.183 -0.5146 -0.8370  0.2020
 5491TIP3   OH240667   0.341   6.466   6.575 -0.5895 -0.7475 -0.1262
 5491TIP3    H140668   0.319   6.507   6.658 -2.3259  0.8632 -1.2839
 5491TIP3    H240669   0.436   6.459   6.575 -0.3721  1.3859  1.0439
 5492TIP3   OH240670   3.435   2.933   7.388  0.4384  0.5306 -0.3062
 5492TIP3    H140671   3.467   2.848   7.418 -1.8364 -0.9469 -1.7841
 5492TIP3    H240672   3.348   2.941   7.426  0.0385  1.5157 -1.3762
 5493TIP3   OH240673   3.048   2.850   6.989 -0.2718 -0.2455 -0.0684
 5493TIP3    H140674   3.138   2.848   7.021 -0.0842 -0.5544 -0.6015
 5493TIP3    H240675   3.008   2.925   7.035  0.3067  0.0108  0.0296
 5494TIP3   OH240676   1.346   0.726   5.958 -0.0933 -0.0799 -0.2856
 5494TIP3    H140677   1.318   0.648   5.910 -3.2893  1.0973 -0.5683
 5494TIP3    H240678   1.439   0.735   5.937 -0.4925 -1.7151 -3.2900
 5495TIP3   OH240679   1.245   2.378   7.406 -0.2453  0.9702  0.9494
 5495TIP3    H140680   1.282   2.372   7.494  0.9166 -0.4389  0.4222
 5495TIP3    H240681   1.290   2.452   7.366  0.6578  0.4410  0.9446
 5496TIP3   OH240682   0.996   4.448   6.359 -0.5612  0.2495  0.2619
 5496TIP3    H140683   0.957   4.428   6.274  0.7565  0.1420 -0.3375
 5496TIP3    H240684   1.021   4.540   6.352  0.7319 -0.1001  0.0313
 5497TIP3   OH240685   2.718   1.646   5.837 -0.3492  0.0315 -0.0454
 5497TIP3    H140686   2.635   1.693   5.826 -0.8149  0.0365  2.6738
 5497TIP3    H240687   2.784   1.704   5.798 -1.4842  0.4772 -1.3743
 5498TIP3   OH240688   0.059   0.429   6.413 -0.1909  0.7110 -0.5108
 5498TIP3    H140689   0.142   0.405   6.371  1.0359  0.4321  1.8838
 5498TIP3    H240690   0.006   0.349   6.410  0.7555  0.0259  0.3850
 5499TIP3   OH240691   5.816   6.747   7.835 -0.0745  0.2453 -0.0048
 5499TIP3    H140692   5.894   6.724   7.783 -0.4141  1.8486 -1.3166
 5499TIP3    H240693   5.840   6.828   7.879 -0.3309 -0.3195  1.2131
 5500TIP3   OH240694   6.194   4.848   9.378 -0.0059 -0.1121  0.0650
 5500TIP3    H140695   6.270   4.906   9.391 -0.3147  0.5914 -1.1548
 5500TIP3    H240696   6.125   4.888   9.431 -0.3122  0.8452 -1.0331
 5501TIP3   OH240697   0.086   4.900   8.374  0.1530  0.2100  0.3387
 5501TIP3    H140698   0.092   4.805   8.388 -0.6046 -0.3741 -2.5488
 5501TIP3    H240699   0.026   4.909   8.300  3.7019  2.5408 -2.6466
 5502TIP3   OH240700   2.765   0.655   7.867 -0.4299  0.2970 -0.5973
 5502TIP3    H140701   2.746   0.746   7.889 -1.2426 -0.1603  0.7601
 5502TIP3    H240702   2.854   0.640   7.898 -0.9978  0.1136  1.0643
 5503TIP3   OH240703   4.024   5.088   8.221  0.1786 -0.4912 -0.1393
 5503TIP3    H140704   3.998   5.054   8.135  1.4770 -0.8561 -0.3975
 5503TIP3    H240705   4.019   5.012   8.279  2.4204 -1.0454 -0.5783
 5504TIP3   OH240706   0.814   0.091   8.315  0.0996  0.6726 -0.2594
 5504TIP3    H140707   0.721   0.072   8.298 -0.4907  2.0466  1.2591
 5504TIP3    H240708   0.828   0.177   8.276  0.7608  0.4721 -0.4776
 5505TIP3   OH240709   2.858   0.730   6.098 -0.2088  0.5428  0.5959
 5505TIP3    H140710   2.779   0.773   6.066  0.0092  0.6956  0.2549
 5505TIP3    H240711   2.833   0.639   6.111  0.3365 -0.1478 -2.5010
 5506TIP3   OH240712   0.844   1.477   6.759 -0.1627 -0.3358  0.1377
 5506TIP3    H140713   0.784   1.541   6.719 -0.2693  1.4701  2.9121
 5506TIP3    H240714   0.930   1.502   6.728 -0.0395  2.1508  2.1809
 5507TIP3   OH240715   6.182   6.018   7.707 -0.4867 -0.0182 -0.0900
 5507TIP3    H140716   6.215   6.047   7.792  0.3541 -1.3568  0.0621
 5507TIP3    H240717   6.087   6.016   7.717 -0.4399  0.6349  0.5437
 5508TIP3   OH240718   2.752   0.161   6.012 -0.3444 -0.2958 -0.8648
 5508TIP3    H140719   2.826   0.212   5.979 -1.3984  0.8519 -1.5551
 5508TIP3    H240720   2.788   0.109   6.083  0.5513  2.4774  0.8609
 5509TIP3   OH240721   4.418   3.546   6.358 -0.0205 -0.2601  0.5700
 5509TIP3    H140722   4.327   3.577   6.363 -0.0068 -0.1276  0.0881
 5509TIP3    H240723   4.462   3.613   6.305  0.0098 -1.0939 -0.4973
 5510TIP3   OH240724   2.193   5.810   5.968  0.1530 -0.0892 -0.0514
 5510TIP3    H140725   2.241   5.852   6.039  0.5175  0.1864 -0.4573
 5510TIP3    H240726   2.186   5.877   5.901  0.3665 -0.5461 -0.5343
 5511TIP3   OH240727   0.421   2.671   7.824 -0.0487  0.2625 -0.0961
 5511TIP3    H140728   0.373   2.705   7.749 -0.6798  0.4955  0.4026
 5511TIP3    H240729   0.402   2.733   7.895 -1.4367 -1.2151  0.9017
 5512TIP3   OH240730   3.984   6.343   6.983  0.0866 -0.2781  0.6141
 5512TIP3    H140731   3.962   6.387   6.901  0.5721 -2.2132 -0.6174
 5512TIP3    H240732   3.900   6.333   7.029 -0.0139  2.0338  1.0583
 5513TIP3   OH240733   4.178   6.296   7.410  0.3146 -0.0996  0.4048
 5513TIP3    H140734   4.187   6.389   7.433  1.4151  0.6864 -2.6535
 5513TIP3    H240735   4.269   6.265   7.400 -0.0488 -1.1967  0.3437
 5514TIP3   OH240736   1.108   3.774   9.016  0.3305 -0.1998 -0.7413
 5514TIP3    H140737   1.173   3.817   9.070  0.0689  0.1830 -0.7297
 5514TIP3    H240738   1.034   3.758   9.075  0.1981 -0.1362 -0.8895
 5515TIP3   OH240739   2.376   6.233   6.466  0.0654 -0.2842  0.5383
 5515TIP3    H140740   2.335   6.244   6.381 -2.2872 -3.2331  1.1135
 5515TIP3    H240741   2.329   6.294   6.523 -1.5200 -1.4674  0.5573
 5516TIP3   OH240742   0.529   2.337   6.127  0.8641  0.3661  0.0922
 5516TIP3    H140743   0.589   2.291   6.186 -0.2053  1.2835  1.9654
 5516TIP3    H240744   0.473   2.268   6.091  1.7879 -0.2497 -0.1988
 5517TIP3   OH240745   0.162   0.904  15.122  0.1114  0.8086  0.5326
 5517TIP3    H140746   0.220   0.913  15.197  0.6506  1.3654  0.0603
 5517TIP3    H240747   0.139   0.995  15.099  1.6763  0.8048 -1.2853
 5518TIP3   OH240748   3.121   3.747   8.816  0.2447 -0.1947  0.2798
 5518TIP3    H140749   3.195   3.703   8.859 -0.2921 -0.3652  1.0386
 5518TIP3    H240750   3.155   3.834   8.796  1.1897 -0.8015 -0.8934
 5519TIP3   OH240751   3.898   0.281   8.082  0.2081  0.2232 -0.1980
 5519TIP3    H140752   3.963   0.346   8.111  0.3094  0.1212 -0.1946
 5519TIP3    H240753   3.874   0.233   8.161 -0.1691  0.5222 -0.1292
 5520TIP3   OH240754   2.439   5.037   5.722  0.5815  0.2875  0.1040
 5520TIP3    H140755   2.440   5.037   5.818 -1.5720  0.4819  0.1923
 5520TIP3    H240756   2.466   4.949   5.697 -0.1421 -0.1953  0.9623
 5521TIP3   OH240757   3.007   6.250   8.539 -0.6088  0.0915 -0.2927
 5521TIP3    H140758   3.047   6.337   8.543  0.5946 -0.4845  2.2032
 5521TIP3    H240759   2.980   6.232   8.629  0.2473 -2.5794 -0.4818
 5522TIP3   OH240760   6.723   4.895   7.300  0.0616 -0.0286 -0.2137
 5522TIP3    H140761   6.766   4.978   7.316 -0.3089  0.1772 -0.2737
 5522TIP3    H240762   6.657   4.914   7.234 -0.0794 -0.3522 -0.1699
 5523TIP3   OH240763   4.985   2.189   7.763  0.9628 -0.6404 -0.1692
 5523TIP3    H140764   5.028   2.106   7.787  1.7401 -0.2387 -0.1252
 5523TIP3    H240765   5.058   2.246   7.738  0.6967  0.8331  2.1457
 5524TIP3   OH240766   1.377   2.292   5.875  0.5431 -0.5606  0.9508
 5524TIP3    H140767   1.354   2.333   5.792  0.8180  0.4852  1.3758
 5524TIP3    H240768   1.302   2.309   5.932 -0.1634 -2.2880  0.6027
 5525TIP3   OH240769   0.657   5.105   6.478  0.2507 -0.1534  0.2191
 5525TIP3    H140770   0.581   5.047   6.488  0.9969 -0.9926  1.2608
 5525TIP3    H240771   0.686   5.090   6.388  0.5627 -1.6204  0.5261
 5526TIP3   OH240772   4.644   5.409   6.059  0.2547  0.2218  0.4209
 5526TIP3    H140773   4.619   5.443   5.973  0.5940  0.8789  0.5734
 5526TIP3    H240774   4.733   5.378   6.048  0.8388  1.6508  0.8775
 5527TIP3   OH240775   3.662   1.113   7.404 -0.3776 -0.1458 -0.1824
 5527TIP3    H140776   3.742   1.121   7.353 -0.5175  1.8207 -0.1596
 5527TIP3    H240777   3.667   1.026   7.443  2.2600  0.2897  0.6560
 5528TIP3   OH240778   4.369   5.673   8.042 -0.2314 -0.1164 -0.2290
 5528TIP3    H140779   4.388   5.767   8.046  1.9918 -0.3214 -2.9215
 5528TIP3    H240780   4.285   5.667   7.996  0.2986  0.5197 -1.2841
 5529TIP3   OH240781   0.086   5.041  16.685  0.2826 -0.8478  0.2767
 5529TIP3    H140782   0.076   5.129  16.722  1.3612 -0.4933 -0.2352
 5529TIP3    H240783   0.062   4.982  16.756 -0.1043 -0.1447  0.7375
 5530TIP3   OH240784   1.131   1.455   6.670 -0.3893 -0.2037 -0.2901
 5530TIP3    H140785   1.215   1.433   6.629  0.2028  1.2453  0.0975
 5530TIP3    H240786   1.153   1.472   6.762 -1.3400 -1.1537  0.1361
 5531TIP3   OH240787   2.397   2.882   8.391 -0.0463 -0.3324 -0.2880
 5531TIP3    H140788   2.336   2.956   8.394  0.2251 -0.1478  1.1578
 5531TIP3    H240789   2.381   2.834   8.472  0.8610 -0.9994 -0.4865
 5532TIP3   OH240790   1.912   3.495   5.884 -0.0984  0.3942 -0.1025
 5532TIP3    H140791   1.929   3.402   5.868 -0.2756  0.2586  0.4928
 5532TIP3    H240792   1.953   3.539   5.809  1.4643 -0.0380  0.4581
 5533TIP3   OH240793   4.940   5.504   5.762 -0.0030 -0.0512  0.0804
 5533TIP3    H140794   4.856   5.496   5.716 -0.0819  0.5768  0.1035
 5533TIP3    H240795   4.928   5.579   5.821 -0.0817 -1.1748  1.5394
 5534TIP3   OH240796   4.298   0.760   8.859 -0.4736 -0.5008  0.4357
 5534TIP3    H140797   4.364   0.774   8.791 -0.8761 -0.2514  0.0950
 5534TIP3    H240798   4.306   0.837   8.916 -0.5845 -0.3846  0.2960
 5535TIP3   OH240799   0.491   4.716   7.622 -0.6329  0.0101 -0.4113
 5535TIP3    H140800   0.580   4.751   7.620  1.0268 -3.5655  0.8254
 5535TIP3    H240801   0.452   4.744   7.540  2.3369  0.1926 -1.8847
 5536TIP3   OH240802   3.833   3.324   5.782 -0.3956  0.4147 -0.3229
 5536TIP3    H140803   3.920   3.304   5.748  0.0879  1.1387  0.4524
 5536TIP3    H240804   3.838   3.305   5.876 -1.4136 -0.5926 -0.4384
 5537TIP3   OH240805   0.361   0.948   6.842 -0.0868 -0.4381 -0.4481
 5537TIP3    H140806   0.413   1.024   6.865 -1.1958  0.4423 -0.7707
 5537TIP3    H240807   0.274   0.966   6.877  0.2416 -2.8133  1.9823
 5538TIP3   OH240808   2.383   4.893   5.296  0.0746 -0.3668 -0.0186
 5538TIP3    H140809   2.316   4.845   5.344  0.1249 -1.1093 -0.6859
 5538TIP3    H240810   2.339   4.972   5.265 -0.5618 -0.9763 -0.6747
 5539TIP3   OH240811   2.059   4.195   7.981 -0.4194 -0.1368  0.0079
 5539TIP3    H140812   2.087   4.131   8.047 -1.9468 -1.1091 -0.2472
 5539TIP3    H240813   2.037   4.273   8.032 -1.2327 -0.7500  0.6186
 5540TIP3   OH240814   0.638   4.834   6.731 -0.1785  0.3319  0.3299
 5540TIP3    H140815   0.690   4.914   6.722 -1.5622  0.9977 -3.3279
 5540TIP3    H240816   0.681   4.771   6.673 -0.5935 -0.7669  1.1803
 5541TIP3   OH240817   3.445   4.818   5.871 -0.2394 -0.2285  0.5208
 5541TIP3    H140818   3.405   4.827   5.784  1.7991  1.4098 -0.3268
 5541TIP3    H240819   3.505   4.744   5.861  0.7501  0.5955  0.1786
 5542TIP3   OH240820   0.606   2.639   5.936  0.2252 -0.0964  0.3843
 5542TIP3    H140821   0.538   2.580   5.903 -0.4292  0.6358  0.4091
 5542TIP3    H240822   0.606   2.625   6.031  1.9942 -2.0800  0.1846
 5543TIP3   OH240823   6.478   3.941   5.775 -0.7396 -0.0687 -0.2534
 5543TIP3    H140824   6.418   4.014   5.783 -1.4951 -0.8579  1.8731
 5543TIP3    H240825   6.556   3.969   5.822  0.1587  0.4542 -1.9381
 5544TIP3   OH240826   3.720   3.129   8.460 -0.1092  0.4392  0.5389
 5544TIP3    H140827   3.663   3.206   8.469 -1.2342 -0.2859 -0.1905
 5544TIP3    H240828   3.683   3.080   8.387  0.7320 -0.6819  0.8420
 5545TIP3   OH240829   5.013   5.088   6.204  0.2746  0.0282  0.4343
 5545TIP3    H140830   4.984   5.086   6.295 -0.1730 -0.9342  0.2887
 5545TIP3    H240831   4.958   5.023   6.160  1.6404 -0.7911 -0.1628
 5546TIP3   OH240832   3.182   0.162   6.657  0.3536 -0.2421  0.2217
 5546TIP3    H140833   3.114   0.230   6.661  0.7477  0.3385 -1.7303
 5546TIP3    H240834   3.136   0.085   6.624  0.4640 -0.0769 -0.3321
 5547TIP3   OH240835   4.368   4.026   5.732 -0.0040  0.0254  0.4314
 5547TIP3    H140836   4.312   4.091   5.689  0.6548 -0.7460 -1.6943
 5547TIP3    H240837   4.435   4.006   5.668  0.8955 -1.4021  1.7570
 5548TIP3   OH240838   0.614   5.128   7.543  0.4438 -0.0904  0.5844
 5548TIP3    H140839   0.617   5.032   7.551  0.7435 -0.3412 -1.7045
 5548TIP3    H240840   0.698   5.158   7.577 -0.5317 -0.3779  3.4491
 5549TIP3   OH240841   1.908   4.122   7.348  0.3259 -0.1207  0.5027
 5549TIP3    H140842   1.958   4.158   7.422  1.6134 -0.3544 -0.2242
 5549TIP3    H240843   1.957   4.150   7.271 -0.4167 -0.7727 -0.2129
 5550TIP3   OH240844   1.992   4.132   5.864 -0.4915  0.0537 -0.2867
 5550TIP3    H140845   1.929   4.077   5.912  0.3081  0.1417  0.9114
 5550TIP3    H240846   2.010   4.205   5.924 -0.1965  0.6976 -1.1386
 5551TIP3   OH240847   2.659   4.559   5.309  0.0311 -0.1508  0.1664
 5551TIP3    H140848   2.599   4.628   5.337  2.5229  1.9808  0.6185
 5551TIP3    H240849   2.662   4.568   5.214 -0.5667 -0.4784  0.1100
 5552TIP3   OH240850   6.274   1.876   7.411  0.6587 -0.6124  0.3274
 5552TIP3    H140851   6.254   1.785   7.391  0.2961 -0.4004 -0.2943
 5552TIP3    H240852   6.361   1.890   7.375  0.5086 -0.5734 -0.0197
 5553TIP3   OH240853   0.378   0.449   8.924 -0.0620  0.1077 -0.1809
 5553TIP3    H140854   0.344   0.482   9.007 -2.0079 -2.1152 -0.0208
 5553TIP3    H240855   0.471   0.475   8.925 -0.9477  3.8589  0.6802
 5554TIP3   OH240856   2.629   0.694   7.479  0.3370  0.0464  0.0266
 5554TIP3    H140857   2.682   0.649   7.413 -0.5186 -0.1508 -0.5464
 5554TIP3    H240858   2.632   0.786   7.454 -0.1449 -0.0536 -0.4070
 5555TIP3   OH240859   3.852   5.805   6.086  0.1024 -0.3689  0.1010
 5555TIP3    H140860   3.928   5.746   6.086  0.0692 -0.4118  0.3106
 5555TIP3    H240861   3.818   5.800   6.175  0.1057 -0.0221  0.1214
 5556TIP3   OH240862   2.619   6.691   5.905 -0.5027  0.2485  0.2974
 5556TIP3    H140863   2.652   6.762   5.960  2.7116  0.3333 -1.4711
 5556TIP3    H240864   2.654   6.710   5.818 -0.7246 -2.7335 -0.5527
 5557TIP3   OH240865   6.658   6.310   8.490  0.0310 -0.3455 -0.7085
 5557TIP3    H140866   6.722   6.330   8.558  0.6758 -0.2016 -1.3380
 5557TIP3    H240867   6.646   6.215   8.495  1.0297 -0.5106 -1.1998
 5558TIP3   OH240868   1.291   6.526   9.398 -0.2086 -0.1874 -0.2686
 5558TIP3    H140869   1.294   6.622   9.398 -1.3277  0.0916  4.0365
 5558TIP3    H240870   1.198   6.505   9.386  0.2300 -0.9383 -2.8923
 5559TIP3   OH240871   0.076   0.500   8.211  0.0039  0.0522 -0.7510
 5559TIP3    H140872   0.015   0.510   8.284  1.7916  1.0440  0.6810
 5559TIP3    H240873   0.038   0.552   8.140 -1.3443 -0.2380 -0.2687
 5560TIP3   OH240874   6.154   4.027   6.079  0.5642 -0.3826 -0.2822
 5560TIP3    H140875   6.112   4.113   6.081 -0.2742 -0.7763 -0.5462
 5560TIP3    H240876   6.143   3.993   6.168 -1.5296 -1.3280 -0.8286
 5561TIP3   OH240877   4.070   4.612   5.558 -0.0880 -0.2239  0.1663
 5561TIP3    H140878   3.994   4.554   5.553  0.2082 -0.6301  0.4008
 5561TIP3    H240879   4.078   4.649   5.470 -0.8901  0.2507  0.2779
 5562TIP3   OH240880   3.568   2.456   5.778 -0.6792  0.4535  0.8852
 5562TIP3    H140881   3.652   2.442   5.735  0.2528  1.3966  2.3448
 5562TIP3    H240882   3.570   2.547   5.807 -2.7740  0.9334 -0.2075
 5563TIP3   OH240883   5.488   5.650   7.894  0.2146  0.0331  0.0215
 5563TIP3    H140884   5.510   5.598   7.817 -2.0509 -1.2073  0.1226
 5563TIP3    H240885   5.431   5.719   7.861 -0.4098 -0.2416  0.5075
 5564TIP3   OH240886   0.992   5.023   6.521 -0.5066 -0.1887  0.0407
 5564TIP3    H140887   1.044   4.962   6.573 -1.7916 -0.3993  1.1393
 5564TIP3    H240888   0.949   4.968   6.455  0.9974  0.0565 -1.2089
 5565TIP3   OH240889   1.709   2.790   7.534 -0.1411 -0.4786 -0.2884
 5565TIP3    H140890   1.670   2.801   7.448 -1.2611 -0.4270  0.2079
 5565TIP3    H240891   1.640   2.750   7.587 -0.0268  0.9462  1.0142
 5566TIP3   OH240892   5.095   5.303   5.604 -0.3114 -0.5814 -1.0075
 5566TIP3    H140893   5.048   5.370   5.653  0.8030 -2.1994  2.5996
 5566TIP3    H240894   5.165   5.351   5.559 -0.6527  0.8985 -0.0363
 5567TIP3   OH240895   6.329   2.275   6.614  0.0100 -0.0423  0.3976
 5567TIP3    H140896   6.337   2.184   6.584 -0.2878 -0.1891  0.7453
 5567TIP3    H240897   6.351   2.328   6.538  3.5323 -0.3554  1.0291
 5568TIP3   OH240898   5.606   4.922   8.198  0.6537 -0.0824  0.2191
 5568TIP3    H140899   5.645   4.854   8.143 -0.5282  0.0830 -0.8727
 5568TIP3    H240900   5.676   4.985   8.213  0.3707  1.3299 -3.4826
 5569TIP3   OH240901   5.476   0.752   6.574 -0.1650  0.5068  0.0591
 5569TIP3    H140902   5.484   0.761   6.669 -1.1390  0.4557  0.1531
 5569TIP3    H240903   5.409   0.685   6.561 -0.0948  0.5639 -0.6681
 5570TIP3   OH240904   6.295   6.237   9.406  0.2091  0.4885 -0.2103
 5570TIP3    H140905   6.289   6.179   9.330  0.1052 -0.6014  0.6219
 5570TIP3    H240906   6.271   6.183   9.481 -0.0294  1.6392  0.5777
 5571TIP3   OH240907   3.905   3.476   7.150 -0.0658  0.0950 -0.2869
 5571TIP3    H140908   3.854   3.396   7.166  1.0567 -0.5033  0.3986
 5571TIP3    H240909   3.939   3.501   7.236  0.2684  0.8621 -0.6319
 5572TIP3   OH240910   0.030   5.185   8.021  0.0347 -0.3425 -0.7496
 5572TIP3    H140911   0.016   5.230   8.105 -1.1276 -0.5816 -0.8061
 5572TIP3    H240912   0.030   5.256   7.957 -0.2199 -0.2703 -0.6707
 5573TIP3   OH240913   3.759   2.887   8.606 -0.2603 -0.3004  0.3335
 5573TIP3    H140914   3.747   2.966   8.553  1.7669  0.4538  0.9042
 5573TIP3    H240915   3.839   2.903   8.656 -0.6661 -2.0766  1.6703
 5574TIP3   OH240916   1.060   0.095   7.267  0.2147  0.3890 -0.5958
 5574TIP3    H140917   1.014   0.111   7.350 -0.9343  0.3680 -1.1993
 5574TIP3    H240918   0.989   0.083   7.204  1.0746 -0.3829 -1.4283
 5575TIP3   OH240919   1.561   4.451   6.963 -0.1450  0.4632 -0.2534
 5575TIP3    H140920   1.527   4.519   6.905 -1.2704 -1.0868 -1.5444
 5575TIP3    H240921   1.652   4.476   6.979 -0.1051  1.5255 -1.8559
 5576TIP3   OH240922   1.738   3.997   5.991 -0.0994  0.2282  0.2775
 5576TIP3    H140923   1.706   3.922   6.042 -2.9783 -0.3455 -2.0481
 5576TIP3    H240924   1.659   4.050   5.977  0.4877  0.3280 -3.4374
 5577TIP3   OH240925   4.758   0.307   6.303  0.2987  0.3629 -0.0589
 5577TIP3    H140926   4.815   0.238   6.338  0.5795 -0.4433 -1.9942
 5577TIP3    H240927   4.669   0.272   6.312  0.3383  0.3222  0.1810
 5578TIP3   OH240928   1.327   1.772   7.875  0.0436  0.8070  0.3058
 5578TIP3    H140929   1.389   1.744   7.808 -0.6143  0.2786 -0.0954
 5578TIP3    H240930   1.344   1.866   7.886  1.3450  0.5320  0.6816
 5579TIP3   OH240931   0.660   1.529   7.937  0.0460  0.2164 -0.2653
 5579TIP3    H140932   0.569   1.508   7.958 -0.0401  1.3073  0.5304
 5579TIP3    H240933   0.699   1.553   8.021  0.1858  2.9591 -1.0042
 5580TIP3   OH240934   0.529   5.088   5.802 -0.1682 -0.9139 -0.5257
 5580TIP3    H140935   0.558   5.099   5.712 -1.0034  2.7497 -0.4832
 5580TIP3    H240936   0.582   5.149   5.853 -0.0067 -2.5912  1.4805
 5581TIP3   OH240937   3.969   3.587   5.448  0.4429  0.2539 -0.6512
 5581TIP3    H140938   4.021   3.660   5.417  0.0397  0.9317  0.2083
 5581TIP3    H240939   3.896   3.628   5.496  0.6893 -0.6961  0.5981
 5582TIP3   OH240940   3.884   3.045   9.119 -0.3804 -0.0667 -0.0381
 5582TIP3    H140941   3.809   3.095   9.087  1.2709  1.5493 -1.5841
 5582TIP3    H240942   3.895   2.975   9.054 -1.6086 -1.4924  1.1909
 5583TIP3   OH240943   6.224   0.951   7.611  0.1423 -0.6903  0.0441
 5583TIP3    H140944   6.159   1.021   7.619 -1.0716 -1.8691  1.2026
 5583TIP3    H240945   6.216   0.920   7.521 -1.0197 -0.8767  0.1923
 5584TIP3   OH240946   1.203   4.364   7.851  0.4564 -0.2092 -0.7514
 5584TIP3    H140947   1.230   4.452   7.877 -0.1396  0.4748 -2.2950
 5584TIP3    H240948   1.237   4.354   7.762 -0.8888 -0.8777 -1.2229
 5585TIP3   OH240949   1.665   5.993   6.448  0.1646  0.1219 -0.0628
 5585TIP3    H140950   1.602   6.012   6.517  0.5292  0.7328  0.1051
 5585TIP3    H240951   1.737   6.053   6.464 -0.7610  2.0174 -2.3832
 5586TIP3   OH240952   3.073   0.459   5.484 -0.3456  0.5229 -0.4186
 5586TIP3    H140953   3.034   0.479   5.399 -0.7914 -0.2824 -0.4128
 5586TIP3    H240954   3.003   0.477   5.547  0.5629  3.0102  0.0065
 5587TIP3   OH240955   0.622   3.571   8.700  0.0244 -0.4229  0.0281
 5587TIP3    H140956   0.609   3.529   8.785  2.7150  0.6735  1.0908
 5587TIP3    H240957   0.584   3.658   8.710  1.2332  0.0726  0.5158
 5588TIP3   OH240958   5.101   1.377   8.226  0.3364 -0.4500  0.1912
 5588TIP3    H140959   5.087   1.323   8.304  0.6673 -1.5106 -0.4592
 5588TIP3    H240960   5.196   1.383   8.217  0.3046 -0.5795 -0.2756
 5589TIP3   OH240961   0.063   0.025   8.454  0.4553  0.2170 -0.0105
 5589TIP3    H140962   0.088   0.024   8.546 -0.6968 -1.1061  0.3264
 5589TIP3    H240963   0.118  -0.042   8.413  0.1373 -0.0255 -0.0432
 5590TIP3   OH240964   4.441   0.087   6.984  0.2058  0.1307  0.0170
 5590TIP3    H140965   4.454   0.179   6.958  0.5965  0.7426  2.2128
 5590TIP3    H240966   4.529   0.056   7.005 -0.1341 -0.1720  1.0422
 5591TIP3   OH240967   4.841   5.893   6.378  0.0877 -0.3399 -0.7128
 5591TIP3    H140968   4.908   5.960   6.361 -0.6529  0.5292 -0.2394
 5591TIP3    H240969   4.891   5.812   6.387  1.5676  0.7630  3.2118
 5592TIP3   OH240970   5.354   2.116   7.938  0.3163  0.2276 -0.1112
 5592TIP3    H140971   5.395   2.054   7.878 -1.0272  1.0292 -1.9677
 5592TIP3    H240972   5.297   2.062   7.993 -0.5183 -0.2732 -1.4203
 5593TIP3   OH240973   0.790   1.418   7.687  0.4388  0.4528  1.2618
 5593TIP3    H140974   0.727   1.346   7.685  3.6741 -2.6557  1.1269
 5593TIP3    H240975   0.785   1.452   7.776  0.5141 -1.7260  2.1698
 5594TIP3   OH240976   4.836   1.190   7.283 -0.1896 -0.1787  0.1051
 5594TIP3    H140977   4.865   1.281   7.269 -0.4218 -0.2832 -1.1335
 5594TIP3    H240978   4.748   1.188   7.247  0.6450 -1.4612 -2.0042
 5595TIP3   OH240979   0.852   3.052   6.618 -0.5115 -0.4408  0.1344
 5595TIP3    H140980   0.849   2.957   6.614 -2.0452 -0.3653 -2.0540
 5595TIP3    H240981   0.915   3.077   6.550 -1.0547  0.1129 -0.1797
 5596TIP3   OH240982   3.082   5.358   6.917 -0.0488 -0.2896  0.1085
 5596TIP3    H140983   3.115   5.294   6.854  2.0705 -0.3953  1.2216
 5596TIP3    H240984   3.047   5.305   6.989 -0.3299 -0.1780  0.0556
 5597TIP3   OH240985   6.251   4.777   9.103  0.1898  0.0765 -0.4443
 5597TIP3    H140986   6.245   4.827   9.184 -1.4581 -0.7960  0.0100
 5597TIP3    H240987   6.302   4.833   9.044 -1.9293  2.5022 -0.1260
 5598TIP3   OH240988   4.191   3.816   5.627  0.1628  0.1812  0.0118
 5598TIP3    H140989   4.147   3.838   5.544 -0.0826  0.8989  0.3217
 5598TIP3    H240990   4.277   3.857   5.620  0.6200 -0.8079 -0.3895
 5599TIP3   OH240991   5.427   5.582   6.670 -0.2609 -0.1716  0.1945
 5599TIP3    H140992   5.395   5.543   6.589  2.3103  1.9076 -2.0046
 5599TIP3    H240993   5.351   5.629   6.705 -1.1247 -0.0493 -1.7265
 5600TIP3   OH240994   4.650   0.017   5.531  0.0263  0.8224 -0.6507
 5600TIP3    H140995   4.697  -0.064   5.511 -0.6046  0.3962 -0.4585
 5600TIP3    H240996   4.717   0.076   5.565  0.6728  0.7224 -1.7175
 5601TIP3   OH240997   3.699   0.715   6.647 -0.4518  0.1215 -0.3589
 5601TIP3    H140998   3.679   0.689   6.737  1.4489  2.8331  0.9722
 5601TIP3    H240999   3.717   0.632   6.602 -2.9679 -1.4410  1.2493
 5602TIP3   OH241000   3.574   4.197   6.408  0.0413 -0.2327 -0.3189
 5602TIP3    H141001   3.624   4.266   6.451 -0.9231 -0.0298  0.5071
 5602TIP3    H241002   3.606   4.116   6.447  0.9184 -0.2413 -1.0275
 5603TIP3   OH241003   2.743   5.669   6.349  0.4893 -0.4058  0.0447
 5603TIP3    H141004   2.683   5.642   6.279  1.2315  0.4335 -0.9426
 5603TIP3    H241005   2.830   5.661   6.311  0.9576 -0.6759  1.1403
 5604TIP3   OH241006   4.282   5.500   8.488  0.0036  0.4652  0.0139
 5604TIP3    H141007   4.242   5.524   8.571 -0.9073 -0.5279 -0.1156
 5604TIP3    H241008   4.369   5.467   8.513 -1.3480 -2.7307  0.9934
 5605TIP3   OH241009   5.372   6.328   5.630 -0.3641 -0.5082 -0.1498
 5605TIP3    H141010   5.414   6.263   5.573 -0.7568  0.5521 -1.7082
 5605TIP3    H241011   5.437   6.345   5.698  0.8058 -0.5968 -1.2088
 5606TIP3   OH241012   5.048   6.425   7.308 -0.4736 -0.8623 -1.0518
 5606TIP3    H141013   4.972   6.399   7.256 -1.0917 -0.2639 -0.4676
 5606TIP3    H241014   5.061   6.354   7.371 -1.7802 -0.0848  0.1414
 5607TIP3   OH241015   6.000   3.847   5.538 -0.6389 -0.3834  0.6095
 5607TIP3    H141016   6.017   3.773   5.596 -1.2709 -1.0229 -0.0027
 5607TIP3    H241017   6.017   3.924   5.592  0.5040 -0.9626  1.1181
 5608TIP3   OH241018   3.759   4.825   5.648  0.2206 -0.4465 -0.2819
 5608TIP3    H141019   3.847   4.801   5.621  0.3159  0.3234 -0.6797
 5608TIP3    H241020   3.766   4.839   5.743  0.1607 -1.9252 -0.0364
 5609TIP3   OH241021   0.672   3.067   6.827 -0.3438  0.4945 -0.3586
 5609TIP3    H141022   0.730   3.122   6.880 -0.9578  1.6709 -0.8495
 5609TIP3    H241023   0.726   3.041   6.752  0.5502 -1.2428  0.8335
 5610TIP3   OH241024   6.713   6.562   8.955 -0.2441  0.4257  0.2172
 5610TIP3    H141025   6.764   6.484   8.978 -1.2356 -0.2014  0.3526
 5610TIP3    H241026   6.728   6.623   9.028  1.5977  0.9151 -0.5196
 5611TIP3   OH241027   6.103   6.470   8.003 -0.0439 -0.0744  0.3596
 5611TIP3    H141028   6.029   6.447   7.946 -0.9541  1.9189  0.6711
 5611TIP3    H241029   6.097   6.408   8.076 -0.0127 -1.4038 -0.7157
 5612TIP3   OH241030   5.779   1.020   6.969  0.0380  0.0087 -0.2229
 5612TIP3    H141031   5.847   1.010   6.903  0.7880  2.3029  0.1035
 5612TIP3    H241032   5.697   1.001   6.923  0.7531 -1.5171 -0.9496
 5613TIP3   OH241033   4.310   4.020   7.218  0.0613 -0.3998 -0.1007
 5613TIP3    H141034   4.311   3.969   7.137  1.0143 -1.3157  0.4542
 5613TIP3    H241035   4.363   4.098   7.199  1.1002 -1.0817 -0.1037
 5614TIP3   OH241036   6.156   6.458   8.844  0.0085 -0.7134  1.0905
 5614TIP3    H141037   6.122   6.466   8.755 -0.4281 -0.9750  1.2333
 5614TIP3    H241038   6.133   6.541   8.887  0.8155 -0.3051  0.7661
 5615TIP3   OH241039   4.470   5.045   6.942  0.6233 -0.0304  0.4647
 5615TIP3    H141040   4.533   5.002   7.000  1.0392  2.2435  1.8207
 5615TIP3    H241041   4.515   5.054   6.859  0.7148 -1.6578  0.3147
 5616TIP3   OH241042   4.926   0.990   7.835  0.3662 -0.2322  0.5171
 5616TIP3    H141043   4.907   1.067   7.889  2.3443  1.2645 -0.7970
 5616TIP3    H241044   5.014   0.963   7.862 -0.1046 -1.7659  0.6090
 5617TIP3   OH241045   3.667   3.657   6.350 -0.1139  0.1586 -0.3435
 5617TIP3    H141046   3.725   3.630   6.278  1.0116 -0.3018  0.6876
 5617TIP3    H241047   3.579   3.646   6.315  0.1907 -4.2926 -0.3371
 5618TIP3   OH241048   4.628   0.764   8.214  0.4585 -0.7204  0.1274
 5618TIP3    H141049   4.657   0.680   8.181 -1.5755 -0.9224 -1.3761
 5618TIP3    H241050   4.705   0.820   8.211  1.4629 -2.0920 -0.3935
 5619TIP3   OH241051   5.884   2.544   6.497  0.5198 -0.2304 -0.9709
 5619TIP3    H141052   5.864   2.514   6.408  0.8707 -0.0369 -1.1173
 5619TIP3    H241053   5.968   2.588   6.488  0.8089 -0.6752 -0.4449
 5620TIP3   OH241054   5.566   5.416   6.064  0.1477  0.0477  0.2837
 5620TIP3    H141055   5.517   5.419   5.982  0.8145  0.7378 -0.1069
 5620TIP3    H241056   5.566   5.324   6.089 -3.0876  0.2078  1.3984
 5621TIP3   OH241057   4.352   1.924   7.859  0.3324  0.2398  0.1192
 5621TIP3    H141058   4.310   1.877   7.930  1.4374  0.0005  0.6316
 5621TIP3    H241059   4.443   1.894   7.860  0.7760  1.4947 -0.3022
 5622TIP3   OH241060   1.430   0.543   8.730  0.0589  0.4627  0.3894
 5622TIP3    H141061   1.383   0.529   8.812 -0.7955  1.1786  0.0352
 5622TIP3    H241062   1.461   0.634   8.736  0.4180  0.3591  0.1262
 5623TIP3   OH241063   5.894   5.602   8.491 -0.0538  0.0740  0.7518
 5623TIP3    H141064   5.804   5.573   8.477  0.7887 -2.1579 -0.6578
 5623TIP3    H241065   5.920   5.640   8.407  1.0262 -1.6009  0.2600
 5624TIP3   OH241066   3.897   5.397   7.246 -0.3032 -0.3807 -0.0302
 5624TIP3    H141067   3.934   5.356   7.167 -1.7000 -1.0935 -0.3466
 5624TIP3    H241068   3.847   5.471   7.213  1.2401  0.9286  0.4482
 5625TIP3   OH241069   6.643   1.217   6.833  0.2657 -0.0722  0.3222
 5625TIP3    H141070   6.627   1.308   6.859 -0.5547  0.1510 -0.8997
 5625TIP3    H241071   6.557   1.184   6.808  0.0537 -2.0145  3.1330
 5626TIP3   OH241072   6.506   6.722   6.318  0.3111  0.2692 -0.1402
 5626TIP3    H141073   6.472   6.726   6.228 -0.2768 -0.8628  0.0070
 5626TIP3    H241074   6.481   6.635   6.348  3.7001 -0.8251 -0.1307
 5627TIP3   OH241075   2.967   0.308   5.957  0.3274 -0.0296 -0.3546
 5627TIP3    H141076   2.925   0.388   5.989 -0.1632 -0.6068  0.4471
 5627TIP3    H241077   3.059   0.319   5.980  0.2750  0.3262 -0.3015
 5628TIP3   OH241078   5.696   4.457   8.207 -0.1338 -0.0389  0.4986
 5628TIP3    H141079   5.710   4.485   8.297  1.1058  4.2143 -0.8052
 5628TIP3    H241080   5.782   4.461   8.166 -0.8459 -0.8375 -1.1847
 5629TIP3   OH241081   4.687   1.253   7.720 -0.0572  0.0091 -0.0510
 5629TIP3    H141082   4.613   1.253   7.660  0.9790 -0.0459 -1.3664
 5629TIP3    H241083   4.764   1.260   7.664  1.1981 -3.6592  0.9379
 5630TIP3   OH241084   5.893   6.730   5.761 -0.1465  0.3043  0.0820
 5630TIP3    H141085   5.862   6.660   5.818  1.1687  0.4395  0.9942
 5630TIP3    H241086   5.814   6.760   5.715 -1.1043 -0.3079  1.2725
 5631TIP3   OH241087   1.625   1.937   6.778  0.0237 -0.1727 -0.1860
 5631TIP3    H141088   1.607   2.031   6.766  1.5990  0.1307 -0.3664
 5631TIP3    H241089   1.588   1.896   6.700 -3.0494 -0.1026  1.0686
 5632TIP3   OH241090   4.847   2.194   6.353 -0.1573  0.5116  0.0265
 5632TIP3    H141091   4.897   2.118   6.382  1.1969  1.9241  1.5827
 5632TIP3    H241092   4.766   2.157   6.318  0.7356 -1.6675  0.0728
 5633TIP3   OH241093   0.765   2.102   8.106  0.0628  0.0843  0.2791
 5633TIP3    H141094   0.773   2.090   8.201 -0.4035  0.5873  0.3938
 5633TIP3    H241095   0.855   2.111   8.075  0.2841 -1.1855  0.5108
 5634TIP3   OH241096   0.901   2.610   8.417 -0.7669 -0.0967  0.7197
 5634TIP3    H141097   0.815   2.632   8.451 -0.1098  1.6267  1.4059
 5634TIP3    H241098   0.923   2.682   8.357  0.6875  0.1539  1.5046
 5635TIP3   OH241099   0.597   1.754   7.785 -0.5484 -0.1902  0.3085
 5635TIP3    H141100   0.625   1.702   7.861 -0.6340  0.8162  1.0417
 5635TIP3    H241101   0.660   1.731   7.717  0.0204 -0.5087  0.9205
 5636TIP3   OH241102   3.162   5.094   5.905 -0.1947 -0.2560 -0.3296
 5636TIP3    H141103   3.138   5.105   5.997 -1.2256  1.1981 -0.7427
 5636TIP3    H241104   3.080   5.077   5.860 -0.1062  1.6437 -1.3252
 5637TIP3   OH241105   2.264   1.404   6.865  0.1886  0.3849  0.0775
 5637TIP3    H141106   2.319   1.360   6.931 -0.5110 -0.2882  0.2266
 5637TIP3    H241107   2.209   1.464   6.915 -1.1585 -0.9576  0.2776
 5638TIP3   OH241108   6.489   3.816   6.725  0.4938 -0.0886  0.3521
 5638TIP3    H141109   6.431   3.743   6.707  0.5372 -0.1489  0.4586
 5638TIP3    H241110   6.522   3.843   6.639 -3.5036  3.1577 -0.4747
 5639TIP3   OH241111   4.927   1.823   8.254 -0.3948 -0.4976  0.2886
 5639TIP3    H141112   4.891   1.878   8.185  0.9987  0.1936  0.0768
 5639TIP3    H241113   4.904   1.733   8.228 -1.6190 -0.1222  0.0070
 5640TIP3   OH241114   1.675   1.425   6.350  0.0033  0.1048  0.1755
 5640TIP3    H141115   1.693   1.488   6.420 -2.5211  0.2353  0.7985
 5640TIP3    H241116   1.708   1.342   6.384  1.4870  0.6860  0.2238
 5641TIP3   OH241117   3.582   0.724   6.915 -0.3663 -0.2388 -1.0327
 5641TIP3    H141118   3.516   0.777   6.870  1.0171  0.5692 -2.2322
 5641TIP3    H241119   3.639   0.788   6.958 -0.3777 -0.9161  0.0371
 5642TIP3   OH241120   1.582   2.447   7.145  0.0663  0.4488 -0.6563
 5642TIP3    H141121   1.619   2.389   7.078 -0.1626 -0.5329  0.0407
 5642TIP3    H241122   1.535   2.514   7.096  1.9246  1.1685 -1.5490
 5643TIP3   OH241123   4.935   1.240   7.974  0.4493 -0.0746  0.3385
 5643TIP3    H141124   4.979   1.319   8.003  1.0467  0.3457 -1.6242
 5643TIP3    H241125   4.842   1.263   7.971  0.8250  1.6356 -3.1065
 5644TIP3   OH241126   6.241   1.417   7.585  0.1738  0.2043 -0.3557
 5644TIP3    H141127   6.251   1.442   7.677 -0.2045 -1.2070  0.0863
 5644TIP3    H241128   6.330   1.418   7.551  0.3914  0.1021  0.1981
 5645TIP3   OH241129   2.371   0.333   8.185 -0.1987  0.2775 -0.1575
 5645TIP3    H141130   2.442   0.396   8.196  0.6830 -0.7691  0.2703
 5645TIP3    H241131   2.311   0.350   8.257  1.4654 -1.1959  1.6742
 5646TIP3   OH241132   3.145   1.720   8.875  0.1871 -0.4701  0.5670
 5646TIP3    H141133   3.128   1.706   8.968  0.0464 -2.3214  0.2994
 5646TIP3    H241134   3.110   1.808   8.857  2.1916  0.8688  2.6859
 5647TIP3   OH241135   1.339   5.565   6.779 -0.2742  0.1654  0.2959
 5647TIP3    H141136   1.336   5.522   6.694 -1.9842  0.3000  0.2536
 5647TIP3    H241137   1.417   5.620   6.776 -0.3324  0.1902 -1.1873
 5648TIP3   OH241138   4.166   4.034   8.250  0.4193  0.3326 -0.0115
 5648TIP3    H141139   4.109   4.016   8.325  1.6385 -0.9682  0.6674
 5648TIP3    H241140   4.125   4.107   8.205 -1.7160 -0.4818  0.5057
 5649TIP3   OH241141   5.793   1.143   7.590  0.2680 -0.2231 -0.6363
 5649TIP3    H141142   5.888   1.145   7.592  0.2838  0.3520  1.6672
 5649TIP3    H241143   5.771   1.050   7.590  0.8027 -0.3625 -1.6821
 5650TIP3   OH241144   2.913   4.817   6.859 -0.5029 -0.1427  0.2224
 5650TIP3    H141145   2.944   4.798   6.948 -0.5924 -1.5284 -0.0233
 5650TIP3    H241146   2.915   4.913   6.853 -1.2115  0.0094  1.9604
 5651TIP3   OH241147   5.853   3.891   7.485 -0.2650  0.5189 -0.0593
 5651TIP3    H141148   5.810   3.975   7.472 -0.1870  0.4161 -1.0558
 5651TIP3    H241149   5.798   3.846   7.549 -0.8162  0.9663 -0.2079
 5652TIP3   OH241150   3.122   2.761   7.308 -0.3312  0.7317 -0.3227
 5652TIP3    H141151   3.182   2.687   7.301 -0.8514  0.1740  0.7821
 5652TIP3    H241152   3.167   2.823   7.366 -0.2441  0.9250 -0.5945
 5653TIP3   OH241153   3.189   3.788   7.906 -0.0618 -0.0350 -1.2099
 5653TIP3    H141154   3.180   3.693   7.905 -0.0957 -0.0307 -1.2951
 5653TIP3    H241155   3.120   3.820   7.848 -1.1410  0.1356  0.1073
 5654TIP3   OH241156   3.351   1.214   6.059  0.0632  0.4430  0.2666
 5654TIP3    H141157   3.291   1.259   6.000 -0.8550 -0.0309  0.8158
 5654TIP3    H241158   3.321   1.237   6.147 -1.4019 -2.3319  0.6303
 5655TIP3   OH241159   5.725   3.659   5.911 -0.0014 -0.4151 -0.2727
 5655TIP3    H141160   5.644   3.672   5.862 -0.0362 -1.1277 -0.4092
 5655TIP3    H241161   5.770   3.588   5.866 -0.7406 -2.1638  1.5724
 5656TIP3   OH241162   5.472   1.588   7.905 -0.0047  0.5281  0.1109
 5656TIP3    H141163   5.564   1.601   7.881  0.1817  0.2167  0.6634
 5656TIP3    H241164   5.435   1.541   7.830  0.0898  1.3307 -0.4620
 5657TIP3   OH241165   4.153   5.679   7.144 -0.3739  0.2035  0.1001
 5657TIP3    H141166   4.233   5.728   7.161 -0.2615 -0.1814  0.6890
 5657TIP3    H241167   4.121   5.653   7.230 -0.5253 -0.6145 -0.1917
 5658TIP3   OH241168   2.190   6.642   5.698 -0.1664  0.7841 -0.2061
 5658TIP3    H141169   2.202   6.696   5.619 -0.2537 -0.1065 -0.8462
 5658TIP3    H241170   2.095   6.641   5.712 -0.2228  0.2589 -0.5919
 5659TIP3   OH241171   0.199   0.879   6.271  0.0821 -0.1389 -0.3071
 5659TIP3    H141172   0.145   0.958   6.264  0.4130  0.0296 -1.0525
 5659TIP3    H241173   0.289   0.910   6.258  0.1586 -0.7225 -1.3155
 5660TIP3   OH241174   5.161   2.655   6.386  0.4717  0.4531  0.6423
 5660TIP3    H141175   5.127   2.684   6.301  0.5230 -0.4713  0.2983
 5660TIP3    H241176   5.084   2.627   6.435  0.7343 -2.9300 -0.6272
 5661TIP3   OH241177   5.030   4.531   6.647 -0.7302 -0.1592 -0.1520
 5661TIP3    H141178   5.121   4.556   6.667 -0.8653  1.4959 -1.4287
 5661TIP3    H241179   4.980   4.561   6.723 -0.4552  0.6876 -0.2925
 5662TIP3   OH241180   6.424   0.921   7.228  0.3476  0.0776 -0.5022
 5662TIP3    H141181   6.413   0.888   7.139 -0.7542 -1.2722  0.1031
 5662TIP3    H241182   6.335   0.933   7.261  0.7228 -0.2282  0.6808
 5663TIP3   OH241183   3.820   4.889   5.917  0.5965 -0.0875 -0.1926
 5663TIP3    H141184   3.773   4.972   5.909  3.0301  1.3242 -1.2287
 5663TIP3    H241185   3.845   4.884   6.009  1.1584  0.8090 -0.2812
 5664TIP3   OH241186   6.710   1.860   6.083  0.0625 -0.0863  0.2264
 5664TIP3    H141187   6.619   1.843   6.057  0.4651 -1.0660 -0.5954
 5664TIP3    H241188   6.712   1.954   6.103 -1.1373 -0.0639  0.3119
 5665TIP3   OH241189   3.257   4.612   5.995  0.5194 -0.4040 -0.4672
 5665TIP3    H141190   3.241   4.674   6.065  0.5669 -0.6196 -0.2648
 5665TIP3    H241191   3.289   4.533   6.039  1.3656 -0.2566 -0.7890
 5666TIP3   OH241192   6.218   5.118   6.183 -0.3641  0.6368  0.1785
 5666TIP3    H141193   6.229   5.118   6.278 -1.9702 -0.8529  0.4322
 5666TIP3    H241194   6.128   5.090   6.169  0.3630 -1.0663 -1.8005
 5667TIP3   OH241195   5.659   2.852   5.836 -0.2161  0.5431 -0.0592
 5667TIP3    H141196   5.643   2.774   5.783 -0.4896 -1.2923  2.5289
 5667TIP3    H241197   5.578   2.864   5.886 -0.5082  3.0673 -0.9981
 5668TIP3   OH241198   4.450   0.093   7.341  0.2477 -0.8596  0.0130
 5668TIP3    H141199   4.426   0.163   7.401  0.2429 -0.9137  0.0751
 5668TIP3    H241200   4.535   0.062   7.373  0.8756 -0.0059 -0.7957
 5669TIP3   OH241201   2.151   6.611   8.783 -0.3139 -0.2157 -0.1124
 5669TIP3    H141202   2.137   6.605   8.877 -0.3760  0.2973 -0.0872
 5669TIP3    H241203   2.153   6.705   8.764  2.1012 -0.2383 -0.2785
 5670TIP3   OH241204   1.098   2.527   7.115  0.3671 -0.0954 -0.4400
 5670TIP3    H141205   1.170   2.524   7.178 -0.6885 -0.1106  0.8337
 5670TIP3    H241206   1.022   2.498   7.166 -0.4223 -0.6951 -1.9111
 5671TIP3   OH241207   2.818   4.827   7.550  0.1195 -0.1623  0.7493
 5671TIP3    H141208   2.826   4.783   7.465 -0.1314  1.1660  0.0011
 5671TIP3    H241209   2.874   4.904   7.542 -0.9734  0.7168  1.2775
 5672TIP3   OH241210   5.284   4.558   8.246 -0.1897  0.1860 -0.0043
 5672TIP3    H141211   5.268   4.597   8.332 -0.8509 -0.1447  0.0309
 5672TIP3    H241212   5.338   4.622   8.201  0.1535  0.3730  0.6516
 5673TIP3   OH241213   0.357   4.427   6.862 -0.2952 -0.0658  0.1102
 5673TIP3    H141214   0.270   4.390   6.877 -0.2353 -0.7472 -1.1063
 5673TIP3    H241215   0.347   4.481   6.784 -0.4348  2.7763  1.9339
 5674TIP3   OH241216   1.619   2.560   6.523 -0.3421  0.3696 -0.0665
 5674TIP3    H141217   1.633   2.597   6.435 -1.6367  1.4072  0.1337
 5674TIP3    H241218   1.530   2.525   6.520 -0.2906  0.1720  0.7486
 5675TIP3   OH241219   1.334   6.209   6.802  0.1855 -0.3905  0.6367
 5675TIP3    H141220   1.245   6.214   6.767  0.3111 -2.3680 -0.0767
 5675TIP3    H241221   1.332   6.266   6.879 -1.8919 -0.9179  1.0449
 5676TIP3   OH241222   2.419   3.437   8.130 -0.5156 -0.0172 -0.3935
 5676TIP3    H141223   2.437   3.345   8.152 -0.8342 -0.0759 -0.3680
 5676TIP3    H241224   2.407   3.435   8.035 -1.8576 -0.2405 -0.2382
 5677TIP3   OH241225   4.463   5.990   6.203  0.1047  0.4408  0.2155
 5677TIP3    H141226   4.401   6.035   6.144 -0.7207  1.3490  1.7244
 5677TIP3    H241227   4.495   5.916   6.151 -1.6591  0.3854 -0.8965
 5678TIP3   OH241228   1.788   3.877   7.329  0.6951 -0.5578  0.4873
 5678TIP3    H141229   1.763   3.878   7.422  1.1070 -0.1884  0.5945
 5678TIP3    H241230   1.846   3.952   7.319 -0.6618  0.4135 -0.4331
 5679TIP3   OH241231   1.917   1.446   6.165 -0.1558 -0.3976  0.4966
 5679TIP3    H141232   1.886   1.468   6.253  0.9601  0.9626  0.5962
 5679TIP3    H241233   1.842   1.460   6.108 -0.4540  0.2653  1.0449
 5680TIP3   OH241234   0.713   1.484   5.987  0.6861 -0.0212 -0.2681
 5680TIP3    H141235   0.630   1.482   5.938  1.7172  0.0518 -2.1010
 5680TIP3    H241236   0.699   1.550   6.055 -0.0552  1.5837 -1.8985
 5681TIP3   OH241237   6.048   3.576   7.178  0.2778  1.0392 -0.5258
 5681TIP3    H141238   6.035   3.664   7.144 -1.2419  1.3324  0.6843
 5681TIP3    H241239   6.132   3.580   7.223  0.6944  1.5695 -1.3195
 5682TIP3   OH241240   0.329   1.592   8.570 -0.3144 -0.0028  0.5758
 5682TIP3    H141241   0.238   1.621   8.573  0.0976  1.2746  2.2184
 5682TIP3    H241242   0.373   1.642   8.639  1.5707 -0.8317  0.0581
 5683TIP3   OH241243   6.711   2.725   6.202  0.1270 -0.0346  0.2100
 5683TIP3    H141244   6.635   2.682   6.161  1.6165 -0.0502 -2.7847
 5683TIP3    H241245   6.674   2.804   6.242 -1.4673  0.0492 -1.2887
 5684TIP3   OH241246   1.026   1.594   8.208  0.2971  0.5200  0.1547
 5684TIP3    H141247   1.108   1.618   8.251  0.7047  1.6907 -1.1929
 5684TIP3    H241248   1.006   1.507   8.242  2.1281  0.1847  0.4977
 5685TIP3   OH241249   2.552   0.821   8.604  0.1588 -0.3795 -0.1667
 5685TIP3    H141250   2.600   0.904   8.605 -0.5992  0.0605  0.7880
 5685TIP3    H241251   2.461   0.846   8.591 -0.2393 -0.9595  1.3107
 5686TIP3   OH241252   3.573   2.274   7.363  0.6705  0.2234  0.1439
 5686TIP3    H141253   3.482   2.248   7.379  1.3206 -2.8509 -0.6226
 5686TIP3    H241254   3.571   2.318   7.278  0.2958 -3.3552 -1.9148
 5687TIP3   OH241255   5.868   6.715   6.087  0.3622 -0.2388  0.5104
 5687TIP3    H141256   5.832   6.798   6.055  1.3905  0.1812  0.4232
 5687TIP3    H241257   5.818   6.648   6.040 -0.3021  0.3293  0.3881
 5688TIP3   OH241258   4.420   4.662   8.370  0.4986 -0.2460  0.0864
 5688TIP3    H141259   4.421   4.754   8.343  0.7257 -0.1636  0.3679
 5688TIP3    H241260   4.493   4.654   8.431  1.1606 -0.8674 -0.7571
 5689TIP3   OH241261   4.027   0.998   8.107  0.7510  0.2893 -0.1059
 5689TIP3    H141262   3.965   1.054   8.060  0.1677 -0.5789 -0.4115
 5689TIP3    H241263   3.972   0.936   8.155  1.3639  0.5766  1.0017
 5690TIP3   OH241264   4.140   6.700   6.882  0.4703 -0.4660  0.0124
 5690TIP3    H141265   4.214   6.737   6.834  1.1299 -0.5014  0.9639
 5690TIP3    H241266   4.102   6.774   6.929  0.5826 -0.6302  0.3710
 5691TIP3   OH241267   3.144   4.956   8.344 -0.1098 -0.1596  0.9434
 5691TIP3    H141268   3.087   4.957   8.267 -0.1353  0.6522  0.9689
 5691TIP3    H241269   3.232   4.971   8.308  0.2480 -2.2690  0.8020
 5692TIP3   OH241270   0.464   4.506   6.591  0.1448 -0.1627 -0.0334
 5692TIP3    H141271   0.536   4.515   6.529 -0.3722  1.7743 -0.4247
 5692TIP3    H241272   0.491   4.435   6.649  2.6764  0.9291  0.2426
 5693TIP3   OH241273   2.801   6.449   7.140 -0.2746  0.0048  0.7371
 5693TIP3    H141274   2.726   6.432   7.083  0.8633 -0.0064 -0.7931
 5693TIP3    H241275   2.767   6.510   7.206 -1.3100  1.0555 -0.7018
 5694TIP3   OH241276   6.492   5.990   9.079 -0.7028 -0.3024 -0.5813
 5694TIP3    H141277   6.406   5.993   9.120 -1.3968 -1.8245 -1.8110
 5694TIP3    H241278   6.511   5.897   9.068  1.1421 -0.0041 -0.2994
 5695TIP3   OH241279   0.464   3.825   8.732 -0.2629 -0.0022 -0.2314
 5695TIP3    H141280   0.399   3.780   8.679 -0.6748  1.7149 -1.2893
 5695TIP3    H241281   0.464   3.915   8.698  2.1395  0.2448  0.2155
 5696TIP3   OH241282   5.187   4.743   7.782  0.1240  0.2365 -0.1885
 5696TIP3    H141283   5.266   4.723   7.832 -1.3039  0.8530  2.5229
 5696TIP3    H241284   5.180   4.839   7.787 -1.2650  0.1263  0.4979
 5697TIP3   OH241285   4.091   6.572   7.105 -0.3295  0.2173 -0.2572
 5697TIP3    H141286   4.087   6.480   7.079 -1.4041  0.7236 -2.0835
 5697TIP3    H241287   4.133   6.616   7.031 -0.8148  1.3348  0.1069
 5698TIP3   OH241288   1.835   0.000   6.972 -0.1285  0.2185  0.0108
 5698TIP3    H141289   1.858   0.016   6.881 -0.4094  1.4132  0.1303
 5698TIP3    H241290   1.743   0.024   6.979 -0.2579 -0.3923  0.4879
 5699TIP3   OH241291   2.070   3.473   8.907 -0.4333  0.0222  0.5186
 5699TIP3    H141292   2.044   3.498   8.996  1.1272 -1.4950  1.4585
 5699TIP3    H241293   2.103   3.384   8.916  1.9938  0.6520 -1.1426
 5700TIP3   OH241294   1.291   5.368   8.330 -0.1095 -0.0718  0.3486
 5700TIP3    H141295   1.379   5.339   8.353  0.0357  1.8586  2.7010
 5700TIP3    H241296   1.299   5.463   8.321 -1.9452  0.1534  0.6587
 5701TIP3   OH241297   6.631   2.672   7.961  0.3890  0.3581 -0.1038
 5701TIP3    H141298   6.603   2.580   7.961 -0.9425  0.7316  0.3306
 5701TIP3    H241299   6.696   2.678   7.891 -0.5066 -0.6318 -1.0585
 5702TIP3   OH241300   5.149   1.891   5.834  0.1687 -0.2066  0.2936
 5702TIP3    H141301   5.172   1.801   5.857 -0.2327 -0.5857 -0.7239
 5702TIP3    H241302   5.232   1.938   5.835  0.6430 -0.9858 -0.8871
 5703TIP3   OH241303   2.027   2.811   8.347 -0.0337  0.3152  0.3349
 5703TIP3    H141304   2.074   2.894   8.356  0.3173 -0.0286  1.9318
 5703TIP3    H241305   2.032   2.791   8.253  0.1911  1.8980 -0.0273
 5704TIP3   OH241306   5.501   2.775   6.682  0.1544 -0.3002  0.1839
 5704TIP3    H141307   5.566   2.732   6.738 -1.1688 -1.8370  0.6192
 5704TIP3    H241308   5.507   2.867   6.705  1.7131 -0.4870  0.6753
 5705TIP3   OH241309   2.179   0.963   8.248  0.2447  0.1187 -0.4237
 5705TIP3    H141310   2.100   0.920   8.214 -1.8360  4.0686 -1.1652
 5705TIP3    H241311   2.237   0.969   8.173  0.9424 -1.9121 -0.1187
 5706TIP3   OH241312   4.608   2.015   7.622  0.2062  0.2643  0.1726
 5706TIP3    H141313   4.514   1.998   7.613  0.2461 -1.1240  1.7943
 5706TIP3    H241314   4.642   1.937   7.666  1.5819  1.9131  2.2592
 5707TIP3   OH241315   0.697   6.537   5.727  0.2613 -0.2852  0.0105
 5707TIP3    H141316   0.761   6.487   5.676  1.5911  1.6961 -0.3836
 5707TIP3    H241317   0.659   6.598   5.663 -1.5576 -0.9563  0.3992
 5708TIP3   OH241318   6.088   3.255   7.944  0.1636  0.5836 -0.0227
 5708TIP3    H141319   6.177   3.266   7.910  0.0936 -1.0510 -0.8525
 5708TIP3    H241320   6.100   3.240   8.038  0.9604 -1.2478 -0.3640
 5709TIP3   OH241321   1.341   1.221   8.013  0.1809  0.3262 -0.4483
 5709TIP3    H141322   1.385   1.184   8.089 -0.9392 -0.7213 -0.2765
 5709TIP3    H241323   1.248   1.216   8.035 -0.1209  0.7012 -1.5868
 5710TIP3   OH241324   5.690   2.335   7.602 -0.7891  0.0019 -0.3147
 5710TIP3    H141325   5.646   2.266   7.554 -0.3600 -0.8854  0.5418
 5710TIP3    H241326   5.715   2.295   7.685  0.6351  0.8000 -0.3185
 5711TIP3   OH241327   2.325   3.348   6.378  0.0191 -0.3008  0.1090
 5711TIP3    H141328   2.337   3.441   6.361 -1.9013  0.1194  0.7960
 5711TIP3    H241329   2.393   3.326   6.442  0.7713  0.4859 -0.3912
 5712TIP3   OH241330   3.930   6.078   6.554 -0.2962 -0.1268  0.6655
 5712TIP3    H141331   3.990   6.036   6.492  0.4539 -0.1090  1.3650
 5712TIP3    H241332   3.944   6.172   6.540 -0.8216 -0.1132  0.2047
 5713TIP3   OH241333   3.877   4.366   8.370  0.0437  0.2380  0.0565
 5713TIP3    H141334   3.797   4.314   8.382  0.0718  0.0770 -0.4180
 5713TIP3    H241335   3.879   4.426   8.445 -0.9526  0.7951 -0.3345
 5714TIP3   OH241336   1.280   1.488   8.440  0.0349  0.3299  0.6060
 5714TIP3    H141337   1.293   1.557   8.375  2.0130  0.2893  0.8999
 5714TIP3    H241338   1.252   1.534   8.519  1.4747  0.8417  0.8379
 5715TIP3   OH241339   4.176   1.224   6.479  0.2541 -0.1620  0.1598
 5715TIP3    H141340   4.151   1.156   6.542 -1.1564 -1.1738 -1.3962
 5715TIP3    H241341   4.139   1.305   6.515  0.2476 -0.5458  1.0568
 5716TIP3   OH241342   3.061   5.286   7.730 -0.5462  0.6018 -0.3165
 5716TIP3    H141343   3.132   5.224   7.748 -0.2445  0.9336 -0.3455
 5716TIP3    H241344   3.094   5.340   7.659 -1.3748 -0.1208 -1.2832
 5717TIP3   OH241345   6.317   1.290   8.038  0.0185  0.0961  0.1954
 5717TIP3    H141346   6.269   1.219   8.082  0.0903  1.2937  2.3041
 5717TIP3    H241347   6.409   1.268   8.051  0.0411  0.1424  0.1123
 5718TIP3   OH241348   6.132   4.565   8.375  0.4710 -0.2110  0.6711
 5718TIP3    H141349   6.159   4.551   8.465 -0.9832  0.2072  1.2044
 5718TIP3    H241350   6.132   4.478   8.335 -0.7906 -0.7077  1.6693
 5719TIP3   OH241351   6.319   5.078   7.006  0.2973 -0.5524 -0.0970
 5719TIP3    H141352   6.385   5.071   7.074 -1.4276 -0.3049  1.7114
 5719TIP3    H241353   6.357   5.137   6.941  2.6099 -1.9991 -0.1458
 5720TIP3   OH241354   2.045   5.980   7.018  0.0154  0.3507 -0.0845
 5720TIP3    H141355   2.084   5.995   7.104 -0.4542 -0.8351  0.3509
 5720TIP3    H241356   1.964   6.030   7.019  0.0568  0.4133  0.1315
 5721TIP3   OH241357   1.948   3.979   9.127 -0.0227 -0.1626 -0.2533
 5721TIP3    H141358   1.941   4.072   9.147 -0.0052  0.0591 -1.2229
 5721TIP3    H241359   2.038   3.956   9.149  0.7677  0.6721 -2.3726
 5722TIP3   OH241360   3.550   5.221   5.538  0.0042  0.2013 -0.1256
 5722TIP3    H141361   3.464   5.208   5.578  1.0773 -0.0525  2.2524
 5722TIP3    H241362   3.584   5.132   5.525 -0.1120  0.2944 -1.2278
 5723TIP3   OH241363   0.361   5.648   5.412 -0.3823  0.0619  0.0238
 5723TIP3    H141364   0.450   5.683   5.404  0.0202 -1.2505 -3.0164
 5723TIP3    H241365   0.313   5.691   5.341 -1.2138 -1.6738 -0.5098
 5724TIP3   OH241366   5.104   3.846   5.972  0.6903  0.3606 -0.1362
 5724TIP3    H141367   5.115   3.921   5.912  1.9951 -1.2984 -2.0906
 5724TIP3    H241368   5.183   3.846   6.025  0.9162  0.0759 -0.4739
 5725TIP3   OH241369   5.038   4.945   6.666 -0.8622  0.1487 -0.5314
 5725TIP3    H141370   4.972   4.936   6.597 -1.6667  0.0007  0.2370
 5725TIP3    H241371   5.057   4.856   6.694  2.2187 -0.1547 -3.0133
 5726TIP3   OH241372   5.988   4.605   7.143 -0.2709 -0.2505  0.2453
 5726TIP3    H141373   5.915   4.655   7.180 -1.9359 -2.7318  0.5392
 5726TIP3    H241374   6.023   4.557   7.218 -0.9469 -2.0991 -0.5746
 5727TIP3   OH241375   6.511   1.812   6.780 -0.1997  0.0736  0.2067
 5727TIP3    H141376   6.531   1.881   6.844 -0.3101  0.7506 -0.4700
 5727TIP3    H241377   6.484   1.737   6.833 -0.8695  0.8110  0.9314
 5728TIP3   OH241378   3.970   0.238   7.440 -0.0246 -0.1695  0.3321
 5728TIP3    H141379   3.993   0.170   7.504  0.4795  0.8763  1.2854
 5728TIP3    H241380   4.040   0.233   7.374  0.8320  0.4097  1.1826
 5729TIP3   OH241381   3.940   2.203   7.162 -0.1439 -0.3094 -0.1749
 5729TIP3    H141382   3.884   2.277   7.138 -0.3330 -0.0964  0.8613
 5729TIP3    H241383   4.028   2.240   7.165 -0.1084 -0.3578 -0.6162
 5730TIP3   OH241384   4.907   3.253   6.783 -0.2016  0.2028  0.5965
 5730TIP3    H141385   4.992   3.221   6.815 -0.5726 -2.8200 -1.1262
 5730TIP3    H241386   4.928   3.298   6.701 -0.1912  0.3566  0.6815
 5731TIP3   OH241387   0.605   4.100   7.592  0.0212 -0.0218 -0.4373
 5731TIP3    H141388   0.598   4.086   7.497 -0.1551  2.3477 -0.8421
 5731TIP3    H241389   0.538   4.043   7.630  0.3451 -1.2861 -1.6847
 5732TIP3   OH241390   1.229   6.429   5.653  0.0870 -0.1792  0.4580
 5732TIP3    H141391   1.199   6.473   5.732 -1.2198 -2.2587  1.1958
 5732TIP3    H241392   1.320   6.406   5.671  0.7269  1.8700  0.1524
 5733TIP3   OH241393   1.457   6.044   6.647 -0.6918 -0.4786  0.1339
 5733TIP3    H141394   1.528   6.046   6.711 -0.5476 -2.4978  0.0785
 5733TIP3    H241395   1.381   6.078   6.695 -0.0465  0.2937  0.6382
 5734TIP3   OH241396   4.780   3.506   5.790  0.4235  0.2608  0.0613
 5734TIP3    H141397   4.859   3.559   5.777  0.9118 -0.7312 -1.2712
 5734TIP3    H241398   4.711   3.554   5.746  0.1750  1.3055  1.5256
 5735TIP3   OH241399   2.059   5.612   7.098  0.0368  0.0482 -0.4348
 5735TIP3    H141400   2.048   5.561   7.018 -0.2267  2.3572 -1.9574
 5735TIP3    H241401   1.982   5.669   7.101  0.8138  1.0910  0.6226
 5736TIP3   OH241402   1.564   4.897   6.219 -0.5554  0.1310  0.0041
 5736TIP3    H141403   1.551   4.863   6.308  0.0444 -0.5027 -0.1392
 5736TIP3    H241404   1.489   4.954   6.204 -0.8583 -0.0476  0.7812
 5737TIP3   OH241405   4.646   5.264   8.403  0.3523 -0.4348 -0.2472
 5737TIP3    H141406   4.600   5.268   8.319  0.5985 -1.6093 -0.4484
 5737TIP3    H241407   4.578   5.281   8.468 -0.1736 -1.1773 -0.5986
 5738TIP3   OH241408   4.896   2.386   5.939  0.2030  0.0381 -0.1935
 5738TIP3    H141409   4.913   2.474   5.970 -0.4612  0.2077 -0.2896
 5738TIP3    H241410   4.848   2.344   6.011 -0.7234  0.2122 -0.6899
 5739TIP3   OH241411   2.112   4.643   6.315 -0.1808 -0.4969  0.5032
 5739TIP3    H141412   2.162   4.562   6.315 -1.3686 -1.2507 -0.1566
 5739TIP3    H241413   2.031   4.623   6.268 -0.2425  1.2360 -0.2300
 5740TIP3   OH241414   6.654   4.866   5.877 -0.9205  0.3172  0.8021
 5740TIP3    H141415   6.709   4.867   5.955 -0.2706 -2.6318  0.4988
 5740TIP3    H241416   6.706   4.911   5.810 -1.1130  2.0800  1.7684
 5741TIP3   OH241417   4.142   3.628   6.485  0.5243 -0.5170 -0.6788
 5741TIP3    H141418   4.167   3.544   6.523  1.3595  0.0945  0.1737
 5741TIP3    H241419   4.055   3.646   6.520  0.5434 -0.8121 -0.4798
 5742TIP3   OH241420   6.539   1.611   6.469  0.3883  0.1132  0.8089
 5742TIP3    H141421   6.582   1.647   6.392 -1.2497 -0.9816 -0.6941
 5742TIP3    H241422   6.550   1.516   6.461 -0.2604 -0.0479  1.6446
 5743TIP3   OH241423   2.366   4.253  14.110 -0.3082 -0.1452  0.5154
 5743TIP3    H141424   2.367   4.331  14.056 -1.6957 -0.9328 -0.7385
 5743TIP3    H241425   2.307   4.274  14.183  0.2890  0.3641  0.8620
 5744TIP3   OH241426   2.684   0.445   8.000  0.5609 -0.2334 -0.0424
 5744TIP3    H141427   2.656   0.470   8.088  2.3613  0.0534  0.4916
 5744TIP3    H241428   2.709   0.527   7.958 -0.5467 -0.3353 -0.9495
 5745TIP3   OH241429   5.675   0.323   7.972  0.0340  0.1010  0.2029
 5745TIP3    H141430   5.661   0.382   8.046  1.4597  0.5434  0.1441
 5745TIP3    H241431   5.765   0.292   7.983  0.2910  0.2277 -1.3789
 5746TIP3   OH241432   5.382   4.977   7.363  0.4415  0.0138 -0.0544
 5746TIP3    H141433   5.403   4.884   7.362 -1.2374 -0.4883  2.3354
 5746TIP3    H241434   5.375   4.999   7.456 -2.8678  1.5456 -0.5309
 5747TIP3   OH241435   3.171   3.192   8.162  0.8249 -0.6615  0.6278
 5747TIP3    H141436   3.093   3.183   8.217  0.5786  0.4260  0.4843
 5747TIP3    H241437   3.215   3.271   8.195  0.8518 -0.1893 -0.4880
 5748TIP3   OH241438   5.995   1.486   5.733  0.1913 -0.1407 -0.4229
 5748TIP3    H141439   5.914   1.524   5.769  0.7803 -1.3305  2.3666
 5748TIP3    H241440   5.993   1.511   5.640 -1.6678  2.7936  0.2529
 5749TIP3   OH241441   2.999   0.058   8.508 -0.6005 -0.0547 -0.2447
 5749TIP3    H141442   2.940  -0.010   8.541 -0.9378  0.4377  0.1866
 5749TIP3    H241443   2.941   0.123   8.468 -0.2412 -0.3138 -1.2155
 5750TIP3   OH241444   3.450   4.594   7.356 -0.2393 -0.4349 -0.0967
 5750TIP3    H141445   3.396   4.533   7.307  1.1119 -0.6871 -1.3336
 5750TIP3    H241446   3.523   4.615   7.297  1.0497 -0.1582  1.5197
 5751TIP3   OH241447   0.288   1.284   9.396  0.1088 -0.0759  0.3150
 5751TIP3    H141448   0.250   1.356   9.447  0.9954  0.7688 -0.2039
 5751TIP3    H241449   0.213   1.246   9.350 -0.1884  1.4270 -0.5168
 5752TIP3   OH241450   1.329   4.454   7.587 -0.5074 -0.1633 -0.6996
 5752TIP3    H141451   1.419   4.445   7.616 -1.3866 -0.1638  2.4082
 5752TIP3    H241452   1.333   4.515   7.514  1.6907  2.9737  1.7738
 5753TIP3   OH241453   6.705   1.676   7.887  0.3815 -0.1039 -0.1137
 5753TIP3    H141454   6.718   1.661   7.793  2.6288 -0.2041  0.1529
 5753TIP3    H241455   6.716   1.771   7.897 -0.7142  0.0243 -0.0480
 5754TIP3   OH241456   0.696   4.772   7.921 -0.0109 -0.0149 -0.5264
 5754TIP3    H141457   0.638   4.787   7.995  0.0800 -0.9910 -0.2436
 5754TIP3    H241458   0.741   4.856   7.909  0.8384 -0.1668  1.2790
 5755TIP3   OH241459   3.144   0.703   8.840  0.6049  0.4767  0.1404
 5755TIP3    H141460   3.086   0.756   8.785  0.3895 -0.8714 -0.9999
 5755TIP3    H241461   3.232   0.724   8.808  0.4774 -0.3513 -0.8370
 5756TIP3   OH241462   4.866   0.030   6.278  0.6456  0.3421  0.4724
 5756TIP3    H141463   4.851  -0.063   6.266  1.1151  0.2053  0.9366
 5756TIP3    H241464   4.815   0.052   6.356 -0.5626  0.7621 -0.3972
 5757TIP3   OH241465   3.601   5.463   7.633 -1.0458  0.0229 -0.2109
 5757TIP3    H141466   3.570   5.395   7.693 -0.5039 -0.2212 -0.2045
 5757TIP3    H241467   3.663   5.418   7.576  2.0755  1.1960  2.0244
 5758TIP3   OH241468   2.281   0.054   6.906  0.0060  0.2301  0.6343
 5758TIP3    H141469   2.242   0.058   6.994  0.3001 -0.7472  0.8236
 5758TIP3    H241470   2.333  -0.026   6.907 -0.7219 -0.2879 -0.7275
 5759TIP3   OH241471   2.400   3.979   7.192  0.4334  0.1025 -0.0960
 5759TIP3    H141472   2.411   4.050   7.130  1.1228  0.0171 -0.0745
 5759TIP3    H241473   2.488   3.960   7.224  0.4037 -1.4174 -0.8359
 5760TIP3   OH241474   5.062   6.434   5.923 -0.2151 -0.5434 -0.7828
 5760TIP3    H141475   5.025   6.410   6.008 -0.3446  1.1625 -0.3249
 5760TIP3    H241476   4.995   6.488   5.882  0.7548  0.5881 -0.9538
 5761TIP3   OH241477   4.307   6.234   7.704 -0.6664 -0.1919 -0.6396
 5761TIP3    H141478   4.379   6.197   7.754 -1.0313  0.4750  0.4074
 5761TIP3    H241479   4.252   6.158   7.681 -2.1297 -0.3008  2.6215
 5762TIP3   OH241480   1.963   2.504   6.226 -0.0342  0.1216  0.1428
 5762TIP3    H141481   1.874   2.524   6.197  0.2663  2.4504  0.6587
 5762TIP3    H241482   2.019   2.529   6.152  0.2042 -2.6169 -0.7344
 5763TIP3   OH241483   6.541   3.921   7.419  0.3614  0.6096  0.0244
 5763TIP3    H141484   6.560   3.830   7.396 -2.2190 -0.5300  1.8843
 5763TIP3    H241485   6.460   3.941   7.373 -1.0073  0.6778  2.2931
 5764TIP3   OH241486   4.717   2.121   7.976  0.4605  0.6134 -0.5327
 5764TIP3    H141487   4.677   2.125   7.889 -1.4317  0.0419  0.2545
 5764TIP3    H241488   4.643   2.114   8.036  1.7672 -0.8009  1.0119
 5765TIP3   OH241489   6.587   2.561   6.873 -0.3949  0.1452 -0.1856
 5765TIP3    H141490   6.672   2.544   6.914 -0.7810 -1.4845  0.0189
 5765TIP3    H241491   6.547   2.628   6.928  1.0248  1.4603 -0.6946
 5766TIP3   OH241492   5.739   2.683   7.998 -0.1476  0.3707  0.0023
 5766TIP3    H141493   5.755   2.750   7.932 -0.1970 -1.5740 -2.1096
 5766TIP3    H241494   5.644   2.672   7.999 -0.1601  0.5012  0.5305
 5767TIP3   OH241495   2.471   3.679   6.045  0.3118 -0.0869  0.0145
 5767TIP3    H141496   2.487   3.597   5.999 -0.6713 -0.2246 -0.1128
 5767TIP3    H241497   2.557   3.707   6.075  0.7086 -0.9842 -0.2445
 5768TIP3   OH241498   1.742   3.596   6.842  0.5721  0.1562 -0.2128
 5768TIP3    H141499   1.756   3.646   6.922 -0.8040  0.4439 -0.1332
 5768TIP3    H241500   1.824   3.605   6.793  1.5897 -0.3722  1.3301
 5769TIP3   OH241501   6.314   0.977   8.451  0.1026  0.6239  0.0859
 5769TIP3    H141502   6.230   1.022   8.457  0.2694  0.8945  0.4176
 5769TIP3    H241503   6.365   1.010   8.525  0.9057  1.3105 -0.7519
 5770TIP3   OH241504   6.295   2.889   6.986  0.1101  0.4045 -0.3485
 5770TIP3    H141505   6.241   2.919   7.059  0.3061  1.0328 -0.4567
 5770TIP3    H241506   6.234   2.884   6.912  0.1997  1.1591 -0.4822
 5771TIP3   OH241507   5.892   5.026   6.729 -0.3983 -0.3228 -0.0236
 5771TIP3    H141508   5.903   4.951   6.670  1.9983 -0.3005  0.2888
 5771TIP3    H241509   5.962   5.016   6.793 -2.0004  0.4857  1.9643
 5772TIP3   OH241510   3.696   1.332   8.979  0.3659  0.4154 -0.0608
 5772TIP3    H141511   3.711   1.238   8.964  0.7454  0.0191  2.4216
 5772TIP3    H241512   3.764   1.357   9.042  0.5123  2.4892 -0.9748
 5773TIP3   OH241513   6.181   3.216   6.756 -0.5161 -0.0062  0.3080
 5773TIP3    H141514   6.242   3.259   6.816 -1.1645  1.2875  0.0877
 5773TIP3    H241515   6.107   3.276   6.751 -0.0168  0.5054 -2.6650
 5774TIP3   OH241516   2.609   6.413   9.437  0.2094 -0.0713  0.0353
 5774TIP3    H141517   2.682   6.356   9.412 -0.8968 -1.5228 -0.0283
 5774TIP3    H241518   2.531   6.365   9.411 -0.8185  0.9203  1.1308
 5775TIP3   OH241519   2.441   5.689   5.873  0.1243  0.0646 -0.4821
 5775TIP3    H141520   2.469   5.638   5.797  0.7413  0.6641 -0.6792
 5775TIP3    H241521   2.347   5.699   5.863  0.1146 -0.3859 -0.8438
 5776TIP3   OH241522   0.970   1.924   7.203  0.6384 -0.8271  0.4542
 5776TIP3    H141523   0.972   1.971   7.120 -0.3853 -1.1733  0.2226
 5776TIP3    H241524   0.969   1.993   7.270 -2.0697 -0.4376  0.1007
 5777TIP3   OH241525   3.641   2.500   6.139 -0.2924  0.1350  0.2601
 5777TIP3    H141526   3.586   2.497   6.217 -0.7683 -0.9268 -0.0841
 5777TIP3    H241527   3.657   2.593   6.124 -2.2128  0.5141  0.2277
 5778TIP3   OH241528   3.007   6.296   6.746 -0.3128 -0.1761  0.0337
 5778TIP3    H141529   3.087   6.245   6.757 -0.9348 -1.3848 -0.7869
 5778TIP3    H241530   3.027   6.381   6.786  1.3001 -0.5033  0.0005
 5779TIP3   OH241531   5.038   4.443   8.802 -0.1380 -0.1560  0.0918
 5779TIP3    H141532   4.944   4.428   8.809 -0.2173  0.3023  0.0342
 5779TIP3    H241533   5.050   4.534   8.829  0.4110 -0.5144  1.1207
 5780TIP3   OH241534   5.740   5.515   8.170 -0.6915  0.5222  0.6359
 5780TIP3    H141535   5.689   5.520   8.251 -1.8564 -1.4242  0.0755
 5780TIP3    H241536   5.699   5.579   8.112 -1.5236  0.0847  0.7235
 5781TIP3   OH241537   3.160   4.001   8.160 -0.2940  0.2743  0.1765
 5781TIP3    H141538   3.221   3.930   8.180 -0.9338 -0.2617  0.2897
 5781TIP3    H241539   3.188   4.033   8.074  1.0163  1.0103  0.8429
 5782TIP3   OH241540   3.853   3.345   7.830  0.3706  0.1796 -0.4596
 5782TIP3    H141541   3.851   3.440   7.845 -1.1614 -0.0035  0.6984
 5782TIP3    H241542   3.946   3.322   7.839  0.6268  1.4018  0.3090
 5783TIP3   OH241543   6.188   0.897   9.494 -0.0841  0.1642  0.6303
 5783TIP3    H141544   6.267   0.883   9.547  1.4060 -0.1806 -1.5652
 5783TIP3    H241545   6.141   0.813   9.499  0.7143 -0.3097  0.3655
 5784TIP3   OH241546   5.443   3.329   5.462 -0.6302 -0.2440  0.1373
 5784TIP3    H141547   5.537   3.311   5.475 -0.2996 -0.2789 -1.9040
 5784TIP3    H241548   5.410   3.251   5.418 -1.5660 -0.1071  0.5825
 5785TIP3   OH241549   0.849   3.009   6.308  0.1181  0.0611 -0.0534
 5785TIP3    H141550   0.867   2.916   6.319  1.5490 -0.1453 -2.9984
 5785TIP3    H241551   0.760   3.013   6.275 -1.0337  0.0656  2.7904
 5786TIP3   OH241552   2.934   1.467   6.154 -0.1789 -0.0501 -0.1513
 5786TIP3    H141553   2.979   1.542   6.194  0.0782 -0.0736 -0.3927
 5786TIP3    H241554   2.842   1.492   6.153 -0.0199  0.5463 -0.8331
 5787TIP3   OH241555   3.208   3.097   8.509  0.1223 -0.1442 -0.1775
 5787TIP3    H141556   3.176   3.101   8.599  0.1418 -1.0955 -0.1197
 5787TIP3    H241557   3.187   3.008   8.480 -0.6198  0.3983 -1.3940
 5788TIP3   OH241558   5.137   1.830   8.423  0.3674  0.4645  0.1520
 5788TIP3    H141559   5.125   1.888   8.498  1.2191  2.1781 -0.9781
 5788TIP3    H241560   5.065   1.851   8.364  1.5104  1.5672 -0.9423
 5789TIP3   OH241561   5.760   0.512   6.625 -0.8928 -0.7852 -0.1237
 5789TIP3    H141562   5.726   0.580   6.683 -0.5191 -1.6787  1.1857
 5789TIP3    H241563   5.854   0.509   6.644 -0.8374 -1.4019 -0.4580
 5790TIP3   OH241564   1.502   5.780   6.769  0.5225  0.3366 -0.5062
 5790TIP3    H141565   1.582   5.770   6.821  1.0358  0.5726 -1.2273
 5790TIP3    H241566   1.461   5.859   6.803  0.5705  0.1913 -0.1021
 5791TIP3   OH241567   2.286   2.808   6.038 -0.7850 -0.0800 -0.0191
 5791TIP3    H141568   2.223   2.741   6.011 -0.8830 -0.1458  0.3716
 5791TIP3    H241569   2.339   2.765   6.105  0.5819 -0.4916 -1.3024
 5792TIP3   OH241570   0.486   0.913   6.258  0.3045 -0.4045 -0.0559
 5792TIP3    H141571   0.507   0.831   6.215 -2.0476 -1.3783  0.4910
 5792TIP3    H241572   0.541   0.914   6.336  1.0160 -0.9827 -0.5312
 5793TIP3   OH241573   1.959   0.814   6.195  0.0607  0.3251  0.6821
 5793TIP3    H141574   2.052   0.791   6.204  0.2376  0.5323 -0.4923
 5793TIP3    H241575   1.937   0.790   6.105 -1.5341 -1.4764  1.4692
 5794TIP3   OH241576   5.245   0.091   8.435  0.8093 -0.1631  0.2097
 5794TIP3    H141577   5.272   0.176   8.401 -0.8940  0.8411  1.2635
 5794TIP3    H241578   5.264   0.095   8.528 -0.7705 -0.2947  0.5536
 5795TIP3   OH241579   5.996   6.506   6.919  0.1114  0.4026 -0.4608
 5795TIP3    H141580   5.993   6.544   6.831  0.1833  1.7648  0.0918
 5795TIP3    H241581   6.089   6.502   6.941  0.2751 -2.1740 -1.3235
 5796TIP3   OH241582   2.382   0.225   6.551  0.1320 -0.5251  0.8348
 5796TIP3    H141583   2.469   0.185   6.556  2.0104  3.1767  1.3622
 5796TIP3    H241584   2.399   0.317   6.532 -3.7716  0.2582  0.2832
 5797TIP3   OH241585   3.493   6.617   8.098  0.1907  0.1970 -0.3737
 5797TIP3    H141586   3.455   6.530   8.112 -0.3063  0.3658 -0.6411
 5797TIP3    H241587   3.587   6.604   8.109  0.1729 -0.4820 -0.9069
 5798TIP3   OH241588   5.779   0.858   5.868 -0.5819 -0.0465 -0.7075
 5798TIP3    H141589   5.869   0.859   5.902 -0.3408 -0.7005 -1.3059
 5798TIP3    H241590   5.774   0.937   5.813  0.5102 -1.3442 -2.8137
 5799TIP3   OH241591   6.657   2.287   6.764 -0.0447 -0.0766  0.4148
 5799TIP3    H141592   6.654   2.377   6.797 -2.5523  0.1585 -0.2970
 5799TIP3    H241593   6.581   2.245   6.804  0.4528 -1.5709 -0.1639
 5800TIP3   OH241594   2.977   0.382   8.828 -0.0323 -0.2888  0.0807
 5800TIP3    H141595   2.928   0.443   8.773 -0.5137 -0.4984  0.2683
 5800TIP3    H241596   2.938   0.297   8.811  0.3814 -0.4889  0.1098
 5801TIP3   OH241597   1.514   4.887   7.519 -0.0404  0.4053  0.0204
 5801TIP3    H141598   1.603   4.917   7.501 -1.1340  2.9306 -1.6497
 5801TIP3    H241599   1.490   4.932   7.601  0.3272 -0.6169  0.7090
 5802TIP3   OH241600   3.148   6.452   8.689  0.1885 -0.4014 -0.1145
 5802TIP3    H141601   3.201   6.484   8.616 -0.2318  1.2561  0.2665
 5802TIP3    H241602   3.209   6.442   8.762  0.1928  0.3164 -0.0173
 5803TIP3   OH241603   4.579   2.493   6.939 -0.1181 -0.8008 -0.3679
 5803TIP3    H141604   4.538   2.471   6.855  1.0911  0.7520 -1.4248
 5803TIP3    H241605   4.648   2.427   6.949  0.1334 -0.6303 -0.9211
 5804TIP3   OH241606   0.232   0.916   7.151 -0.1085  0.4969  0.2456
 5804TIP3    H141607   0.218   0.966   7.232  1.3738 -0.3792  1.0888
 5804TIP3    H241608   0.179   0.961   7.086  1.0376  3.0801  0.9835
 5805TIP3   OH241609   0.424   1.272   8.737 -0.2948  0.1804 -0.3058
 5805TIP3    H141610   0.498   1.275   8.797  0.0278 -0.6538 -0.6396
 5805TIP3    H241611   0.463   1.289   8.651 -0.4688 -0.3461 -0.4941
 5806TIP3   OH241612   6.140   3.133   6.283 -0.2610 -0.3679  0.0517
 5806TIP3    H141613   6.202   3.122   6.210  0.3041  0.5404  0.3794
 5806TIP3    H241614   6.063   3.082   6.257  0.8111 -1.9807 -0.1180
 5807TIP3   OH241615   3.617   5.734   8.521 -0.0609 -0.2581 -0.7286
 5807TIP3    H141616   3.576   5.732   8.435  1.8877 -2.1467 -1.7275
 5807TIP3    H241617   3.639   5.642   8.539  1.0265  0.2926  1.0437
 5808TIP3   OH241618   0.246   6.224   8.119 -0.3858  0.6206  0.0449
 5808TIP3    H141619   0.253   6.137   8.080  1.6410  1.3501 -1.3679
 5808TIP3    H241620   0.152   6.235   8.137 -0.7057 -1.7837  0.1908
 5809TIP3   OH241621   5.821   1.463   7.395 -0.0741  0.2605  0.2207
 5809TIP3    H141622   5.816   1.552   7.429  1.5859  0.3031  0.4498
 5809TIP3    H241623   5.731   1.430   7.400 -0.3459  1.1652  2.1985
 5810TIP3   OH241624   2.820   0.316   7.781  0.4422  0.2304  0.5626
 5810TIP3    H141625   2.904   0.327   7.825  0.4699 -0.6971  0.7605
 5810TIP3    H241626   2.757   0.359   7.839  0.8421  1.3734  0.1615
 5811TIP3   OH241627   5.936   4.144   6.649 -0.3667 -0.2623  0.8186
 5811TIP3    H141628   5.886   4.150   6.731 -0.0542 -2.1513  1.1842
 5811TIP3    H241629   5.983   4.228   6.644 -2.8519  1.2153  0.8949
 5812TIP3   OH241630   1.656   6.698   8.332  0.3960  0.0190 -0.5395
 5812TIP3    H141631   1.593   6.770   8.330  0.6235  0.2049 -0.8608
 5812TIP3    H241632   1.740   6.739   8.352  0.4000 -0.2479  0.0410
 5813TIP3   OH241633   0.189   0.360   7.145  0.5313  0.1878  0.3472
 5813TIP3    H141634   0.278   0.379   7.177  0.3971 -0.5770  1.2266
 5813TIP3    H241635   0.153   0.301   7.210 -1.0813  1.4342  0.6527
 5814TIP3   OH241636   1.304   0.335   6.511  0.1097 -0.3436  0.7252
 5814TIP3    H141637   1.238   0.336   6.580 -0.1096 -1.1185  0.5418
 5814TIP3    H241638   1.314   0.426   6.485 -0.2557 -0.1233  1.3537
 5815TIP3   OH241639   0.640   0.753   7.009 -0.4309 -0.0975  0.8113
 5815TIP3    H141640   0.595   0.798   7.081  0.7969  0.6688  1.1389
 5815TIP3    H241641   0.570   0.730   6.948 -1.1138  2.8980  0.2925
 5816TIP3   OH241642   4.432   0.730   5.835 -0.0279 -0.1223  0.1608
 5816TIP3    H141643   4.519   0.753   5.869  0.7004 -0.9125 -1.0883
 5816TIP3    H241644   4.418   0.790   5.762 -0.3721 -0.2348  0.1356
 5817TIP3   OH241645   2.057   3.631   6.345 -0.3516 -0.0686  0.0502
 5817TIP3    H141646   2.064   3.642   6.250  2.9666 -0.0381  0.1850
 5817TIP3    H241647   2.124   3.689   6.381 -0.3617 -1.3528  2.3097
 5818TIP3   OH241648   6.010   6.293   5.965 -0.1720 -0.0725 -0.1281
 5818TIP3    H141649   5.974   6.212   5.930 -1.5160 -0.3852  1.8152
 5818TIP3    H241650   6.082   6.266   6.022 -0.1750  0.1465 -0.0169
 5819TIP3   OH241651   4.510   5.466   8.182 -0.5447  0.1163  0.3101
 5819TIP3    H141652   4.596   5.506   8.197 -0.7908  0.9076 -0.2972
 5819TIP3    H241653   4.467   5.525   8.121  0.4523 -2.9413 -3.7322
 5820TIP3   OH241654   5.058   0.093   8.896  0.1283  0.6287 -0.4990
 5820TIP3    H141655   4.972   0.128   8.876 -0.5001 -0.4659  0.1781
 5820TIP3    H241656   5.050   0.059   8.986  1.7271  1.9628  0.2127
 5821TIP3   OH241657   6.421   4.593   8.093  0.0845 -0.3080 -0.1452
 5821TIP3    H141658   6.337   4.629   8.122 -0.9864 -2.2981 -0.6295
 5821TIP3    H241659   6.466   4.668   8.055 -1.3334  0.8814  0.3817
 5822TIP3   OH241660   4.463   4.592   6.573  0.4144  0.0453  0.2259
 5822TIP3    H141661   4.541   4.589   6.628  0.2746  3.9232  0.9494
 5822TIP3    H241662   4.481   4.664   6.511 -1.9063 -0.0761 -0.6909
 5823TIP3   OH241663   2.715   0.905   8.001  0.1845 -0.0193 -0.2726
 5823TIP3    H141664   2.721   0.853   8.082 -1.2543  0.4959  0.1760
 5823TIP3    H241665   2.803   0.942   7.991  0.8468 -1.3763  0.1622
 5824TIP3   OH241666   0.412   2.067   6.177  0.7130 -0.1296  0.1580
 5824TIP3    H141667   0.377   1.994   6.125 -1.4575 -0.1043  1.4963
 5824TIP3    H241668   0.481   2.026   6.230  0.0154 -1.0860  0.3652
 5825TIP3   OH241669   1.608   6.415   7.526 -0.4815 -0.4603 -0.0146
 5825TIP3    H141670   1.686   6.407   7.582 -0.2589 -0.2341 -0.2909
 5825TIP3    H241671   1.630   6.484   7.464 -0.8817 -0.4386 -0.1355
 5826TIP3   OH241672   0.286   2.146   7.581 -0.1664  0.2892 -0.2716
 5826TIP3    H141673   0.251   2.206   7.515  0.2418 -0.0029 -0.7590
 5826TIP3    H241674   0.243   2.172   7.663 -0.6219  0.6993 -0.6387
 5827TIP3   OH241675   4.448   4.588   8.113 -0.0988 -0.4771 -0.2372
 5827TIP3    H141676   4.532   4.630   8.097  0.5068 -1.7181 -0.4782
 5827TIP3    H241677   4.422   4.618   8.200  0.2134  0.5041 -0.4677
 5828TIP3   OH241678   0.249   0.477   9.587 -0.2986  0.3720 -0.1086
 5828TIP3    H141679   0.202   0.548   9.629 -0.6109  2.2134 -3.2819
 5828TIP3    H241680   0.185   0.405   9.582 -0.0028 -0.2565  3.0365
 5829TIP3   OH241681   1.874   2.072   7.125  0.6844 -0.0605  0.2701
 5829TIP3    H141682   1.906   2.121   7.200 -0.8576 -0.0254  0.9268
 5829TIP3    H241683   1.884   2.132   7.051  1.3177  0.2435  0.5928
 5830TIP3   OH241684   3.173   3.502   7.991 -0.4020 -0.2810  0.3603
 5830TIP3    H141685   3.120   3.548   8.056  0.8042  0.0710  1.1273
 5830TIP3    H241686   3.254   3.481   8.037  0.8490  0.7490 -1.2701
 5831TIP3   OH241687   2.395   2.903   8.002 -0.3147  0.2296 -0.2758
 5831TIP3    H141688   2.473   2.882   8.053  0.2649  0.1573 -1.1812
 5831TIP3    H241689   2.413   2.869   7.915 -0.6260  1.7385 -0.9682
 5832TIP3   OH241690   1.022   1.067   8.369  0.5255 -0.1652  0.1412
 5832TIP3    H141691   1.075   0.996   8.406 -0.3508  0.4621  2.8627
 5832TIP3    H241692   1.039   1.141   8.428 -1.2959  0.8272 -0.5241
 5833TIP3   OH241693   1.529   5.946   6.215 -0.1270  0.1052  0.1109
 5833TIP3    H141694   1.498   6.034   6.195  0.5392  0.4022  0.3545
 5833TIP3    H241695   1.545   5.947   6.309  2.3449  0.5523 -0.2404
 5834TIP3   OH241696   5.711   6.161   6.077 -0.1248  0.0658 -0.1330
 5834TIP3    H141697   5.709   6.249   6.115  1.0374  0.1816 -0.3127
 5834TIP3    H241698   5.619   6.140   6.060 -0.3024  2.2353 -2.3321
 5835TIP3   OH241699   5.220   3.640   7.314  0.4723 -0.5531 -0.0011
 5835TIP3    H141700   5.188   3.730   7.312  0.6456 -0.4991 -1.9832
 5835TIP3    H241701   5.142   3.588   7.337 -0.5605 -0.2074 -2.4535
 5836TIP3   OH241702   0.510   2.279   9.038  0.2826  0.2894  1.0404
 5836TIP3    H141703   0.480   2.286   8.948  0.9336  0.1894  0.8126
 5836TIP3    H241704   0.561   2.198   9.040  0.9157  0.6839  1.3075
 5837TIP3   OH241705   3.603   3.635   7.341  0.5457 -0.2770  0.2153
 5837TIP3    H141706   3.635   3.583   7.414 -0.3459  0.1589  0.9254
 5837TIP3    H241707   3.551   3.574   7.289 -1.5017  0.1214  1.6826
 5838TIP3   OH241708   0.442   1.570   6.263 -0.0221 -0.6537 -0.3589
 5838TIP3    H141709   0.373   1.508   6.243 -1.0920  0.3843 -0.0174
 5838TIP3    H241710   0.511   1.517   6.304 -0.9442 -1.5891  0.0291
 5839TIP3   OH241711   3.637   5.974   7.727  0.0075  0.1621  1.0872
 5839TIP3    H141712   3.691   6.038   7.772  1.2309  0.3850 -0.6201
 5839TIP3    H241713   3.576   6.026   7.675  0.9065 -0.0401 -0.1910
 5840TIP3   OH241714   5.280   4.613   7.567 -0.4810  0.0878  0.4822
 5840TIP3    H141715   5.252   4.667   7.641  1.1938 -0.7224  1.7606
 5840TIP3    H241716   5.361   4.654   7.537  0.2833 -1.1237  0.8422
 5841TIP3   OH241717   5.146   0.213   6.987 -0.2730 -0.0218  0.3597
 5841TIP3    H141718   5.169   0.120   6.992 -0.8715 -0.3022 -1.3043
 5841TIP3    H241719   5.183   0.252   7.066  1.4686 -1.3538  0.2518
 5842TIP3   OH241720   3.117   3.746   5.872  0.0065  0.2881  0.2771
 5842TIP3    H141721   3.039   3.800   5.860  0.3904  0.9313  0.5736
 5842TIP3    H241722   3.148   3.729   5.783 -0.5350 -0.0695  0.1537
 5843TIP3   OH241723   4.226   4.952   6.889  0.9786 -0.1323 -0.0019
 5843TIP3    H141724   4.163   4.965   6.960 -0.8343  3.1031 -1.9311
 5843TIP3    H241725   4.299   5.009   6.912  0.3095  1.0607 -0.7210
 5844TIP3   OH241726   4.773   1.345   6.599  0.0752 -0.1020 -0.0433
 5844TIP3    H141727   4.696   1.402   6.599 -0.2917 -0.5190 -1.9542
 5844TIP3    H241728   4.750   1.274   6.660 -1.5831 -0.8215 -1.4000
 5845TIP3   OH241729   0.684   1.769   6.932 -0.2397 -0.1546  0.3286
 5845TIP3    H141730   0.618   1.700   6.931  0.3538 -0.8204  2.4663
 5845TIP3    H241731   0.659   1.825   7.006  0.4816  0.7270 -0.0695
 5846TIP3   OH241732   5.295   0.062   6.625 -0.5691  0.1779  0.2440
 5846TIP3    H141733   5.317  -0.009   6.564  0.3559  1.4035 -0.8987
 5846TIP3    H241734   5.204   0.084   6.604  0.5115  2.4916 -2.8403
 5847TIP3   OH241735   3.311   3.225   7.734 -0.2198 -0.2136  0.5969
 5847TIP3    H141736   3.308   3.318   7.714  1.3063 -0.0057  1.2143
 5847TIP3    H241737   3.384   3.191   7.682 -0.8154 -1.0977  0.3000
 5848TIP3   OH241738   2.639   0.016   6.274 -0.4201  0.2206 -0.0450
 5848TIP3    H141739   2.580  -0.059   6.283  0.9623 -0.8504  0.3648
 5848TIP3    H241740   2.727  -0.021   6.282  0.3066  1.8650 -0.0040
 5849TIP3   OH241741   1.420   6.527   9.117  0.4767 -0.6608 -0.4132
 5849TIP3    H141742   1.389   6.564   9.034 -0.7499  0.0650  0.3409
 5849TIP3    H241743   1.345   6.481   9.153  0.6131  0.0513  0.8510
 5850TIP3   OH241744   4.328   4.151   6.196 -0.1792  0.2681  0.4969
 5850TIP3    H141745   4.276   4.212   6.247 -0.6641 -0.2490  0.6395
 5850TIP3    H241746   4.411   4.195   6.182 -0.2848  0.6887  1.1613
 5851TIP3   OH241747   3.692   1.429   6.483 -0.0283  0.0452  0.1334
 5851TIP3    H141748   3.767   1.488   6.494  0.3060 -0.0308 -1.4410
 5851TIP3    H241749   3.663   1.444   6.393 -1.2216 -0.7347  0.3678
 5852TIP3   OH241750   4.529   6.501   7.382  0.4622 -0.0080  0.2428
 5852TIP3    H141751   4.505   6.409   7.381  2.4773 -0.6348 -2.8221
 5852TIP3    H241752   4.510   6.532   7.293  0.7170  2.2965  0.9267
 5853TIP3   OH241753   5.078   2.144   8.289  0.1791  0.1491  0.2541
 5853TIP3    H141754   5.023   2.153   8.367 -0.4262  0.7021 -0.2262
 5853TIP3    H241755   5.165   2.122   8.323 -0.2411 -0.3171  1.0441
 5854TIP3   OH241756   4.747   2.794   6.631 -0.0780 -0.0654  0.4915
 5854TIP3    H141757   4.747   2.798   6.727  0.6547  0.2609  0.4793
 5854TIP3    H241758   4.743   2.885   6.603  1.0110 -0.0891  0.2152
 5855TIP3   OH241759   4.638   0.312   7.059  0.7709  0.3205  0.1485
 5855TIP3    H141760   4.717   0.274   7.021  0.1643 -1.0665  0.1985
 5855TIP3    H241761   4.601   0.367   6.990  0.8854 -0.3789 -0.4770
 5856TIP3   OH241762   5.352   4.439   5.783 -0.4774  0.2277 -0.3328
 5856TIP3    H141763   5.436   4.481   5.765 -0.5243  0.7294  0.5488
 5856TIP3    H241764   5.299   4.508   5.823 -0.4189 -0.7599  1.5540
 5857TIP3   OH241765   5.749   5.991   8.402  0.4594 -0.3243  0.3300
 5857TIP3    H141766   5.700   6.055   8.454 -1.6874 -1.0729 -0.6082
 5857TIP3    H241767   5.810   6.044   8.351  0.0878  0.7796  0.9904
 5858TIP3   OH241768   4.530   0.704   7.113  0.2934  0.4717 -0.4319
 5858TIP3    H141769   4.600   0.769   7.102  0.2961  0.5840  0.2373
 5858TIP3    H241770   4.513   0.673   7.024 -0.7478  2.4728 -0.9888
 5859TIP3   OH241771   6.107   1.931   7.616  0.1328  0.1749  0.8350
 5859TIP3    H141772   6.100   1.869   7.689  1.6729  1.7964  2.4872
 5859TIP3    H241773   6.189   1.908   7.574 -0.1251  0.0453  0.4028
 5860TIP3   OH241774   4.300   1.010   8.953  0.1683  0.1738 -0.9711
 5860TIP3    H141775   4.339   1.051   9.030 -0.7637  0.0161 -0.4067
 5860TIP3    H241776   4.229   1.069   8.928  0.6888  0.4248 -1.9578
 5861TIP3   OH241777   5.318   2.126   6.713 -0.0253 -0.3331 -0.1691
 5861TIP3    H141778   5.287   2.042   6.680 -1.6618  0.3128 -0.3452
 5861TIP3    H241779   5.368   2.164   6.641 -0.7610 -0.3989 -0.7212
 5862TIP3   OH241780   2.385   2.267   7.782  0.0350  0.5202  0.7398
 5862TIP3    H141781   2.337   2.248   7.701 -0.7239 -1.1936  1.5443
 5862TIP3    H241782   2.398   2.182   7.822 -2.1358  1.5001  3.8560
 5863TIP3   OH241783   1.096   3.851   6.332  0.3037 -0.0418 -0.3005
 5863TIP3    H141784   1.090   3.820   6.423 -1.7852 -1.6333 -0.9161
 5863TIP3    H241785   1.067   3.942   6.337 -0.5353 -0.3363  0.5434
 5864TIP3   OH241786   6.130   5.259   7.600  0.2343  0.5351  0.1618
 5864TIP3    H141787   6.077   5.209   7.663 -0.1161  1.5792  0.7350
 5864TIP3    H241788   6.083   5.252   7.518 -1.0975  1.8142  0.7616
 5865TIP3   OH241789   6.042   4.546   5.803 -0.2525 -0.2606 -0.6901
 5865TIP3    H141790   6.002   4.533   5.717  0.4376  1.3155 -1.2963
 5865TIP3    H241791   6.103   4.619   5.790  1.0865 -1.0622  0.7500
 5866TIP3   OH241792   4.248   6.491   5.820  0.1026 -0.1821 -0.1159
 5866TIP3    H141793   4.291   6.549   5.757 -0.5177 -0.0074 -0.3906
 5866TIP3    H241794   4.319   6.441   5.859  0.6607  0.8212  0.1829
 5867TIP3   OH241795   0.297   4.125   8.406  0.1553  0.7383  0.5587
 5867TIP3    H141796   0.245   4.127   8.486 -0.9228  1.2818 -0.1455
 5867TIP3    H241797   0.244   4.170   8.341  0.7094 -0.2797 -0.6494
 5868TIP3   OH241798   6.702   1.797   6.349 -0.1611 -0.0918 -0.5366
 5868TIP3    H141799   6.741   1.876   6.386  1.4292 -1.1951  0.2191
 5868TIP3    H241800   6.704   1.812   6.254 -0.8918  1.2109 -0.3683
 5869TIP3   OH241801   6.679   5.109   6.363 -0.0656  0.1213 -0.1674
 5869TIP3    H141802   6.661   5.090   6.271  1.1218  1.0381 -0.6172
 5869TIP3    H241803   6.741   5.181   6.360  0.4156 -0.2064  1.3548
 5870TIP3   OH241804   6.703   5.150   8.464  0.0268  0.3202 -0.3736
 5870TIP3    H141805   6.760   5.166   8.540  0.3842  1.5189 -0.8702
 5870TIP3    H241806   6.722   5.059   8.439 -0.6842 -0.3755  1.4327
 5871TIP3   OH241807   3.757   6.061   5.672  0.3548  0.4138  0.0551
 5871TIP3    H141808   3.813   5.998   5.627 -0.2259 -0.5883  0.6950
 5871TIP3    H241809   3.697   6.093   5.604  0.3209 -0.1117 -0.1652
 5872TIP3   OH241810   3.365   4.005   8.718 -0.1089  0.0382 -0.9320
 5872TIP3    H141811   3.377   4.042   8.630  0.4277  1.0363 -0.4587
 5872TIP3    H241812   3.272   4.020   8.737 -0.0799  0.4163 -1.0754
 5873TIP3   OH241813   2.450   1.911   5.870 -0.8567 -0.3863 -0.2354
 5873TIP3    H141814   2.367   1.873   5.900 -0.8027  0.0011  0.4143
 5873TIP3    H241815   2.513   1.888   5.938 -1.1322  2.1158  0.9721
 5874TIP3   OH241816   4.107   5.528   7.379 -0.0140 -0.1620 -0.0685
 5874TIP3    H141817   4.022   5.497   7.348 -0.2565  0.6814 -0.2829
 5874TIP3    H241818   4.152   5.449   7.409 -0.5373 -0.7350 -0.7512
 5875TIP3   OH241819   6.172   2.707   7.711  0.6358  0.5875  0.1049
 5875TIP3    H141820   6.170   2.646   7.638 -0.2113  0.8420 -0.1002
 5875TIP3    H241821   6.179   2.793   7.671  0.3475  0.7175  0.3298
 5876TIP3   OH241822   2.394   4.653   5.182 -0.3926 -0.1871  0.0458
 5876TIP3    H141823   2.406   4.738   5.223 -0.9781 -0.5070  0.8976
 5876TIP3    H241824   2.308   4.658   5.140 -0.8558 -0.6766  0.9164
 5877TIP3   OH241825   4.782   5.977   9.039  0.4213  0.1357  0.2510
 5877TIP3    H141826   4.751   6.047   9.097 -0.7525 -0.8527  0.8789
 5877TIP3    H241827   4.850   5.933   9.089  0.5137  0.2604  0.2349
 5878TIP3   OH241828   4.780   6.193   8.571 -0.4727  0.1110  0.4399
 5878TIP3    H141829   4.731   6.269   8.540 -1.1767  0.0985  1.4649
 5878TIP3    H241830   4.768   6.127   8.503  0.0944  0.8738 -0.4375
 5879TIP3   OH241831   5.161   2.989   6.216  0.4005  0.4474  0.5682
 5879TIP3    H141832   5.082   3.041   6.229 -0.3886 -0.8269  1.0644
 5879TIP3    H241833   5.130   2.898   6.218  1.8003 -0.0592  0.1998
 5880TIP3   OH241834   4.564   1.076   8.411  0.6113 -0.3615 -0.2807
 5880TIP3    H141835   4.613   1.036   8.482  1.0680 -0.6984 -0.7752
 5880TIP3    H241836   4.629   1.095   8.344 -0.0265 -1.6189 -1.3108
 5881TIP3   OH241837   4.216   2.773   6.036 -0.4968  0.2047  0.3514
 5881TIP3    H141838   4.199   2.681   6.058  1.5343 -0.4936 -0.6603
 5881TIP3    H241839   4.307   2.787   6.063 -0.2255  1.3785 -1.0364
 5882TIP3   OH241840   6.581   4.438   6.469 -0.0779  0.2011 -0.0656
 5882TIP3    H141841   6.642   4.398   6.408 -0.2249 -0.8802  0.4601
 5882TIP3    H241842   6.598   4.394   6.553 -0.4406  1.0592  0.4767
 5883TIP3   OH241843   5.210   1.710   7.750 -0.0223 -0.1880  0.2302
 5883TIP3    H141844   5.227   1.657   7.673 -0.9258 -1.3082  0.7617
 5883TIP3    H241845   5.187   1.646   7.818 -2.9141  0.9023  0.4454
 5884TIP3   OH241846   2.659   2.146   8.075 -0.0136 -0.3510  0.2651
 5884TIP3    H141847   2.716   2.175   8.146 -0.0806 -0.2338  0.2698
 5884TIP3    H241848   2.586   2.207   8.075  1.4416  1.5291 -1.8279
 5885TIP3   OH241849   1.145   0.544   7.068 -0.1173  0.3410 -0.2605
 5885TIP3    H141850   1.184   0.577   7.149  0.1993  0.8919 -0.6341
 5885TIP3    H241851   1.151   0.617   7.007 -1.0735  0.1971 -0.5473
 5886TIP3   OH241852   5.603   4.733   6.393 -0.4043 -0.3589  0.4671
 5886TIP3    H141853   5.583   4.696   6.479 -0.7820 -0.3027  0.4063
 5886TIP3    H241854   5.571   4.669   6.330  1.2190 -1.1162  0.3480
 5887TIP3   OH241855   2.548   5.869   6.369  0.2426  0.3079 -0.0868
 5887TIP3    H141856   2.588   5.922   6.438  0.5236 -2.2997  1.8849
 5887TIP3    H241857   2.610   5.798   6.353 -1.7278 -1.5979  0.1779
 5888TIP3   OH241858   2.113   6.477   9.005  0.0443 -0.1608  0.4203
 5888TIP3    H141859   2.109   6.390   8.964 -1.6244 -0.8826  1.9880
 5888TIP3    H241860   2.024   6.495   9.033  0.3907  2.0168  0.3068
 5889TIP3   OH241861   3.193   2.541   7.056  0.6616  0.3553  0.2072
 5889TIP3    H141862   3.124   2.549   7.122  1.3829  1.0050  0.9014
 5889TIP3    H241863   3.265   2.498   7.102  0.2365 -1.6970 -0.9091
 5890TIP3   OH241864   2.500   4.835   8.569 -0.3610  0.2238  0.1381
 5890TIP3    H141865   2.535   4.769   8.628 -0.1992  0.2890  0.1161
 5890TIP3    H241866   2.447   4.892   8.625  0.6430  0.9127  0.4276
 5891TIP3   OH241867   4.180   6.561   7.539 -0.1947 -0.0815  0.4156
 5891TIP3    H141868   4.185   6.601   7.452 -0.6238  1.6409  1.1270
 5891TIP3    H241869   4.267   6.576   7.577 -0.9597  2.2274  1.4677
 5892TIP3   OH241870   5.801   5.719   5.904 -0.0417 -0.1529  0.0233
 5892TIP3    H141871   5.712   5.732   5.871  0.1393  0.4265 -0.2504
 5892TIP3    H241872   5.858   5.750   5.834  0.3769 -0.3973  0.2470
 5893TIP3   OH241873   0.030   3.422   9.310  0.1972  0.1032  0.3761
 5893TIP3    H141874   0.011   3.513   9.333  1.0574  0.6529 -0.9589
 5893TIP3    H241875   0.075   3.386   9.387  0.1269  0.8914  0.7904
 5894TIP3   OH241876   3.297   4.831   7.482 -0.3559  0.0199 -0.4042
 5894TIP3    H141877   3.271   4.801   7.569  2.0796 -0.6013  0.1869
 5894TIP3    H241878   3.341   4.755   7.443  0.7287  1.0331 -1.2200
 5895TIP3   OH241879   2.472   3.387   8.887  0.2417 -0.4763 -0.8496
 5895TIP3    H141880   2.402   3.328   8.915  0.6889 -0.5380  0.1935
 5895TIP3    H241881   2.536   3.383   8.957  1.1651 -0.1944 -1.6565
 5896TIP3   OH241882   0.050   4.641   8.406 -0.5265 -0.2419  0.8284
 5896TIP3    H141883   0.057   4.616   8.498 -0.6211 -1.7129  0.4608
 5896TIP3    H241884   0.043   4.558   8.359 -0.5033  0.4865 -0.5102
 5897TIP3   OH241885   1.153   6.064   8.021 -0.3134 -0.8370 -0.5160
 5897TIP3    H141886   1.094   6.120   7.970 -1.0074  0.5203  1.6419
 5897TIP3    H241887   1.238   6.108   8.015 -0.3907 -0.6830 -0.4870
 5898TIP3   OH241888   2.306   3.087   7.576  0.0689  0.1326 -0.0486
 5898TIP3    H141889   2.294   2.997   7.548 -1.9152  0.2667  0.2833
 5898TIP3    H241890   2.272   3.139   7.503  0.5026  0.6104  0.0829
 5899TIP3   OH241891   0.488   2.174   8.258  0.4114 -0.0964  0.1789
 5899TIP3    H141892   0.547   2.194   8.330  0.6764  0.6342 -0.2321
 5899TIP3    H241893   0.546   2.158   8.183  0.1537 -1.1415  0.1792
 5900TIP3   OH241894   3.808   6.157   7.891  0.4950 -0.9593  0.0190
 5900TIP3    H141895   3.849   6.088   7.944 -0.3830 -1.6077 -0.1305
 5900TIP3    H241896   3.740   6.193   7.947 -1.0714 -2.2801 -0.9484
 5901TIP3   OH241897   0.317   6.637   7.700  0.5165 -0.4094 -0.2043
 5901TIP3    H141898   0.246   6.670   7.646 -0.0578 -0.3135  0.5916
 5901TIP3    H241899   0.285   6.645   7.790  1.6802 -0.0115  0.1976
 5902TIP3   OH241900   0.482   1.354   6.621 -0.1206  0.7243 -0.1167
 5902TIP3    H141901   0.432   1.286   6.575  0.7971  1.7828 -2.9453
 5902TIP3    H241902   0.536   1.306   6.683 -1.2858 -0.8697 -0.2714
 5903TIP3   OH241903   4.749   5.988   8.391  0.2306 -0.3068  0.3589
 5903TIP3    H141904   4.753   5.989   8.295 -1.3222  1.5906  0.2617
 5903TIP3    H241905   4.657   5.974   8.411  0.1378  1.7272  1.5166
 5904TIP3   OH241906   0.545   5.587   7.805  0.5461 -0.5715 -0.0366
 5904TIP3    H141907   0.538   5.537   7.723 -0.2922  2.5114 -1.9863
 5904TIP3    H241908   0.634   5.622   7.804  0.3113  0.0260  0.0420
 5905TIP3   OH241909   2.157   4.705   5.340 -0.5568  0.4734  0.4078
 5905TIP3    H141910   2.144   4.638   5.273 -1.1641 -0.3421  1.3015
 5905TIP3    H241911   2.070   4.741   5.355 -0.2124  1.6122 -0.1768
 5906TIP3   OH241912   0.914   1.890   6.502  0.6869  0.2612 -0.4865
 5906TIP3    H141913   0.935   1.850   6.587  0.6161 -0.7163 -0.9088
 5906TIP3    H241914   0.882   1.817   6.449  0.9987  0.8051 -1.4524
 5907TIP3   OH241915   0.170   4.634   7.801  0.2060  0.0233  0.4670
 5907TIP3    H141916   0.259   4.600   7.813  0.0890 -1.4994 -2.1960
 5907TIP3    H241917   0.181   4.708   7.740 -0.4175 -1.0461 -1.0045
 5908TIP3   OH241918   4.270   3.186   7.198 -0.2607  0.1754  0.7332
 5908TIP3    H141919   4.309   3.168   7.283  1.7472  0.3887 -0.1003
 5908TIP3    H241920   4.344   3.192   7.137 -1.6424 -0.3278 -1.1091
 5909TIP3   OH241921   3.515   2.503   6.408  0.1127 -0.3954  0.0743
 5909TIP3    H141922   3.550   2.420   6.442 -0.6688 -0.9760 -0.4873
 5909TIP3    H241923   3.479   2.547   6.484  0.6108 -0.5358  0.3948
 5910TIP3   OH241924   1.318   2.617   7.323 -0.4498 -0.4001  0.1826
 5910TIP3    H141925   1.294   2.698   7.278 -1.5900 -0.7128  0.1956
 5910TIP3    H241926   1.413   2.612   7.314 -0.3423  1.0163  0.3216
 5911TIP3   OH241927   5.287   1.995   7.502  0.4119 -0.0152  0.0031
 5911TIP3    H141928   5.333   2.014   7.584 -0.5750  0.0707  0.5484
 5911TIP3    H241929   5.273   2.081   7.462  1.1538 -0.0792 -0.4108
 5912TIP3   OH241930   6.073   2.384   8.113 -0.0963 -0.0718  0.8313
 5912TIP3    H141931   6.043   2.431   8.035  0.3685  0.4535  0.9620
 5912TIP3    H241932   6.015   2.308   8.118 -0.3396  0.0544  0.1568
 5913TIP3   OH241933   3.856   1.468   9.167  0.5049 -0.1320 -0.3215
 5913TIP3    H141934   3.860   1.534   9.098 -0.9948  1.4701  1.0113
 5913TIP3    H241935   3.774   1.488   9.214  0.9297 -1.8138  1.2521
 5914TIP3   OH241936   1.146   3.264   5.864 -0.0335 -0.1971  0.5928
 5914TIP3    H141937   1.134   3.332   5.930  2.1754  0.2320  0.6061
 5914TIP3    H241938   1.228   3.286   5.820 -0.6239 -1.3734 -1.2318
 5915TIP3   OH241939   2.406   3.672   5.632  0.1614  0.1615 -0.4709
 5915TIP3    H141940   2.339   3.604   5.623 -0.3426  0.8534 -2.6881
 5915TIP3    H241941   2.367   3.737   5.691 -0.5328 -0.1044 -0.6331
 5916TIP3   OH241942   4.084   2.714   5.766 -0.2176 -0.1400  0.2907
 5916TIP3    H141943   4.034   2.793   5.744  0.8097  0.6632  0.7353
 5916TIP3    H241944   4.157   2.746   5.819 -0.2343 -1.4912  1.1938
 5917TIP3   OH241945   5.676   2.530   8.553  0.2402 -0.2179 -0.5968
 5917TIP3    H141946   5.599   2.528   8.610 -0.1336 -1.1610 -1.0998
 5917TIP3    H241947   5.657   2.599   8.490 -0.1368 -0.3588 -0.6401
 5918TIP3   OH241948   4.027   5.018   7.961 -0.1627 -0.0514  0.1141
 5918TIP3    H141949   4.115   5.052   7.949 -0.1324  0.2865  1.2599
 5918TIP3    H241950   4.034   4.924   7.942  0.8904 -0.4339  2.1782
 5919TIP3   OH241951   5.935   2.309   7.265  0.0883  0.0586  0.4313
 5919TIP3    H141952   5.876   2.355   7.325  1.4454  2.5659 -0.0345
 5919TIP3    H241953   5.999   2.267   7.321 -1.2627 -1.5025  0.8750
 5920TIP3   OH241954   3.392   1.007   5.616  0.2457  0.5811 -0.0495
 5920TIP3    H141955   3.305   1.006   5.656 -0.2926  1.6483 -1.1422
 5920TIP3    H241956   3.409   0.915   5.594 -0.3957  0.3032  0.5771
 5921TIP3   OH241957   4.469   1.909   7.307 -0.5744  0.1923 -0.5712
 5921TIP3    H141958   4.420   1.862   7.375 -1.9626  2.0601 -0.2166
 5921TIP3    H241959   4.560   1.881   7.320 -0.8007  0.4466  2.0359
 5922TIP3   OH241960   5.805   2.929   8.611 -0.3911 -0.2297 -0.4436
 5922TIP3    H141961   5.842   2.880   8.537 -1.5832 -2.1018  0.1288
 5922TIP3    H241962   5.842   2.886   8.688 -0.0994  0.9316  0.0760
 5923TIP3   OH241963   4.641   1.130   7.982  0.3984 -0.1364  0.3550
 5923TIP3    H141964   4.617   1.047   7.941 -0.1042 -0.1685  0.6918
 5923TIP3    H241965   4.621   1.196   7.917  3.0378 -0.4172 -0.8387
 5924TIP3   OH241966   5.895   0.002   8.854  0.4389 -0.1758  0.9911
 5924TIP3    H141967   5.974  -0.017   8.904  1.4369  1.6448  0.1919
 5924TIP3    H241968   5.851   0.071   8.904  0.6901  0.6100  0.1629
 5925TIP3   OH241969   3.145   1.664   8.529  0.9943 -0.1174  0.9354
 5925TIP3    H141970   3.108   1.740   8.484 -0.6717 -2.3482 -1.7308
 5925TIP3    H241971   3.070   1.622   8.570  1.4548 -1.6375  0.2796
 5926TIP3   OH241972   6.159   5.629   6.335  0.0156 -0.3107 -0.3699
 5926TIP3    H141973   6.249   5.607   6.359  0.3082  1.0791 -0.1163
 5926TIP3    H241974   6.141   5.577   6.256  0.6657 -1.3728  0.1579
 5927TIP3   OH241975   0.696   5.922   5.537  0.2007  0.2757 -0.3237
 5927TIP3    H141976   0.666   5.899   5.625 -0.9312 -1.4020 -1.0773
 5927TIP3    H241977   0.773   5.976   5.550 -0.3652  0.6694  1.6965
 5928TIP3   OH241978   3.141   0.816   8.095 -0.3380  0.2653 -0.4316
 5928TIP3    H141979   3.230   0.834   8.126 -0.2782  0.0289 -0.4609
 5928TIP3    H241980   3.085   0.845   8.167 -0.1915 -0.4426 -0.0213
 5929TIP3   OH241981   2.628   5.086   6.719 -0.5396  0.2146 -0.3832
 5929TIP3    H141982   2.612   4.996   6.748  1.8068 -0.2285 -0.2733
 5929TIP3    H241983   2.600   5.087   6.627 -0.9514 -0.5206 -0.2711
 5930TIP3   OH241984   4.563   0.665   6.580 -0.3520  0.3825  0.4185
 5930TIP3    H141985   4.486   0.610   6.596 -0.2739  0.0405 -0.3110
 5930TIP3    H241986   4.535   0.726   6.511 -0.4261  1.2518  1.1965
 5931TIP3   OH241987   5.381   2.862   5.702  0.0046 -0.1590 -0.3281
 5931TIP3    H141988   5.304   2.840   5.754  1.5479 -0.5788  1.9142
 5931TIP3    H241989   5.387   2.957   5.708 -0.2000 -0.1462 -0.3123
 5932TIP3   OH241990   4.351   4.272   7.569  0.2805 -0.2246 -0.3395
 5932TIP3    H141991   4.412   4.329   7.616 -0.0165  0.6446 -0.9689
 5932TIP3    H241992   4.282   4.253   7.633 -0.5897  1.6836 -0.6242
 5933TIP3   OH241993   3.454   6.135   6.954  0.0674 -0.2767 -0.1198
 5933TIP3    H141994   3.547   6.124   6.933 -0.0766 -1.1563 -0.3659
 5933TIP3    H241995   3.435   6.062   7.013 -0.6389 -0.5675 -0.6853
 5934TIP3   OH241996   2.231   0.237   7.361 -1.0633  0.4367 -0.3243
 5934TIP3    H141997   2.211   0.174   7.292 -2.2346 -0.3689  0.6979
 5934TIP3    H241998   2.320   0.214   7.390 -0.1011  1.5012 -2.2624
 5935TIP3   OH241999   1.150   6.320   6.298  0.1334 -0.5343 -0.5734
 5935TIP3    H142000   1.170   6.357   6.384  2.2785 -0.2117 -1.1609
 5935TIP3    H242001   1.098   6.388   6.255  0.1527 -0.1428 -0.0005
 5936TIP3   OH242002   2.923   6.732   7.593 -0.4939  0.4771 -0.0352
 5936TIP3    H142003   2.974   6.704   7.668 -0.6900  1.2758  0.4122
 5936TIP3    H242004   2.849   6.779   7.631 -0.5015  1.0413 -0.7308
 5937TIP3   OH242005   3.141   6.113   5.445  0.7993 -0.1947  0.3043
 5937TIP3    H142006   3.130   6.068   5.361 -1.4070  0.3294  0.2719
 5937TIP3    H242007   3.125   6.045   5.511 -0.8653  0.1363  0.2632
 5938TIP3   OH242008   3.839   2.739   7.574  0.7055 -0.0978 -0.5920
 5938TIP3    H142009   3.906   2.703   7.632  0.6788  0.0066 -0.4964
 5938TIP3    H242010   3.862   2.831   7.565  1.2265 -0.2952 -1.4598
 5939TIP3   OH242011   6.526   3.248   6.483  0.1841  0.5428  0.1854
 5939TIP3    H142012   6.454   3.208   6.434  0.3240  1.2874 -0.6742
 5939TIP3    H242013   6.484   3.300   6.551 -0.1198  1.1999 -0.4896
 5940TIP3   OH242014   0.516   0.671   8.502  0.3362  0.2902 -0.1009
 5940TIP3    H142015   0.584   0.617   8.543 -0.0295  1.1864  1.7872
 5940TIP3    H242016   0.463   0.608   8.453 -0.5372 -1.2873  2.6298
 5941TIP3   OH242017   0.776   5.762   8.729  0.3321 -0.5632 -0.0535
 5941TIP3    H142018   0.685   5.756   8.698  0.1050  0.9469  0.2639
 5941TIP3    H242019   0.770   5.750   8.824  0.2259  1.2682  0.1986
 5942TIP3   OH242020   1.289   6.448   7.054  0.0638 -0.3666  0.5545
 5942TIP3    H142021   1.225   6.493   7.110  0.1202  0.0977  0.2458
 5942TIP3    H242022   1.313   6.513   6.988 -0.9784 -1.3161 -0.8201
 5943TIP3   OH242023   0.712   0.160   5.776  0.1458 -0.1082 -0.0936
 5943TIP3    H142024   0.702   0.087   5.837 -1.7032 -0.3215 -0.6010
 5943TIP3    H242025   0.779   0.215   5.816 -0.9236 -0.2826  2.0943
 5944TIP3   OH242026   4.207   5.979   7.601 -0.3031 -0.6378  0.0902
 5944TIP3    H142027   4.167   5.892   7.594  0.4537 -1.0534  0.7653
 5944TIP3    H242028   4.176   6.026   7.524  0.1291 -1.8580 -0.8550
 5945TIP3   OH242029   3.980   5.303   7.004  0.1111 -0.0698 -0.1331
 5945TIP3    H142030   4.072   5.284   6.983  0.1499 -0.2853  0.2342
 5945TIP3    H242031   3.950   5.356   6.930  0.7429  0.6346  0.0916
 5946TIP3   OH242032   1.323   4.017   8.557 -0.2061 -0.0831  0.0598
 5946TIP3    H142033   1.276   4.076   8.499 -0.0608 -1.3725 -1.4381
 5946TIP3    H242034   1.333   3.936   8.507  0.8524 -0.9056  1.5004
 5947TIP3   OH242035   1.275   1.658   7.467 -0.0795  0.1004 -0.3899
 5947TIP3    H142036   1.193   1.633   7.509 -0.5146  3.3836  0.9758
 5947TIP3    H242037   1.253   1.736   7.416  2.1026  0.8808 -0.2415
 5948TIP3   OH242038   5.434   3.059   6.269  0.0107  0.2648 -0.5897
 5948TIP3    H142039   5.453   2.966   6.280  0.4635  0.4962  0.9333
 5948TIP3    H242040   5.348   3.062   6.230 -1.2880 -0.8525  1.9290
 5949TIP3   OH242041   1.275   4.551   8.725 -0.3653 -0.2101 -0.1753
 5949TIP3    H142042   1.288   4.514   8.637  0.5038  0.5573 -0.3791
 5949TIP3    H242043   1.303   4.481   8.784  0.4162 -0.2253 -0.5459
 5950TIP3   OH242044   0.923   2.871   7.762 -0.1642  0.1743 -0.1697
 5950TIP3    H142045   0.979   2.939   7.726 -0.5572 -0.2778 -1.7472
 5950TIP3    H242046   0.834   2.903   7.747 -0.3773 -1.0058 -1.7344
 5951TIP3   OH242047   2.023   2.602   7.607  0.0793 -0.5697  0.6399
 5951TIP3    H142048   2.011   2.677   7.548  2.1570 -0.2920  0.5117
 5951TIP3    H242049   1.935   2.564   7.614 -0.5406  0.3290 -1.3516
 5952TIP3   OH242050   1.307   3.922   6.792 -0.5188 -0.7496 -0.1585
 5952TIP3    H142051   1.385   3.896   6.842  0.0647 -0.6154 -0.9708
 5952TIP3    H242052   1.238   3.931   6.857 -0.5145 -3.3771  0.2945
 5953TIP3   OH242053   0.157   0.679   6.909  0.8357 -0.6051 -0.1480
 5953TIP3    H142054   0.148   0.774   6.918  1.9458 -0.5301  0.3309
 5953TIP3    H242055   0.089   0.643   6.966  1.0384 -0.0927  0.4282
 5954TIP3   OH242056   5.700   4.940   5.941 -0.2016 -0.2296 -0.7922
 5954TIP3    H142057   5.675   4.864   5.992  0.9452  0.0443  0.2365
 5954TIP3    H242058   5.795   4.931   5.929  0.7434  2.7542  2.5302
 5955TIP3   OH242059   1.695   3.888   8.405 -0.3448 -0.1606  0.2360
 5955TIP3    H142060   1.650   3.807   8.431 -0.8040 -0.5759 -1.6833
 5955TIP3    H242061   1.646   3.919   8.330  0.3321  1.4879  0.4395
 5956TIP3   OH242062   1.612   1.082  15.313 -0.4163  0.2520  0.1488
 5956TIP3    H142063   1.650   1.165  15.285 -1.7965  1.0198  0.4552
 5956TIP3    H242064   1.643   1.071  15.403  0.6750 -0.1451 -0.2632
 5957TIP3   OH242065   3.667   1.569   8.359  0.0616 -0.2828 -0.2945
 5957TIP3    H142066   3.718   1.633   8.410 -0.6699  1.2048 -1.3460
 5957TIP3    H242067   3.732   1.525   8.304  0.4351  0.5534 -0.5541
 5958TIP3   OH242068   2.707   4.732   6.173 -0.5190  0.1829  0.9425
 5958TIP3    H142069   2.636   4.675   6.143 -0.7625  1.3532 -0.8382
 5958TIP3    H242070   2.785   4.675   6.172 -0.7907 -0.2054 -0.5927
 5959TIP3   OH242071   1.492   1.646   8.113 -0.1700  0.2592  0.6084
 5959TIP3    H142072   1.472   1.738   8.093 -2.6548 -0.3977 -0.1434
 5959TIP3    H242073   1.584   1.648   8.142 -0.2090  2.9887  0.7858
 5960TIP3   OH242074   1.406   5.639   9.153 -0.0294 -0.4699  0.2540
 5960TIP3    H142075   1.381   5.711   9.095 -0.0828  1.5284  2.6328
 5960TIP3    H242076   1.501   5.633   9.145 -0.2646 -2.7526 -2.7376
 5961TIP3   OH242077   4.248   2.838   7.287  0.4875 -0.1352  0.4250
 5961TIP3    H142078   4.317   2.883   7.335 -0.5564  0.0866  1.7825
 5961TIP3    H242079   4.208   2.779   7.351 -0.4204 -0.4465 -0.3966
 5962TIP3   OH242080   2.180   6.145   8.178  1.0143  0.0685 -0.7239
 5962TIP3    H142081   2.271   6.127   8.154  1.1680  0.2683 -0.2939
 5962TIP3    H242082   2.185   6.215   8.243  0.5634 -0.0330 -0.5741
 5963TIP3   OH242083   4.327   3.938   6.929 -0.3933 -0.7424 -0.7528
 5963TIP3    H142084   4.341   3.843   6.920  1.1638 -0.4438 -2.0613
 5963TIP3    H242085   4.255   3.957   6.870 -0.3189 -1.0334 -0.9417
 5964TIP3   OH242086   6.608   4.502   5.792  0.2171  0.5524 -0.3077
 5964TIP3    H142087   6.518   4.531   5.808  0.0532  0.2708 -0.6993
 5964TIP3    H242088   6.647   4.494   5.879 -0.2438  0.3524 -0.1176
 5965TIP3   OH242089   5.510   4.542   7.177  0.3054  0.1378  0.3169
 5965TIP3    H142090   5.520   4.571   7.268 -0.0335 -0.6952  0.6303
 5965TIP3    H242091   5.489   4.448   7.184 -1.0279  0.3468 -0.5608
 5966TIP3   OH242092   2.808   5.446   8.652  0.4979  0.3098 -0.3057
 5966TIP3    H142093   2.749   5.463   8.725  0.7501  2.2623 -0.4987
 5966TIP3    H242094   2.876   5.389   8.689 -1.1953 -1.6001  0.0300
 5967TIP3   OH242095   3.942   0.051   6.311  0.1780 -0.3033 -0.2646
 5967TIP3    H142096   3.868   0.108   6.332 -0.1395 -1.5519  2.4013
 5967TIP3    H242097   4.006   0.109   6.270 -2.0094  0.9198 -2.1434
 5968TIP3   OH242098   6.065   0.002   8.043 -0.4102 -0.1998 -0.3865
 5968TIP3    H142099   6.079  -0.027   7.953  2.9790  2.0383 -0.7718
 5968TIP3    H242100   6.084  -0.076   8.096 -0.3510 -1.0088 -1.5470
 5969TIP3   OH242101   6.527   5.030   6.130 -0.4080 -0.6549 -0.2849
 5969TIP3    H142102   6.507   4.938   6.112 -2.0655 -0.3753 -0.1024
 5969TIP3    H242103   6.441   5.070   6.144  0.1648  1.2145 -1.6990
 5970TIP3   OH242104   0.550   3.987   8.518 -0.3680 -0.2807  0.1435
 5970TIP3    H142105   0.610   4.027   8.455  0.0590 -2.3459 -0.8306
 5970TIP3    H242106   0.463   3.997   8.478 -0.5579  1.4434  0.8903
 5971TIP3   OH242107   3.039   0.268   5.690 -0.1720 -0.2802  0.2568
 5971TIP3    H142108   3.091   0.286   5.768  0.2075  0.0871 -0.0791
 5971TIP3    H242109   2.974   0.338   5.688 -1.5202 -1.4129  1.3649
 5972TIP3   OH242110   2.454   0.642   6.147 -0.0686  0.5731 -0.2696
 5972TIP3    H142111   2.525   0.701   6.120 -1.4594  2.3688 -0.2373
 5972TIP3    H242112   2.490   0.593   6.220  2.7774 -2.1909 -3.2112
 5973TIP3   OH242113   3.242   4.334   8.055 -0.0093  0.3964  0.3456
 5973TIP3    H142114   3.190   4.394   8.108 -0.6058  1.7694 -1.6838
 5973TIP3    H242115   3.181   4.303   7.988  1.2533  0.4945 -0.8928
 5974TIP3   OH242116   6.100   1.607   5.999 -0.6400 -0.3500  0.0634
 5974TIP3    H142117   6.071   1.550   5.927  0.8491  0.7993 -1.5352
 5974TIP3    H242118   6.150   1.676   5.956  1.8800 -0.5860  2.3327
 5975TIP3   OH242119   2.222   3.888   6.394 -0.2710 -0.3910  0.4849
 5975TIP3    H142120   2.316   3.907   6.396  0.0918 -2.0151  1.2692
 5975TIP3    H242121   2.190   3.932   6.315  1.2963 -0.3930 -0.1978
 5976TIP3   OH242122   5.939   4.234   7.212 -0.1699  0.1974  0.5821
 5976TIP3    H142123   5.991   4.287   7.272 -0.7640 -0.8752  2.1063
 5976TIP3    H242124   5.960   4.144   7.236 -0.7988 -0.2578 -0.5040
 5977TIP3   OH242125   4.699   5.682   8.115 -0.0366  0.1287  0.2224
 5977TIP3    H142126   4.630   5.746   8.131 -0.3885 -0.5912  1.7564
 5977TIP3    H242127   4.722   5.694   8.023  0.5493  3.0755  0.6285
 5978TIP3   OH242128   2.897   1.594   7.856 -0.3796  0.4462  0.1499
 5978TIP3    H142129   2.894   1.498   7.857  0.9754  0.3733 -0.5362
 5978TIP3    H242130   2.925   1.618   7.945 -0.6506  0.2029  0.3021
 5979TIP3   OH242131   3.938   3.542   6.281  0.5034 -0.5079 -0.1953
 5979TIP3    H142132   3.968   3.612   6.340 -1.4946  0.4314 -0.2042
 5979TIP3    H242133   4.017   3.511   6.238  1.5804  1.0830  0.5440
 5980TIP3   OH242134   1.686   6.594   7.333  0.3820  0.2960 -0.7097
 5980TIP3    H142135   1.767   6.628   7.371 -0.0635  0.8198 -0.2164
 5980TIP3    H242136   1.713   6.559   7.248  1.3094 -0.4931 -0.1110
 5981TIP3   OH242137   1.238   4.253   6.775  0.2413 -1.0412  0.0381
 5981TIP3    H142138   1.148   4.221   6.772 -0.6919  1.4482 -0.1628
 5981TIP3    H242139   1.235   4.340   6.736  2.8278 -1.0419 -0.3650
 5982TIP3   OH242140   2.900   2.233   6.768  0.4835 -0.1556  0.4644
 5982TIP3    H142141   2.868   2.318   6.798 -0.1782 -0.7220  1.4003
 5982TIP3    H242142   2.993   2.233   6.789  0.6319  0.5844 -0.1387
 5983TIP3   OH242143   4.595   4.411   6.329 -0.5377  0.0998 -0.1832
 5983TIP3    H142144   4.620   4.400   6.421  1.5682  0.3672 -0.6849
 5983TIP3    H242145   4.522   4.473   6.332  2.0790  3.4637  1.1446
 5984TIP3   OH242146   3.962   3.491   6.733 -0.1240  0.0863  0.3312
 5984TIP3    H142147   3.969   3.581   6.765 -0.3212 -0.3083  1.5511
 5984TIP3    H242148   3.872   3.483   6.703 -0.0682  0.3299  0.0927
 5985TIP3   OH242149   2.328   6.643   8.012  0.0551  0.2238 -0.0634
 5985TIP3    H142150   2.400   6.625   7.950 -0.3728  0.3491 -0.6023
 5985TIP3    H242151   2.299   6.732   7.990 -1.2019 -0.3449 -0.8086
 5986TIP3   OH242152   4.473   2.217   7.128  0.2131 -0.2210  0.0994
 5986TIP3    H142153   4.553   2.253   7.090 -0.1911  0.9220  0.3080
 5986TIP3    H242154   4.498   2.190   7.216  0.3739  0.1244  0.1613
 5987TIP3   OH242155   6.103   1.177   8.368 -0.0203 -0.4143  0.3713
 5987TIP3    H142156   6.155   1.255   8.390  0.5093 -0.8032  0.5022
 5987TIP3    H242157   6.127   1.156   8.278 -0.8308  0.0935  0.0198
 5988TIP3   OH242158   6.346   6.502   6.402  0.2403 -0.2895 -0.1450
 5988TIP3    H142159   6.298   6.477   6.481  0.4028 -0.6632 -0.1611
 5988TIP3    H242160   6.286   6.479   6.331 -0.7246  1.8366 -0.0903
 5989TIP3   OH242161   4.904   0.868   6.746  0.0048  0.0206 -0.1470
 5989TIP3    H142162   4.856   0.786   6.753 -0.8317  0.5531  0.5462
 5989TIP3    H242163   4.995   0.845   6.767 -0.1187 -0.8017 -0.4560
 5990TIP3   OH242164   5.962   4.352   6.975  0.7093 -0.1944  0.0629
 5990TIP3    H142165   5.933   4.295   7.047  1.0583 -0.8074 -0.2748
 5990TIP3    H242166   5.943   4.441   7.006  0.6511 -0.4623  0.8191
 5991TIP3   OH242167   3.499   5.806   7.874 -0.0304 -0.4275 -0.0598
 5991TIP3    H142168   3.422   5.862   7.889  0.1109 -0.2891  0.1543
 5991TIP3    H242169   3.555   5.858   7.817  0.5876  0.1038  0.9969
 5992TIP3   OH242170   3.146   0.625   5.991 -0.7060  0.0636 -0.7034
 5992TIP3    H142171   3.081   0.644   6.058 -0.3288 -0.3590 -0.2052
 5992TIP3    H242172   3.196   0.707   5.982 -1.5653  0.5338 -1.4091
 5993TIP3   OH242173   5.131   5.878   8.431  0.1100  0.7922 -0.4957
 5993TIP3    H142174   5.166   5.927   8.356 -0.2802  1.2063 -0.4184
 5993TIP3    H242175   5.051   5.837   8.397 -1.0767  2.4521  0.1341
 5994TIP3   OH242176   2.069   4.960   6.471 -0.0468 -0.4609 -0.2235
 5994TIP3    H142177   2.007   4.892   6.448 -0.4465  0.5239 -2.2537
 5994TIP3    H242178   2.138   4.915   6.519 -2.1133 -1.6335  1.8862
 5995TIP3   OH242179   0.764   3.259   6.134 -0.2705 -0.5379  0.1820
 5995TIP3    H142180   0.738   3.349   6.153 -0.1447 -0.4806  0.0869
 5995TIP3    H242181   0.737   3.209   6.211  2.7276  0.1336  1.8461
 5996TIP3   OH242182   4.045   0.059   8.950 -0.0697 -0.0099 -0.6298
 5996TIP3    H142183   4.002   0.126   9.003  0.7728 -1.9251  2.8257
 5996TIP3    H242184   3.983   0.039   8.880 -2.7942  0.4930  1.5037
 5997TIP3   OH242185   0.303   1.802   6.053 -0.0469  0.9645  0.2845
 5997TIP3    H142186   0.222   1.834   6.092 -0.1284  0.5820  0.4315
 5997TIP3    H242187   0.282   1.713   6.024  0.3382  0.8402  0.3852
 5998TIP3   OH242188   1.040   2.672   5.695  0.5206  0.3768 -0.4255
 5998TIP3    H142189   0.949   2.700   5.687  0.1477  0.4283  2.7665
 5998TIP3    H242190   1.091   2.751   5.677 -0.2097  1.0509  0.3848
 5999TIP3   OH242191   3.394   5.939   8.594  0.2438  0.0427 -0.0793
 5999TIP3    H142192   3.421   6.030   8.603  3.0115 -0.6736 -0.0216
 5999TIP3    H242193   3.413   5.900   8.679 -0.6413 -0.6665 -0.1932
 6000TIP3   OH242194   1.576   6.498   9.428 -0.0492 -0.1345 -0.0540
 6000TIP3    H142195   1.480   6.495   9.419 -0.0070  1.1688 -1.1754
 6000TIP3    H242196   1.590   6.529   9.518 -0.6969  0.6206 -0.2040
 6001TIP3   OH242197   1.566   2.875   8.943 -0.7234 -0.2046  0.5718
 6001TIP3    H142198   1.626   2.867   8.869  0.2198  0.3597  1.2476
 6001TIP3    H242199   1.480   2.851   8.908 -0.0510 -1.3871 -0.3236
 6002TIP3   OH242200   2.100   5.490   8.460 -0.3087 -0.0277 -0.2393
 6002TIP3    H142201   2.033   5.515   8.523  0.4684  0.5874  0.3814
 6002TIP3    H242202   2.173   5.458   8.514  0.4186  0.6346 -0.7926
 6003TIP3   OH242203   4.589   5.118   8.742  0.0603 -0.5203  0.1798
 6003TIP3    H142204   4.539   5.186   8.698 -1.6455  0.6436  3.5178
 6003TIP3    H242205   4.545   5.036   8.717 -1.4509  0.1808  0.4197
 6004TIP3   OH242206   4.471   2.127   8.094 -0.2084  0.1607  0.1533
 6004TIP3    H142207   4.482   2.127   8.189  0.5240 -0.1047  0.0723
 6004TIP3    H242208   4.438   2.215   8.074  0.8825  0.6757  0.5236
 6005TIP3   OH242209   1.988   1.220   8.184  0.1087  0.1242  0.5427
 6005TIP3    H142210   2.073   1.196   8.147 -0.0994 -0.4472  0.4305
 6005TIP3    H242211   1.925   1.200   8.115 -0.4685 -2.4333  1.7087
 6006TIP3   OH242212   3.171   2.276   6.895  0.0890  0.9165 -0.4629
 6006TIP3    H142213   3.169   2.204   6.958 -3.5686  0.5672 -0.7859
 6006TIP3    H242214   3.197   2.352   6.947 -1.0350  0.2885  1.0884
 6007TIP3   OH242215   6.331   3.183   9.035  0.2648 -0.5433  0.2250
 6007TIP3    H142216   6.287   3.258   8.995 -0.3457 -1.4068 -0.7843
 6007TIP3    H242217   6.422   3.211   9.044  0.1005  0.2329 -0.3882
 6008TIP3   OH242218   3.339   0.947   7.351  0.3059 -0.2786 -0.0032
 6008TIP3    H142219   3.366   1.016   7.291  3.1728  0.3430  1.7610
 6008TIP3    H242220   3.405   0.951   7.421 -1.0468 -3.0005  1.5528
 6009TIP3   OH242221   5.476   6.163   5.396  0.0740 -0.3801 -0.2079
 6009TIP3    H142222   5.543   6.114   5.443  1.2820  0.9283 -0.5141
 6009TIP3    H242223   5.496   6.148   5.304  0.6242  0.8904 -0.3046
 6010TIP3   OH242224   3.225   5.052   7.803  0.2477  0.2233  0.4840
 6010TIP3    H142225   3.288   5.036   7.873  0.1018 -1.2382  0.3199
 6010TIP3    H242226   3.245   4.985   7.737 -2.9600 -1.9675  1.4808
 6011TIP3   OH242227   2.814   3.464   8.915 -0.0949  0.0956 -0.0608
 6011TIP3    H142228   2.886   3.407   8.939 -0.9929 -1.3307 -0.6610
 6011TIP3    H242229   2.750   3.455   8.986 -1.1448 -1.2966 -1.1281
 6012TIP3   OH242230   5.759   3.470   5.747  0.8369 -0.7583 -0.0131
 6012TIP3    H142231   5.784   3.525   5.672 -1.8106 -0.1716 -0.5707
 6012TIP3    H242232   5.769   3.380   5.716  2.9204 -0.5968  0.0950
 6013TIP3   OH242233   6.639   2.334   7.172 -0.4380  0.5010  0.3083
 6013TIP3    H142234   6.713   2.364   7.118 -2.2145  2.0751 -1.4331
 6013TIP3    H242235   6.562   2.370   7.128 -2.1932 -0.1962  2.6237
 6014TIP3   OH242236   3.184   2.852   5.883  0.5365  0.1195 -0.1497
 6014TIP3    H142237   3.089   2.865   5.890  0.2625 -1.9109  0.5682
 6014TIP3    H242238   3.193   2.773   5.831  1.8095 -0.3365  0.7195
 6015TIP3   OH242239   3.254   2.903   8.131  0.5968 -0.1948  0.0826
 6015TIP3    H142240   3.204   2.984   8.121  0.1782 -0.2605  1.4915
 6015TIP3    H242241   3.261   2.869   8.042 -0.8061  0.4511 -0.3118
 6016TIP3   OH242242   6.214   3.040   8.509  0.5061  0.4422  0.1962
 6016TIP3    H142243   6.253   2.955   8.527  0.0504  0.3407  0.7341
 6016TIP3    H242244   6.283   3.089   8.465  1.9024  0.8719  2.6628
 6017TIP3   OH242245   1.349   5.539   7.058 -0.1356  0.0974  0.0364
 6017TIP3    H142246   1.339   5.524   6.964 -2.6179  0.0278  0.2567
 6017TIP3    H242247   1.320   5.457   7.099  1.3790 -0.0528  0.8891
 6018TIP3   OH242248   4.837   4.174   5.953  0.4558  0.8214 -0.5236
 6018TIP3    H142249   4.774   4.134   6.012  1.3889  0.0347 -0.0163
 6018TIP3    H242250   4.791   4.181   5.869 -0.1721 -0.1201 -0.2707
 6019TIP3   OH242251   2.443   1.490   6.278 -0.0861  0.3755  0.0380
 6019TIP3    H142252   2.538   1.477   6.278 -0.3405 -2.1992  1.2086
 6019TIP3    H242253   2.430   1.570   6.329  1.4051 -0.9090  2.6635
 6020TIP3   OH242254   3.285   0.703   7.055 -0.1771  0.3536  0.6087
 6020TIP3    H142255   3.365   0.678   7.101  0.3972 -0.4776 -0.7915
 6020TIP3    H242256   3.279   0.641   6.983 -1.0316  1.6413 -0.4626
 6021TIP3   OH242257   2.710   2.985   8.216 -0.0409 -0.1319  0.4347
 6021TIP3    H142258   2.779   2.955   8.156 -0.5803 -0.6340  0.0557
 6021TIP3    H242259   2.645   2.915   8.214 -0.7500  0.5237  0.4896
 6022TIP3   OH242260   5.627   6.425   6.235  0.1079 -0.6195 -0.4715
 6022TIP3    H142261   5.678   6.505   6.231 -0.5098 -0.2027 -0.2263
 6022TIP3    H242262   5.536   6.455   6.232 -0.4093 -0.8295  4.6638
 6023TIP3   OH242263   0.725   4.032   5.714  0.0858 -0.1596  0.5002
 6023TIP3    H142264   0.782   3.994   5.647  1.5969  0.8197  1.1836
 6023TIP3    H242265   0.737   3.975   5.790  0.8936  0.5507  0.9275
 6024TIP3   OH242266   1.827   2.815   6.498  0.1807  0.4921  0.3918
 6024TIP3    H142267   1.914   2.804   6.535 -0.2303  3.1831  2.5423
 6024TIP3    H242268   1.841   2.862   6.416  0.8203 -0.1256  0.1472
 6025TIP3   OH242269   0.280   5.945   6.875 -0.3585 -0.1586 -0.5033
 6025TIP3    H142270   0.351   5.971   6.817  0.6990 -3.8806 -1.1591
 6025TIP3    H242271   0.201   5.983   6.836  0.4898 -1.4099 -3.7002
 6026TIP3   OH242272   6.143   4.264   6.386  0.0124  0.2055 -0.1362
 6026TIP3    H142273   6.134   4.225   6.472  0.4847  0.1347 -0.1181
 6026TIP3    H242274   6.206   4.335   6.398  0.6341 -0.2592 -0.5659
 6027TIP3   OH242275   6.453   4.301   5.981  0.1043  0.1401 -0.3631
 6027TIP3    H142276   6.417   4.259   5.903 -1.4973  0.5148  0.1494
 6027TIP3    H242277   6.377   4.331   6.030  1.0359 -0.7425  1.7424
 6028TIP3   OH242278   1.562   4.049   8.212 -0.1987  0.0795 -0.0900
 6028TIP3    H142279   1.604   4.135   8.210 -1.4799  0.7281  0.1813
 6028TIP3    H242280   1.472   4.065   8.183 -0.2113 -1.3234 -0.9232
 6029TIP3   OH242281   2.872   4.055   6.565  0.3785 -0.0291 -0.4811
 6029TIP3    H142282   2.822   4.005   6.500  0.1099 -0.8961  0.3621
 6029TIP3    H242283   2.927   4.114   6.513 -0.1127 -0.4257 -1.4792
 6030TIP3   OH242284   0.123   0.434   8.758 -0.4136 -0.4855  0.4159
 6030TIP3    H142285   0.120   0.394   8.671  0.6062 -1.3768  0.7817
 6030TIP3    H242286   0.216   0.451   8.774 -0.7672  2.1830  0.2385
 6031TIP3   OH242287   0.206   3.708   5.719 -0.1681 -0.1485 -0.4490
 6031TIP3    H142288   0.210   3.661   5.636 -2.7180 -1.4101  0.0252
 6031TIP3    H242289   0.201   3.800   5.695  1.6661 -0.2942 -1.5420
 6032TIP3   OH242290   5.027   2.505   6.942 -0.5150 -0.2531  0.5291
 6032TIP3    H142291   5.094   2.492   7.009 -0.8786 -0.4837  0.8561
 6032TIP3    H242292   4.945   2.505   6.991 -0.7511  0.0195  0.1315
 6033TIP3   OH242293   2.261   2.724   7.249  0.3065  0.2117 -0.1644
 6033TIP3    H142294   2.291   2.727   7.340  0.8225 -1.8881 -0.2079
 6033TIP3    H242295   2.169   2.701   7.255  0.0094  1.3515 -0.1644
 6034TIP3   OH242296   0.307   3.135   7.887  0.4257  0.7108  0.1217
 6034TIP3    H142297   0.244   3.098   7.825 -0.3900 -0.5730  1.6238
 6034TIP3    H242298   0.261   3.208   7.928  0.3015  0.4733  0.4172
 6035TIP3   OH242299   2.887   3.569   6.095 -0.0835 -0.0133  0.2568
 6035TIP3    H142300   2.821   3.631   6.125 -1.2896 -0.6053 -1.0477
 6035TIP3    H242301   2.881   3.496   6.157  0.4928  0.6270  1.0825
 6036TIP3   OH242302   5.040   5.287   7.673 -0.1646  0.7505 -1.1119
 6036TIP3    H142303   5.027   5.354   7.740 -0.0198  0.1176 -0.4389
 6036TIP3    H242304   5.134   5.287   7.657 -0.0502  0.1264 -0.4851
 6037TIP3   OH242305   2.432   6.428   8.389 -0.3082 -0.6030 -0.0932
 6037TIP3    H142306   2.492   6.501   8.407  0.4284 -0.8447 -1.4717
 6037TIP3    H242307   2.348   6.457   8.426 -0.4228  1.5937 -1.8491
 6038TIP3   OH242308   1.288   5.791   8.073 -0.1533 -0.2975  0.3222
 6038TIP3    H142309   1.319   5.741   8.148 -0.8532 -0.7965  0.2957
 6038TIP3    H242310   1.255   5.873   8.110  0.2430 -0.2001  0.4612
 6039TIP3   OH242311   4.613   2.167   6.665  0.6628  0.1283  0.0365
 6039TIP3    H142312   4.566   2.140   6.587  1.0928 -2.0368  0.4768
 6039TIP3    H242313   4.553   2.149   6.737  2.0352 -2.6453  0.6029
 6040TIP3   OH242314   2.156   1.728   7.348 -0.0900 -0.0602  0.2595
 6040TIP3    H142315   2.063   1.711   7.363  0.0747 -0.6332  0.6876
 6040TIP3    H242316   2.158   1.792   7.276 -0.7893 -0.8618 -0.5005
 6041TIP3   OH242317   2.995   3.777   7.506 -0.1309  0.4620 -0.2355
 6041TIP3    H142318   2.937   3.739   7.439  0.2746  0.3748 -0.5432
 6041TIP3    H242319   3.054   3.705   7.529  1.4027  1.1962 -1.6690
 6042TIP3   OH242320   4.785   5.174   7.661 -0.1956 -0.2584  0.3407
 6042TIP3    H142321   4.876   5.204   7.666 -0.6098  0.9433  0.8788
 6042TIP3    H242322   4.742   5.213   7.737 -1.7521  1.3351 -1.2558
 6043TIP3   OH242323   4.434   2.484   6.237 -0.4332  0.3829  0.1658
 6043TIP3    H142324   4.528   2.471   6.250 -0.6679 -1.3727  0.4245
 6043TIP3    H242325   4.413   2.428   6.162 -1.5311 -0.4993  1.1023
 6044TIP3   OH242326   2.563   5.575   7.942  0.0525  0.0829 -0.4096
 6044TIP3    H142327   2.514   5.602   7.864  1.7630  1.4048 -1.1220
 6044TIP3    H242328   2.555   5.480   7.944 -1.8637  0.1994 -0.8977
 6045TIP3   OH242329   4.977   3.334   6.517 -0.0087 -0.0272  0.2324
 6045TIP3    H142330   4.933   3.342   6.432 -0.2730 -3.2132 -0.0597
 6045TIP3    H242331   5.065   3.368   6.501 -0.0563 -0.5362 -1.3399
 6046TIP3   OH242332   1.950   3.583   8.013 -0.3471  0.2319  0.0250
 6046TIP3    H142333   2.003   3.661   7.995 -0.8263  0.3957 -0.7044
 6046TIP3    H242334   1.861   3.617   8.027 -0.2621 -0.0322  1.3005
 6047TIP3   OH242335   5.123   5.905   8.156  0.4764 -0.0930  0.2629
 6047TIP3    H142336   5.061   5.892   8.085 -0.6677 -0.6351  1.3259
 6047TIP3    H242337   5.150   5.996   8.147 -0.8340  0.2934  0.0547
 6048TIP3   OH242338   3.317   3.263   7.377  0.5721 -0.1871 -0.0912
 6048TIP3    H142339   3.258   3.264   7.452 -0.8580 -1.7611 -1.0856
 6048TIP3    H242340   3.326   3.170   7.356  1.7154  0.1641 -1.2791
 6049TIP3   OH242341   6.277   1.037   8.182 -0.4025  0.0888  0.1477
 6049TIP3    H142342   6.280   0.968   8.116  3.3140  0.4323 -0.2648
 6049TIP3    H242343   6.306   0.994   8.263  2.7950  1.1546 -0.2965
 6050TIP3   OH242344   6.208   4.655   6.997  0.4565  0.3565 -0.1472
 6050TIP3    H142345   6.128   4.647   7.049  0.3172 -1.4585 -0.5683
 6050TIP3    H242346   6.278   4.625   7.055  0.9827  2.5285  0.4369
 6051TIP3   OH242347   6.719   3.947   9.217  0.2869 -0.2296  0.1548
 6051TIP3    H142348   6.671   3.934   9.136  0.0148  0.4050  0.2058
 6051TIP3    H242349   6.789   4.008   9.194  0.2980 -0.1611  0.3615
 6052TIP3   OH242350   3.636   4.570   5.858  0.0379 -0.0646 -0.7626
 6052TIP3    H142351   3.581   4.502   5.819  0.4344 -0.9321  0.1425
 6052TIP3    H242352   3.722   4.529   5.866 -0.1285 -0.1316  1.4348
 6053TIP3   OH242353   6.730   2.747   8.359  0.0296  0.1053 -0.4175
 6053TIP3    H142354   6.813   2.741   8.407  0.2075  0.3381 -0.6876
 6053TIP3    H242355   6.677   2.808   8.410 -0.0715 -0.2383 -0.1093
 6054TIP3   OH242356   3.775   3.951   8.089 -0.3240 -0.1086 -0.4524
 6054TIP3    H142357   3.696   3.965   8.141  0.4687 -0.8875  1.0293
 6054TIP3    H242358   3.834   3.903   8.148  0.3551 -1.6603 -2.2993
 6055TIP3   OH242359   0.577   4.870   8.494 -0.2265  0.0004  0.6960
 6055TIP3    H142360   0.494   4.918   8.496 -0.4744 -0.2949 -1.1434
 6055TIP3    H242361   0.573   4.813   8.571 -3.2404 -2.3423 -0.9698
 6056TIP3   OH242362   5.041   6.253   7.510 -0.5503  0.7244 -0.4176
 6056TIP3    H142363   4.948   6.271   7.527 -0.4035 -0.2065  1.7878
 6056TIP3    H242364   5.084   6.270   7.594  1.4270  1.8805 -1.5948
 6057TIP3   OH242365   4.547   1.566   7.885  0.3926 -0.3662 -0.5517
 6057TIP3    H142366   4.493   1.491   7.859  0.3455 -0.6083  0.2153
 6057TIP3    H242367   4.511   1.594   7.969  1.0737 -0.1553 -0.3190
 6058TIP3   OH242368   3.009   4.402   5.594 -0.1235 -0.5544 -0.3224
 6058TIP3    H142369   2.949   4.468   5.562 -1.2820 -1.3398  0.1571
 6058TIP3    H242370   2.970   4.319   5.567 -0.1756 -1.1611  1.4801
 6059TIP3   OH242371   4.705   1.550   7.383  0.0907 -0.4179  0.2953
 6059TIP3    H142372   4.776   1.573   7.443  1.3441 -1.3689 -0.7652
 6059TIP3    H242373   4.673   1.634   7.350  0.5139  0.0343  1.0123
 6060TIP3   OH242374   6.496   4.544   8.718  0.4474 -0.0683  0.4355
 6060TIP3    H142375   6.410   4.552   8.676  0.6730  1.2342  0.1880
 6060TIP3    H242376   6.478   4.564   8.810  0.4146 -0.2622  0.4726
 6061TIP3   OH242377   0.174   2.377   8.795  0.7130 -0.0444  0.1581
 6061TIP3    H142378   0.264   2.354   8.773  0.2689 -1.7658  0.0271
 6061TIP3    H242379   0.183   2.450   8.857  2.2367 -0.7645  0.8405
 6062TIP3   OH242380   3.637   6.287   7.418 -0.3767  0.4264 -0.2385
 6062TIP3    H142381   3.586   6.245   7.348 -1.5125 -0.5410  1.1206
 6062TIP3    H242382   3.727   6.259   7.402 -0.4569  0.9674 -1.8267
 6063TIP3   OH242383   1.847   1.219   5.975 -0.2703 -0.3943 -0.2150
 6063TIP3    H142384   1.902   1.201   6.052  0.1580 -2.7351 -0.9664
 6063TIP3    H242385   1.910   1.237   5.905 -0.5413 -0.9143 -0.5935
 6064TIP3   OH242386   3.423   1.433   8.990  0.4604  0.0097 -0.2478
 6064TIP3    H142387   3.513   1.402   9.001 -0.2640 -1.7743  1.0649
 6064TIP3    H242388   3.384   1.371   8.928 -0.4656 -0.5827  0.9060
 6065TIP3   OH242389   0.733   4.122   6.363  0.2263  0.3587 -0.1294
 6065TIP3    H142390   0.731   4.174   6.282 -2.4273 -0.0503 -0.4179
 6065TIP3    H242391   0.816   4.146   6.405 -0.7026  4.8361 -0.2817
 6066TIP3   OH242392   1.434   2.638   7.018  0.3232 -0.4441  0.1888
 6066TIP3    H142393   1.428   2.617   6.925  0.1413  0.0467  0.0889
 6066TIP3    H242394   1.369   2.707   7.031  0.3813 -0.4797  0.6705
 6067TIP3   OH242395   2.978   4.963   6.465 -0.6675  0.2608 -0.6819
 6067TIP3    H142396   3.028   4.889   6.430  0.7426  1.3488 -1.0817
 6067TIP3    H242397   3.035   5.001   6.532 -0.5795  1.9862 -1.6752
 6068TIP3   OH242398   4.621   3.269   8.213  0.2980 -0.1659 -0.2362
 6068TIP3    H142399   4.678   3.196   8.239 -0.3825 -0.6979 -0.2034
 6068TIP3    H242400   4.659   3.345   8.257 -0.4463 -0.9325  1.8687
 6069TIP3   OH242401   4.925   5.319   6.483  0.3588 -0.3951  0.3116
 6069TIP3    H142402   4.980   5.353   6.554 -0.9107  0.7313  0.8053
 6069TIP3    H242403   4.870   5.394   6.458 -0.7375 -1.4022 -0.3519
 6070TIP3   OH242404   4.331   0.002   6.707 -0.1099 -0.7392  0.2144
 6070TIP3    H142405   4.366   0.084   6.742 -0.6397 -1.0895  1.6473
 6070TIP3    H242406   4.266   0.029   6.643 -1.7850  0.0592  2.1499
 6071TIP3   OH242407   0.564   1.236   7.657 -0.2751  0.0577 -0.3382
 6071TIP3    H142408   0.580   1.142   7.647  1.0982  0.0615  1.4930
 6071TIP3    H242409   0.529   1.245   7.746  0.2663  1.3465 -0.2361
 6072TIP3   OH242410   6.067   3.951   7.345 -0.1443  0.1211  0.4179
 6072TIP3    H142411   5.992   3.933   7.403 -0.7471 -0.6812 -0.5714
 6072TIP3    H242412   6.138   3.972   7.405 -1.1435  0.8770  1.3928
 6073TIP3   OH242413   4.065   5.763   7.505 -0.5129  0.3645 -0.5346
 6073TIP3    H142414   4.081   5.672   7.481  1.5956  0.6775 -0.5589
 6073TIP3    H242415   4.013   5.758   7.585 -3.4292 -0.7500 -2.3353
 6074TIP3   OH242416   3.836   3.707   5.725 -0.1151  0.0306 -0.1477
 6074TIP3    H142417   3.810   3.690   5.815  0.2777 -1.4187 -0.2739
 6074TIP3    H242418   3.919   3.660   5.715 -0.7881 -0.9272 -1.6044
 6075TIP3   OH242419   4.195   1.696   6.477 -0.5528 -0.3542  0.3977
 6075TIP3    H142420   4.163   1.786   6.483  1.7388  0.6296 -1.0227
 6075TIP3    H242421   4.272   1.694   6.533  1.0156 -0.5965 -1.6597
 6076TIP3   OH242422   3.054   3.047   7.218 -0.1870  0.4534  0.1639
 6076TIP3    H142423   3.048   3.053   7.314 -1.2578  1.3997  0.0629
 6076TIP3    H242424   3.125   2.985   7.202  0.4677  0.8058  1.5683
 6077TIP3   OH242425   0.178   3.983   5.672  0.3730 -0.5903  0.5385
 6077TIP3    H142426   0.136   4.021   5.750 -1.2114  0.2022 -0.6416
 6077TIP3    H242427   0.224   4.056   5.632  2.8897 -1.4255  1.7357
 6078TIP3   OH242428   2.863   1.863   5.706 -0.0673  0.7102  0.4628
 6078TIP3    H142429   2.942   1.865   5.652 -0.1966  0.0966  0.2425
 6078TIP3    H242430   2.817   1.944   5.684  0.8787  1.4721  1.1854
 6079TIP3   OH242431   4.071   0.382   8.611  0.3512 -0.0518 -0.3376
 6079TIP3    H142432   3.980   0.359   8.629  0.7306 -1.3369  0.0091
 6079TIP3    H242433   4.113   0.381   8.697  0.7306  0.3725 -0.5169
 6080TIP3   OH242434   3.358   4.790   5.611 -0.7032  0.2277 -0.1031
 6080TIP3    H142435   3.272   4.821   5.638 -1.0601 -1.9317  1.4470
 6080TIP3    H242436   3.344   4.700   5.583  0.7920  0.3823 -1.5525
 6081TIP3   OH242437   2.682   5.729   8.727 -0.1308 -0.3690  0.3201
 6081TIP3    H142438   2.760   5.719   8.781  0.3149  1.5709  0.1415
 6081TIP3    H242439   2.615   5.676   8.770  1.3295 -2.3359  0.3034
 6082TIP3   OH242440   3.661   4.320   7.784 -0.4774  0.7897 -0.1607
 6082TIP3    H142441   3.722   4.373   7.733  0.7681 -0.6298 -0.1919
 6082TIP3    H242442   3.713   4.286   7.856 -1.5561  0.5607  0.5315
 6083TIP3   OH242443   6.081   3.909   8.815  0.1132  0.2469 -0.1355
 6083TIP3    H142444   6.093   3.955   8.732 -0.4440  1.0584  0.2201
 6083TIP3    H242445   6.084   3.978   8.881  0.8510 -0.4242  0.5597
 6084TIP3   OH242446   4.597   6.226   5.469  0.0779  0.5171 -0.9004
 6084TIP3    H142447   4.650   6.176   5.531 -1.0387  1.2892  0.7681
 6084TIP3    H242448   4.522   6.170   5.450 -0.7117  1.1344  0.2557
 6085TIP3   OH242449   0.656   3.737   7.585 -0.3310 -0.5522 -0.4382
 6085TIP3    H142450   0.699   3.733   7.671  0.3344  0.6235 -0.6901
 6085TIP3    H242451   0.568   3.701   7.600 -0.4313  0.1858  0.8671
 6086TIP3   OH242452   2.280   0.534   5.953  0.1952 -0.1599  0.1906
 6086TIP3    H142453   2.317   0.548   6.040 -1.1565 -2.1809  1.1619
 6086TIP3    H242454   2.288   0.440   5.938  0.4346  0.1446 -1.9288
 6087TIP3   OH242455   4.077   5.983   6.340  0.0018 -0.8251 -0.3310
 6087TIP3    H142456   4.086   5.922   6.266  1.7333 -1.0868  0.0437
 6087TIP3    H242457   4.109   5.934   6.415 -0.7998 -0.2204  0.4237
 6088TIP3   OH242458   3.674   5.572   9.174 -0.5050  0.5692  0.3717
 6088TIP3    H142459   3.735   5.593   9.245 -1.0856  1.0549  0.7402
 6088TIP3    H242460   3.592   5.549   9.219 -0.2875 -1.1567 -0.0845
 6089TIP3   OH242461   5.456   1.209   5.695 -0.2638  0.3321 -0.1972
 6089TIP3    H142462   5.518   1.156   5.645  0.1697  0.1767  0.4905
 6089TIP3    H242463   5.399   1.146   5.738 -2.4065  0.4707 -2.5880
 6090TIP3   OH242464   1.358   1.431   6.462  0.6445 -0.3518  0.1986
 6090TIP3    H142465   1.404   1.360   6.417  0.1589 -0.1156 -0.6850
 6090TIP3    H242466   1.327   1.488   6.392 -2.3227 -1.2812  0.6405
 6091TIP3   OH242467   6.508   5.562   8.292 -0.0283 -0.4572 -0.0738
 6091TIP3    H142468   6.423   5.557   8.335  0.4956 -0.2331  1.0327
 6091TIP3    H242469   6.490   5.597   8.205 -1.1076 -0.8025 -0.0019
 6092TIP3   OH242470   5.718   6.505   7.323 -0.3526  0.3467 -0.5411
 6092TIP3    H142471   5.720   6.456   7.405  0.8604  0.2681 -0.5969
 6092TIP3    H242472   5.791   6.567   7.330 -0.1055  0.2096 -1.6302
 6093TIP3   OH242473   2.689   3.333   7.991 -0.1503 -0.2407 -0.3468
 6093TIP3    H142474   2.617   3.279   7.958 -0.2986 -1.3033  1.5657
 6093TIP3    H242475   2.694   3.406   7.930 -4.3819  1.1602  0.6353
 6094TIP3   OH242476   2.085   2.819   6.714  0.3223 -0.1873  0.7366
 6094TIP3    H142477   2.082   2.790   6.805 -0.9935 -1.2326  0.3909
 6094TIP3    H242478   2.133   2.750   6.668  2.2664  1.0298  0.8375
 6095TIP3   OH242479   5.963   3.142   8.577  0.1208  0.9595  0.2128
 6095TIP3    H142480   5.906   3.065   8.574  0.2438  0.9010 -2.6776
 6095TIP3    H242481   6.044   3.115   8.534  0.9706  2.1403  0.9935
 6096TIP3   OH242482   3.925   2.417   8.770  0.4128 -0.0535 -0.1867
 6096TIP3    H142483   3.874   2.338   8.755 -0.2175  0.1550  0.7708
 6096TIP3    H242484   3.876   2.465   8.836  0.0860  1.7726 -1.6493
 6097TIP3   OH242485   4.355   5.459   7.209  0.2682 -0.7712  0.4192
 6097TIP3    H142486   4.359   5.398   7.135  2.4253  0.8863 -0.9456
 6097TIP3    H242487   4.262   5.480   7.217 -0.2487 -2.4439 -0.5413
 6098TIP3   OH242488   6.338   4.565   7.259  0.5913 -1.2202  0.3825
 6098TIP3    H142489   6.376   4.645   7.296 -1.5237 -0.2827  0.7212
 6098TIP3    H242490   6.388   4.494   7.298  2.0125 -0.0821  0.7114
 6099TIP3   OH242491   5.508   4.454   8.641 -0.2868 -0.2662  0.5137
 6099TIP3    H142492   5.506   4.406   8.559  0.5905  0.4949  0.0358
 6099TIP3    H242493   5.436   4.517   8.634  0.6351  0.7462 -0.2886
 6100TIP3   OH242494   5.991   0.674   8.002  0.5191  0.4998  0.1298
 6100TIP3    H142495   6.054   0.746   8.002  0.3651  0.6347  0.1442
 6100TIP3    H242496   6.043   0.597   7.980  0.9801  0.3518  1.6024
 6101TIP3   OH242497   2.241   2.269   8.939  0.5802  0.3843  0.4364
 6101TIP3    H142498   2.159   2.251   8.893 -0.8456  1.3971  2.4653
 6101TIP3    H242499   2.257   2.362   8.926  1.3004  0.2421  0.2482
 6102TIP3   OH242500   3.394   6.345   8.160  0.3125  0.0405 -0.1377
 6102TIP3    H142501   3.420   6.300   8.240 -1.5770 -0.9620 -0.0354
 6102TIP3    H242502   3.302   6.368   8.174 -0.6132 -1.6539 -2.6109
 6103TIP3   OH242503   1.644   4.610   7.929  0.3055 -0.0460  0.3034
 6103TIP3    H142504   1.705   4.679   7.905 -0.1612  0.8833  1.6527
 6103TIP3    H242505   1.565   4.628   7.878  0.9144 -0.8871 -0.9768
 6104TIP3   OH242506   6.720   1.008   7.648 -0.4047 -0.0468 -0.1692
 6104TIP3    H142507   6.693   0.965   7.567 -0.3839  0.4372 -0.4376
 6104TIP3    H242508   6.815   0.995   7.652 -0.4405 -0.2871 -0.0932
 6105TIP3   OH242509   5.324   1.711   8.672  0.0881 -0.0134 -0.6180
 6105TIP3    H142510   5.416   1.692   8.693  0.1654 -2.1627 -2.5121
 6105TIP3    H242511   5.319   1.704   8.577 -2.3343 -1.7438 -0.4727
 6106TIP3   OH242512   5.598   0.563   7.790  0.0851  0.6290  0.0878
 6106TIP3    H142513   5.589   0.565   7.695 -1.3776 -1.4939  0.1091
 6106TIP3    H242514   5.617   0.471   7.810 -2.1282  0.5107  2.0129
 6107TIP3   OH242515   4.751   5.543   6.666  0.3590 -0.1306 -0.1358
 6107TIP3    H142516   4.796   5.478   6.721  0.0276 -0.1165  0.1587
 6107TIP3    H242517   4.821   5.584   6.615  0.8057  0.5016  0.9506
 6108TIP3   OH242518   6.435   0.395   6.289 -0.1506 -0.6557 -0.3491
 6108TIP3    H142519   6.501   0.411   6.357 -2.7117  1.5177  1.8687
 6108TIP3    H242520   6.378   0.328   6.326 -0.5842 -0.7497 -1.1608
 6109TIP3   OH242521   6.462   2.009   7.727 -0.4000  0.3869 -0.1755
 6109TIP3    H142522   6.437   1.916   7.732 -0.2031  0.3852  2.5826
 6109TIP3    H242523   6.535   2.017   7.789 -1.4374  2.6711  0.8621
 6110TIP3   OH242524   6.048   3.271   7.117  0.7993 -0.0514  0.4588
 6110TIP3    H142525   6.048   3.362   7.148 -1.1004  1.6635 -3.7998
 6110TIP3    H242526   5.958   3.242   7.129  1.1144 -0.9794  0.6551
 6111TIP3   OH242527   2.961   0.431   8.451 -0.4972  0.3503  0.5111
 6111TIP3    H142528   2.955   0.431   8.546 -3.0622  1.8985  0.4410
 6111TIP3    H242529   2.946   0.522   8.425  1.5865  0.2612 -1.3779
 6112TIP3   OH242530   3.316   6.494   8.449  0.2831  0.3155 -0.2664
 6112TIP3    H142531   3.304   6.566   8.386  0.6409 -0.7429 -1.5717
 6112TIP3    H242532   3.410   6.479   8.450  0.1406 -0.6787 -0.6459
 6113TIP3   OH242533   3.812   3.900   7.806 -0.0443  0.1655 -0.0212
 6113TIP3    H142534   3.812   3.977   7.749  0.0981  0.1750 -0.0095
 6113TIP3    H242535   3.795   3.935   7.894 -1.3572  0.0358 -0.2029
 6114TIP3   OH242536   1.422   3.371   6.943  0.4977  0.3621  0.1675
 6114TIP3    H142537   1.358   3.434   6.977  0.0247 -0.3914  0.7218
 6114TIP3    H242538   1.411   3.374   6.848 -0.4138  0.2063  0.2558
 6115TIP3   OH242539   2.451   6.007   7.811  0.3214  0.3832 -0.0534
 6115TIP3    H142540   2.411   6.089   7.781 -1.7833 -0.3300  0.6120
 6115TIP3    H242541   2.452   6.014   7.906 -0.9353 -0.7874  0.0758
 6116TIP3   OH242542   1.944   2.234   6.426 -0.0023 -0.6943 -0.4248
 6116TIP3    H142543   1.898   2.225   6.510  0.2642  0.4015 -0.1464
 6116TIP3    H242544   1.891   2.297   6.377  0.2610 -0.7429 -0.7720
 6117TIP3   OH242545   2.760   6.298   7.835  0.3599 -0.8574 -0.1378
 6117TIP3    H142546   2.836   6.307   7.778  0.2407 -0.2763 -0.2141
 6117TIP3    H242547   2.759   6.205   7.860 -0.3609 -1.4379 -2.1579
 6118TIP3   OH242548   3.441   4.159   8.001  0.1001  0.0179 -0.1679
 6118TIP3    H142549   3.493   4.181   7.923  0.3118 -0.4228 -0.1540
 6118TIP3    H242550   3.372   4.226   8.004  0.1977  0.1411 -0.6331
 6119TIP3   OH242551   4.470   0.240   6.699 -0.0476  0.2318 -0.1037
 6119TIP3    H142552   4.419   0.253   6.619  0.4297  1.2644 -0.2669
 6119TIP3    H242553   4.549   0.194   6.670 -1.3425 -2.4570  0.3336
 6120TIP3   OH242554   3.512   4.960   6.907 -0.2718 -0.1218  0.2397
 6120TIP3    H142555   3.554   5.045   6.915  0.5074 -0.4438 -0.2951
 6120TIP3    H242556   3.581   4.901   6.876 -1.1670 -0.6126 -0.9200
 6121TIP3   OH242557   3.322   0.476   8.218 -0.0806  0.6636 -0.5662
 6121TIP3    H142558   3.283   0.490   8.132  0.0657  1.7156 -0.4780
 6121TIP3    H242559   3.416   0.492   8.205  0.1287 -0.4002 -0.4651
 6122TIP3   OH242560   4.058   3.846   5.395  0.3128 -0.3294 -0.2855
 6122TIP3    H142561   3.980   3.896   5.420 -0.5107 -1.2093 -1.0329
 6122TIP3    H242562   4.101   3.902   5.330 -1.1106 -0.9307 -1.8326
 6123TIP3   OH242563   4.770   4.841   8.532 -0.0283  0.1048 -0.1096
 6123TIP3    H142564   4.816   4.863   8.613 -0.7207  0.5551  0.1661
 6123TIP3    H242565   4.731   4.755   8.548 -1.5710  0.9132  0.6627
 6124TIP3   OH242566   0.983   4.871   6.930 -0.0230 -0.2762 -0.6770
 6124TIP3    H142567   0.939   4.929   6.868 -1.4099 -1.9736 -1.3536
 6124TIP3    H242568   0.936   4.883   7.012  0.5457  0.5106 -0.4571
 6125TIP3   OH242569   1.258   5.733   8.639 -0.2406 -0.4268  0.2000
 6125TIP3    H142570   1.185   5.687   8.682  0.2084 -0.7393  0.6371
 6125TIP3    H242571   1.335   5.706   8.689  0.2483 -0.5575 -0.6203
 6126TIP3   OH242572   6.627   5.786   6.541  0.2997  0.1726 -0.4325
 6126TIP3    H142573   6.664   5.775   6.453 -0.1067 -0.0342 -0.5813
 6126TIP3    H242574   6.584   5.872   6.539  0.3707  0.2089 -0.4055
 6127TIP3   OH242575   6.134   0.536   5.807  0.1738 -0.1319 -0.5788
 6127TIP3    H142576   6.080   0.470   5.764  0.8374 -1.1137  0.0528
 6127TIP3    H242577   6.218   0.532   5.761  0.4245 -0.1884 -0.1196
 6128TIP3   OH242578   5.950   3.169   5.418 -0.3604  0.7074 -0.3262
 6128TIP3    H142579   5.925   3.094   5.472 -1.6926 -0.4122 -2.3373
 6128TIP3    H242580   6.008   3.132   5.351 -0.2749  1.6405 -0.7854
 6129TIP3   OH242581   4.925   3.006   7.019 -0.0941 -0.6982 -0.0260
 6129TIP3    H142582   4.951   3.044   6.935 -0.1846 -0.8909 -0.1430
 6129TIP3    H242583   4.830   2.994   7.011  0.0586 -1.8352 -0.3639
 6130TIP3   OH242584   4.162   1.527   7.650 -0.0400  0.3836 -0.0034
 6130TIP3    H142585   4.133   1.516   7.559  0.0106  1.0420 -0.1089
 6130TIP3    H242586   4.081   1.544   7.699  0.0734  1.5513 -0.1867
 6131TIP3   OH242587   2.242   2.543   6.992  0.1903  0.4117 -0.3617
 6131TIP3    H142588   2.184   2.615   7.017 -0.1611  0.3507 -0.9929
 6131TIP3    H242589   2.251   2.551   6.897  0.8683  0.1575 -0.3215
 6132TIP3   OH242590   3.533   3.278   6.285 -0.5542 -0.2455  0.4938
 6132TIP3    H142591   3.521   3.298   6.192 -0.7331  0.9334  0.7577
 6132TIP3    H242592   3.615   3.321   6.309 -0.4474 -0.6458  0.8630
 6133TIP3   OH242593   6.069   0.786   8.652  0.2029 -0.2215 -0.0743
 6133TIP3    H142594   6.118   0.742   8.721  2.8236  1.8351 -0.4775
 6133TIP3    H242595   6.049   0.873   8.688 -2.1325 -0.5469 -0.4171
 6134TIP3   OH242596   1.562   3.774   7.228  0.3170 -0.0755 -0.3265
 6134TIP3    H142597   1.508   3.742   7.300 -0.0471  0.0345 -0.5497
 6134TIP3    H242598   1.645   3.798   7.269 -0.6653  2.2464  0.4833
 6135TIP3   OH242599   1.119   0.167   5.542  0.3196 -0.2572  0.0290
 6135TIP3    H142600   1.215   0.156   5.540  0.3804  0.4054 -1.1403
 6135TIP3    H242601   1.105   0.240   5.603  0.4842 -0.9523  0.9217
 6136TIP3   OH242602   2.527   5.887   8.947  0.2348  0.3945 -0.2874
 6136TIP3    H142603   2.460   5.904   9.013 -1.0673  0.9668 -1.6995
 6136TIP3    H242604   2.495   5.810   8.900  2.4356 -1.6590  1.3205
 6137TIP3   OH242605   6.157   6.153   7.037  0.3784  0.1917 -0.6881
 6137TIP3    H142606   6.129   6.063   7.052 -0.8560  0.7269  0.3991
 6137TIP3    H242607   6.179   6.156   6.944  0.6070 -1.2639 -0.6986
 6138TIP3   OH242608   0.327   4.934   8.125  0.5984 -0.8219  0.3990
 6138TIP3    H142609   0.297   4.910   8.037  0.5508  1.9443 -0.4496
 6138TIP3    H242610   0.246   4.945   8.175  0.0789  3.3086 -0.9588
 6139TIP3   OH242611   2.557   2.528   6.116  0.0529 -0.4103 -0.0984
 6139TIP3    H142612   2.495   2.568   6.176 -0.5191 -0.7216 -0.4649
 6139TIP3    H242613   2.618   2.481   6.172  1.4345  1.8416  0.4300
 6140TIP3   OH242614   1.531   3.342   7.539 -0.0996 -0.0617  0.6786
 6140TIP3    H142615   1.497   3.320   7.626  0.7324 -2.0385  0.5618
 6140TIP3    H242616   1.626   3.335   7.548 -0.0436 -1.7881 -0.7219
 6141TIP3   OH242617   1.612   4.421   8.334  0.3225  0.1112 -0.0844
 6141TIP3    H142618   1.660   4.500   8.307  0.4213 -0.0486 -0.3851
 6141TIP3    H242619   1.573   4.388   8.253  0.9540 -0.6011 -0.1173
 6142TIP3   OH242620   6.033   1.184   8.048  0.1684 -0.1441  0.0488
 6142TIP3    H142621   6.023   1.255   7.985 -2.7599  0.3371  0.9171
 6142TIP3    H242622   6.065   1.111   7.996 -0.8436  0.6229 -1.7662
 6143TIP3   OH242623   2.889   4.106   7.597  0.0189 -0.4101 -0.3656
 6143TIP3    H142624   2.858   4.025   7.638 -1.3113  0.9542  1.4469
 6143TIP3    H242625   2.984   4.106   7.612 -0.2614 -0.6029  1.5922
 6144TIP3   OH242626   3.752   4.085   6.741  0.0042 -0.1093 -0.3015
 6144TIP3    H142627   3.826   4.131   6.780 -0.2250 -0.3747  0.4559
 6144TIP3    H242628   3.703   4.050   6.815 -0.3557 -0.7533 -0.8286
 6145TIP3   OH242629   3.875   1.167   7.972  0.7007  0.4132 -0.0420
 6145TIP3    H142630   3.905   1.258   7.968 -0.2689  0.7339 -0.2356
 6145TIP3    H242631   3.833   1.151   7.888  0.3055 -0.0112  0.2259
 6146TIP3   OH242632   2.699   4.378   6.710 -0.3426 -0.4483 -0.0703
 6146TIP3    H142633   2.625   4.387   6.770 -0.8061 -1.9900 -0.3677
 6146TIP3    H242634   2.678   4.438   6.638  0.5104  1.8721  1.4975
 6147TIP3   OH242635   3.457   2.992   6.796  0.3655  0.1897  1.0494
 6147TIP3    H142636   3.375   3.007   6.750  1.4617  1.6972 -0.5638
 6147TIP3    H242637   3.474   2.898   6.784  0.2635  0.3947 -1.1230
 6148TIP3   OH242638   3.840   4.576   7.913 -0.2934  0.4627  0.4027
 6148TIP3    H142639   3.827   4.490   7.872  2.2243  1.4006 -2.8306
 6148TIP3    H242640   3.770   4.630   7.878 -0.3673  0.3435  0.3651
 6149TIP3   OH242641   1.247   5.578   7.735  0.1170 -0.1842 -0.2740
 6149TIP3    H142642   1.309   5.651   7.729  0.9802 -0.9243 -0.5729
 6149TIP3    H242643   1.217   5.579   7.826  1.2948 -0.3907  0.1284
 6150TIP3   OH242644   6.496   5.290   7.746 -0.3984  0.0766  0.1934
 6150TIP3    H142645   6.543   5.297   7.663 -0.9723  0.6907 -0.0880
 6150TIP3    H242646   6.499   5.197   7.767 -0.5661 -0.1424 -0.7054
 6151TIP3   OH242647   2.498   0.257   7.379  0.4046 -0.0257  0.2207
 6151TIP3    H142648   2.560   0.297   7.439  0.5554 -1.0473  0.7681
 6151TIP3    H242649   2.547   0.186   7.338  0.0882  0.2110 -0.5934
 6152TIP3   OH242650   0.174   1.655   8.994 -0.1236 -0.0851  0.1012
 6152TIP3    H142651   0.198   1.745   9.016 -0.2244  0.0992 -0.5205
 6152TIP3    H242652   0.086   1.662   8.956 -0.8269 -0.6469  1.5313
 6153TIP3   OH242653   0.913   6.427   8.950  0.1748  0.1950  0.0976
 6153TIP3    H142654   0.921   6.516   8.914 -0.3061 -0.4815 -1.7956
 6153TIP3    H242655   0.841   6.388   8.900 -0.2931 -0.9542  1.5938
 6154TIP3   OH242656   1.678   6.522   8.552 -0.5177 -0.4458 -0.2930
 6154TIP3    H142657   1.684   6.570   8.469 -1.5431 -0.1328 -0.2095
 6154TIP3    H242658   1.732   6.444   8.539 -3.4909 -2.3426 -2.6631
 6155TIP3   OH242659   0.011   1.884   7.449  0.1797  0.3568  0.1078
 6155TIP3    H142660   0.105   1.882   7.465  0.0711 -0.8060  0.6970
 6155TIP3    H242661  -0.003   1.965   7.401  1.5134  0.4399 -0.1878
 6156TIP3   OH242662   0.560   2.113   6.890  0.6925  0.1183 -0.2386
 6156TIP3    H142663   0.580   2.056   6.815 -1.9087  0.2460 -1.1443
 6156TIP3    H242664   0.609   2.193   6.873  2.9745 -1.1304  0.1204
 6157TIP3   OH242665   1.883   4.331   8.460 -0.1882 -0.1224  0.2568
 6157TIP3    H142666   1.812   4.364   8.405 -0.3389  0.7949  0.9717
 6157TIP3    H242667   1.861   4.239   8.475 -1.4492  0.2462  0.7903
 6158TIP3   OH242668   1.001   5.370   8.408 -0.2204 -0.0277 -0.8413
 6158TIP3    H142669   1.010   5.372   8.503 -0.9563 -1.1230 -0.7239
 6158TIP3    H242670   1.077   5.322   8.377 -0.9342 -1.3426 -0.6248
 6159TIP3   OH242671   6.117   5.573   7.588 -0.0512 -0.5814 -0.0521
 6159TIP3    H142672   6.034   5.528   7.574 -1.3320  1.9395 -1.1240
 6159TIP3    H242673   6.107   5.617   7.672 -0.1660  0.3903 -0.5563
 6160TIP3   OH242674   2.565   4.185   8.154  0.4087  0.3960 -0.0152
 6160TIP3    H142675   2.569   4.115   8.219  0.2248  0.4198  0.0237
 6160TIP3    H242676   2.500   4.155   8.090 -1.5808  1.5978  1.3044
 6161TIP3   OH242677   2.072   4.376   8.186 -0.2946 -0.3700  0.2767
 6161TIP3    H142678   2.018   4.401   8.261  0.9917 -1.1483  1.5055
 6161TIP3    H242679   2.152   4.341   8.224  1.8930  2.3251 -1.4527
 6162TIP3   OH242680   4.494   0.525   7.988  0.1363  0.0728  0.0913
 6162TIP3    H142681   4.406   0.562   7.989 -0.7988 -1.7629 -2.3952
 6162TIP3    H242682   4.490   0.453   8.051  0.8759  1.8109  2.2480
 6163TIP3   OH242683   0.880   4.100   7.079  0.5321  0.3594 -0.3995
 6163TIP3    H142684   0.956   4.149   7.046  1.3321 -0.0426  0.7619
 6163TIP3    H242685   0.882   4.115   7.174  0.0597 -0.8831 -0.1745
 6164TIP3   OH242686   0.237   4.420   6.469  0.2551 -0.1298 -0.2031
 6164TIP3    H142687   0.311   4.471   6.501  0.9569 -0.6766 -0.9355
 6164TIP3    H242688   0.169   4.486   6.451  0.7963  0.4413 -0.1814
 6165TIP3   OH242689   0.579   1.212   7.941  0.1875  0.4111 -0.0792
 6165TIP3    H142690   0.583   1.126   7.982 -0.8770 -0.9649 -2.6009
 6165TIP3    H242691   0.665   1.251   7.957  0.0184 -0.2140  2.8285
 6166TIP3   OH242692   6.672   3.387   7.241 -0.5135  0.1743  0.0233
 6166TIP3    H142693   6.590   3.436   7.227 -1.3251 -1.2979 -0.5769
 6166TIP3    H242694   6.726   3.408   7.164 -0.9880 -0.1085 -0.3944
 6167TIP3   OH242695   1.025   0.164   7.982 -0.1735  0.1453 -0.1615
 6167TIP3    H142696   0.933   0.145   7.964 -0.0640 -0.0977 -0.4726
 6167TIP3    H242697   1.051   0.097   8.045  0.1888 -0.7141 -1.1936
 6168TIP3   OH242698   6.043   1.466   8.948 -0.0442 -0.0813 -0.4274
 6168TIP3    H142699   6.067   1.558   8.961  0.2803  0.3011 -3.1411
 6168TIP3    H242700   6.073   1.422   9.027  0.0416  2.0905  0.8254
 6169TIP3   OH242701   0.386   5.987  14.854 -0.2886 -0.6274  0.4142
 6169TIP3    H142702   0.462   6.044  14.868 -0.0255 -0.3653 -1.7186
 6169TIP3    H242703   0.423   5.905  14.820 -0.8364 -1.3016  1.3637
 6170TIP3   OH242704   3.749   2.060   7.333  0.8964 -0.0035 -0.0589
 6170TIP3    H142705   3.789   2.082   7.248 -3.9980  0.5326 -2.5646
 6170TIP3    H242706   3.702   2.139   7.358 -0.1835 -1.1344  1.6396
 6171TIP3   OH242707   4.207   4.243   5.965 -0.1417  0.0772 -0.2997
 6171TIP3    H142708   4.127   4.199   5.993 -0.0676  0.9889  1.4988
 6171TIP3    H242709   4.278   4.198   6.011  0.0569  1.1595  0.5146
 6172TIP3   OH242710   1.595   4.979   5.339  0.0088 -0.5149  0.0968
 6172TIP3    H142711   1.606   4.951   5.249 -1.7488 -1.4155  0.1076
 6172TIP3    H242712   1.676   4.954   5.383  0.4574 -1.0180 -0.9918
 6173TIP3   OH242713   2.883   3.060   7.901  0.0701 -0.0170 -0.4831
 6173TIP3    H142714   2.866   3.132   7.961  0.3899  0.3887 -0.8738
 6173TIP3    H242715   2.972   3.074   7.871 -0.0267 -0.3138 -0.9177
 6174TIP3   OH242716   6.162   4.320   8.263  0.1686  0.5009 -0.3993
 6174TIP3    H142717   6.113   4.251   8.308 -0.8871  1.8706  0.6569
 6174TIP3    H242718   6.136   4.311   8.171  1.1827 -1.3815 -0.5537
 6175TIP3   OH242719   0.061   2.494   8.154  0.5880  0.8828  0.6275
 6175TIP3    H142720  -0.024   2.526   8.186 -0.7002  0.4891 -2.0972
 6175TIP3    H242721   0.112   2.573   8.136  0.4029  1.1528  1.2539
 6176TIP3   OH242722   2.608   5.957   7.006  0.8677  0.3001 -0.8797
 6176TIP3    H142723   2.671   5.995   6.945  0.4924 -0.1382 -1.5559
 6176TIP3    H242724   2.523   5.970   6.964  0.5566  0.3841 -0.2394
 6177TIP3   OH242725   5.942   0.556   8.291  0.4944 -0.0323  0.2887
 6177TIP3    H142726   5.949   0.468   8.253 -1.1376  0.6904 -1.8443
 6177TIP3    H242727   6.028   0.595   8.274  0.5977 -0.5618 -0.5021
 6178TIP3   OH242728   2.616   1.809   6.063 -0.4418 -0.1596  0.8949
 6178TIP3    H142729   2.673   1.740   6.096 -1.0355 -0.9268  0.3640
 6178TIP3    H242730   2.560   1.832   6.137 -0.6271 -0.6650  0.9147
 6179TIP3   OH242731   5.843   1.671   8.162 -0.1852  0.5000  0.2217
 6179TIP3    H142732   5.933   1.662   8.194 -0.3977 -1.8312  0.3712
 6179TIP3    H242733   5.813   1.753   8.199  1.5169  0.7825  1.1054
 6180TIP3   OH242734   3.877   0.880   6.523 -0.2696 -0.2577 -0.4747
 6180TIP3    H142735   3.818   0.885   6.447 -0.2870  1.3649 -0.3776
 6180TIP3    H242736   3.832   0.822   6.584 -0.1779 -1.7462 -1.7446
 6181TIP3   OH242737   4.174   2.431   7.467  0.4754 -0.0826 -0.1213
 6181TIP3    H142738   4.117   2.369   7.514  0.1359  0.4123  0.1323
 6181TIP3    H242739   4.240   2.376   7.425 -1.2671 -0.8731 -1.9839
 6182TIP3   OH242740   4.673   3.498   7.415 -0.2545 -0.5465 -0.7320
 6182TIP3    H142741   4.714   3.418   7.383 -0.5614 -0.1459 -2.2020
 6182TIP3    H242742   4.677   3.559   7.341 -0.1066  0.7817  0.3226
 6183TIP3   OH242743   5.514   1.723   6.148  0.0707 -0.0471 -0.2555
 6183TIP3    H142744   5.489   1.816   6.150 -0.1068 -0.0962 -0.2150
 6183TIP3    H242745   5.610   1.724   6.154 -0.0211  0.0522  2.1182
 6184TIP3   OH242746   4.875   0.635   5.995  0.1772 -0.2773 -0.4941
 6184TIP3    H142747   4.808   0.591   5.944  1.1672 -0.7239 -1.4507
 6184TIP3    H242748   4.906   0.568   6.057 -2.4775  0.8321  2.2801
 6185TIP3   OH242749   1.228   1.209   6.794 -0.4510  0.0819  0.1464
 6185TIP3    H142750   1.144   1.229   6.751  1.0718  1.1225 -2.5903
 6185TIP3    H242751   1.279   1.164   6.727  1.2258 -0.5009  1.7300
 6186TIP3   OH242752   6.475   1.540   8.271 -0.3117  0.1511  0.3010
 6186TIP3    H142753   6.557   1.491   8.264 -0.2497  0.2476  0.3586
 6186TIP3    H242754   6.471   1.591   8.190  0.2773  1.0698  0.8386
 6187TIP3   OH242755   5.388   0.529   8.731  0.5786 -0.1161 -0.0810
 6187TIP3    H142756   5.444   0.459   8.697  0.0192 -1.2240  1.1555
 6187TIP3    H242757   5.307   0.484   8.755 -0.4941  1.2847 -0.9205
 6188TIP3   OH242758   1.350   4.697   7.377  0.2837 -0.7830 -0.0223
 6188TIP3    H142759   1.279   4.744   7.332 -1.3744 -0.7307  2.4264
 6188TIP3    H242760   1.410   4.767   7.404 -0.4282 -0.4065  0.6571
 6189TIP3   OH242761   2.035   5.935   7.502 -0.5808  0.2197  0.8707
 6189TIP3    H142762   2.040   5.894   7.589 -2.3808 -0.1376  0.8556
 6189TIP3    H242763   2.021   5.862   7.442 -3.2255  0.6949  0.7766
 6190TIP3   OH242764   6.505   6.257   7.859  0.5837 -0.0731  0.5402
 6190TIP3    H142765   6.539   6.290   7.776 -1.6360 -0.2550 -0.5219
 6190TIP3    H242766   6.575   6.202   7.894  2.2472  1.4337 -0.3145
 6191TIP3   OH242767   0.453   5.813   7.033  0.6183 -0.3070 -0.0475
 6191TIP3    H142768   0.386   5.865   6.988 -0.2975 -0.1347  1.4304
 6191TIP3    H242769   0.444   5.725   6.995 -2.4855 -1.0462  2.0146
 6192TIP3   OH242770   6.637   0.493   6.761  0.6874 -0.4310  0.5379
 6192TIP3    H142771   6.589   0.413   6.742  0.1837 -0.1710  0.7032
 6192TIP3    H242772   6.667   0.483   6.851  0.8562 -0.5472  0.4695
 6193TIP3   OH242773   5.648   4.751   7.739 -0.2176  0.5529 -0.0503
 6193TIP3    H142774   5.614   4.728   7.652 -0.4677  0.4832  0.0644
 6193TIP3    H242775   5.657   4.846   7.737  2.1792  0.3863 -1.0253
 6194TIP3   OH242776   4.943   2.084   5.665 -0.2420 -0.2651 -0.3523
 6194TIP3    H142777   4.859   2.045   5.689 -0.0789 -0.3881  0.0227
 6194TIP3    H242778   5.006   2.013   5.677 -0.2281 -0.4892 -1.6621
 6195TIP3   OH242779   6.112   2.807   6.133  0.4136 -0.0577 -0.2708
 6195TIP3    H142780   6.098   2.720   6.170  1.3104  0.8262  2.3770
 6195TIP3    H242781   6.027   2.850   6.142  0.4594 -0.0620  0.2530
 6196TIP3   OH242782   0.760   0.501   6.931 -0.3250 -0.6470  0.2852
 6196TIP3    H142783   0.717   0.506   6.846  0.4519 -0.8378 -0.1234
 6196TIP3    H242784   0.769   0.592   6.959  1.3541 -0.4258 -0.8360
 6197TIP3   OH242785   0.759   2.750   5.748 -0.1792  0.1361 -0.1587
 6197TIP3    H142786   0.712   2.832   5.733 -0.1965  0.2325  0.4164
 6197TIP3    H242787   0.711   2.708   5.819  0.5407  0.1947  0.3730
 6198TIP3   OH242788   3.254   1.988   7.348 -0.2477 -0.2987  0.1833
 6198TIP3    H142789   3.309   1.940   7.410  2.2180 -0.4421 -1.9472
 6198TIP3    H242790   3.204   1.920   7.303  1.1673 -0.6770 -0.8935
 6199TIP3   OH242791   2.224   1.121   8.008 -0.0690 -0.5334  0.4836
 6199TIP3    H142792   2.287   1.185   8.042  0.6637 -1.1081  0.2568
 6199TIP3    H242793   2.279   1.058   7.961 -0.7984 -1.1861  0.4987
 6200TIP3   OH242794   1.658   1.485   8.931  0.7955  0.0122  0.3232
 6200TIP3    H142795   1.732   1.458   8.877  0.5507 -0.9571  0.4451
 6200TIP3    H242796   1.591   1.417   8.915  0.7231 -0.2957  1.8162
 6201TIP3   OH242797   6.691   3.186   6.780  0.0751  0.1970  0.3276
 6201TIP3    H142798   6.604   3.145   6.777  1.4848 -3.0973 -2.9502
 6201TIP3    H242799   6.676   3.276   6.752 -2.1039 -0.9131 -2.5223
 6202TIP3   OH242800   0.318   1.455   9.089  1.1908  0.3741  0.3898
 6202TIP3    H142801   0.405   1.478   9.058  1.2816  2.1142  1.7588
 6202TIP3    H242802   0.260   1.518   9.048  0.3470 -1.4566 -1.3993
 6203TIP3   OH242803   5.009   4.225   7.754 -0.0925  0.0517  0.1771
 6203TIP3    H142804   5.084   4.278   7.728  1.2142 -1.9238 -0.2838
 6203TIP3    H242805   5.026   4.200   7.844 -0.2695 -0.2699  0.1262
 6204TIP3   OH242806   4.086   5.748   7.934  0.3113 -0.2250 -0.5949
 6204TIP3    H142807   4.027   5.749   7.859 -0.5992 -2.0710  0.0408
 6204TIP3    H242808   4.038   5.701   8.002  1.6968  0.0880  0.6519
 6205TIP3   OH242809   3.509   5.291   6.048  0.0964 -0.4547 -0.3486
 6205TIP3    H142810   3.430   5.296   6.101 -0.4529  2.1169 -1.2777
 6205TIP3    H242811   3.495   5.215   5.991 -0.3286 -1.8321  1.4997
 6206TIP3   OH242812   3.088   1.619   5.741 -0.6130 -0.0032  0.0605
 6206TIP3    H142813   2.995   1.595   5.751 -1.9632  3.1711 -2.8684
 6206TIP3    H242814   3.101   1.691   5.802 -0.1476 -0.2427  0.2471
 6207TIP3   OH242815   6.128   5.444   6.136  0.3934 -0.1509 -0.3606
 6207TIP3    H142816   6.037   5.417   6.139  0.6909 -1.2401 -0.6714
 6207TIP3    H242817   6.169   5.383   6.075  1.5103 -0.2625  0.4633
 6208TIP3   OH242818   4.487   1.522   6.732  0.3559 -0.6092  0.3283
 6208TIP3    H142819   4.561   1.528   6.792  1.2809 -0.3338 -0.8316
 6208TIP3    H242820   4.481   1.608   6.692 -0.6117 -0.6226  0.4032
 6209TIP3   OH242821   6.329   0.065   6.904 -0.7481  0.9939 -0.0435
 6209TIP3    H142822   6.285   0.118   6.838  0.7648  0.2784 -1.7233
 6209TIP3    H242823   6.402   0.119   6.935  0.5087  0.1363 -1.4086
 6210TIP3   OH242824   5.026   3.679   7.967 -0.5103  0.0964  0.7095
 6210TIP3    H142825   4.957   3.704   7.906 -0.0643 -0.4977 -0.0547
 6210TIP3    H242826   5.052   3.762   8.007 -0.9109  0.4839  0.1941
 6211TIP3   OH242827   5.923   6.024   7.446  0.0510  0.3365  0.0633
 6211TIP3    H142828   5.918   6.115   7.415 -0.0096  0.4012  0.2615
 6211TIP3    H242829   6.003   5.990   7.407 -0.4564  0.1571 -0.8554
 6212TIP3   OH242830   6.662   2.260   8.877  0.0691  0.0325  0.0489
 6212TIP3    H142831   6.746   2.307   8.874  0.2513 -0.3160 -0.4087
 6212TIP3    H242832   6.599   2.321   8.837 -0.0784  0.6432  1.1695
 6213TIP3   OH242833   5.421   3.636   8.686 -0.3252 -0.2093  0.2736
 6213TIP3    H142834   5.432   3.550   8.726  0.6952 -0.6302 -0.8348
 6213TIP3    H242835   5.330   3.661   8.705 -0.3174 -1.0616  1.4848
 6214TIP3   OH242836   4.620   5.792   6.513  0.3890 -0.4017 -0.4350
 6214TIP3    H142837   4.627   5.819   6.605 -1.8227 -0.3095 -0.2280
 6214TIP3    H242838   4.679   5.850   6.466 -0.4167  1.3973  0.6392
 6215TIP3   OH242839   4.413   0.427   6.285 -0.2607 -0.2571  0.3710
 6215TIP3    H142840   4.399   0.345   6.237  0.7529 -0.1114 -0.2056
 6215TIP3    H242841   4.405   0.402   6.377 -2.2472 -0.5371  0.1613
 6216TIP3   OH242842   5.322   1.378   5.866  0.1395 -0.1604  0.4491
 6216TIP3    H142843   5.334   1.347   5.776  0.3808 -1.1043  0.7917
 6216TIP3    H242844   5.308   1.298   5.917 -3.6718  0.4824  0.7290
 6217TIP3   OH242845   2.431   1.108   6.456 -0.5930 -0.3494  0.2007
 6217TIP3    H142846   2.440   1.179   6.519 -0.1091 -0.1060 -0.1420
 6217TIP3    H242847   2.361   1.137   6.397 -0.5408 -0.2525  0.1864
 6218TIP3   OH242848   2.069   0.875   5.785 -1.5303  0.0973  0.4377
 6218TIP3    H142849   2.101   0.943   5.726  0.0702 -0.2641  0.8405
 6218TIP3    H242850   2.092   0.907   5.873 -0.8512 -0.9028  0.6324
 6219TIP3   OH242851   1.866   4.433   7.322  0.7227 -0.2180  0.0116
 6219TIP3    H142852   1.795   4.398   7.376 -0.7308  1.2233 -0.8716
 6219TIP3    H242853   1.888   4.361   7.263  0.0903 -0.7371  0.3884
 6220TIP3   OH242854   3.353   5.953   7.401 -0.6915  0.2729  0.3252
 6220TIP3    H142855   3.319   5.886   7.342 -1.1483 -0.7860  1.7263
 6220TIP3    H242856   3.281   6.017   7.409 -1.1739 -0.3100  0.7979
 6221TIP3   OH242857   3.563   1.351   8.071  0.2743 -0.2458 -0.2469
 6221TIP3    H142858   3.524   1.393   8.147 -3.4029  0.0707 -2.0842
 6221TIP3    H242859   3.596   1.267   8.104  0.3029  0.5625  1.9254
 6222TIP3   OH242860   4.056   5.987   7.335  0.1710 -0.0340  0.4838
 6222TIP3    H142861   4.059   5.898   7.369 -0.0466 -0.6555 -1.0577
 6222TIP3    H242862   3.964   6.013   7.345 -0.0016 -0.4105 -0.1011
 6223TIP3   OH242863   5.335   2.565   6.624 -0.4991 -0.3902  0.2559
 6223TIP3    H142864   5.251   2.599   6.593 -1.1159  0.9051  2.9519
 6223TIP3    H242865   5.390   2.643   6.634 -0.2436 -0.7441  1.9075
 6224TIP3   OH242866   1.479   1.279   8.910 -0.1207  0.1767 -0.0127
 6224TIP3    H142867   1.394   1.278   8.954  0.7671  0.0434  1.8396
 6224TIP3    H242868   1.507   1.187   8.909  0.8892  0.4311  1.3488
 6225TIP3   OH242869   3.908   1.525   6.200 -0.3318  0.4344 -0.4189
 6225TIP3    H142870   3.927   1.455   6.138  0.4084  0.3074 -0.0611
 6225TIP3    H242871   3.884   1.480   6.281 -0.5688  0.6008 -0.3932
 6226TIP3   OH242872   1.706   5.082   7.789 -0.1123 -0.1178  0.2718
 6226TIP3    H142873   1.701   5.069   7.694 -0.1711 -0.5403  0.3297
 6226TIP3    H242874   1.799   5.084   7.808 -0.0939  0.6197  0.1219
 6227TIP3   OH242875   1.683   6.731   6.206  0.2484  0.2458 -0.0075
 6227TIP3    H142876   1.705   6.781   6.285 -1.0297  2.3764 -0.9297
 6227TIP3    H242877   1.665   6.643   6.239 -0.8017  1.1921  2.2030
 6228TIP3   OH242878   0.471   6.223   8.626 -0.2718  0.8483  0.1861
 6228TIP3    H142879   0.527   6.182   8.560  0.5865  0.1979  1.2871
 6228TIP3    H242880   0.480   6.166   8.703 -1.4502  1.4469  0.7862
 6229TIP3   OH242881   5.427   1.365   7.192 -0.1577  0.0452  0.2701
 6229TIP3    H142882   5.465   1.413   7.119 -0.4848  0.5086  0.4021
 6229TIP3    H242883   5.453   1.413   7.270 -0.4655 -0.0026  0.4057
 6230TIP3   OH242884   4.558   6.297   7.055 -0.0862 -0.1203 -0.3536
 6230TIP3    H142885   4.535   6.385   7.086 -0.4818 -0.3307 -0.0404
 6230TIP3    H242886   4.473   6.256   7.035 -0.0239 -0.9941  1.0567
 6231TIP3   OH242887   2.186   2.383   6.346  0.0427  0.1069  0.4440
 6231TIP3    H142888   2.147   2.320   6.407 -0.7763 -3.5353 -3.3220
 6231TIP3    H242889   2.112   2.422   6.300  0.6094 -0.2148 -0.8087
 6232TIP3   OH242890   1.918   0.546   6.405 -0.3928  0.1878 -0.2656
 6232TIP3    H142891   1.879   0.496   6.333  0.8493 -0.7098 -0.3484
 6232TIP3    H242892   1.927   0.635   6.370  0.3427 -0.2701 -1.3114
 6233TIP3   OH242893   3.619   2.372   8.883  0.3570  0.1590 -0.3262
 6233TIP3    H142894   3.651   2.301   8.938 -1.2730  0.1823  0.7263
 6233TIP3    H242895   3.679   2.444   8.899 -0.0770  0.1632  1.4720
 6234TIP3   OH242896   2.995   5.535   7.288 -0.4893 -0.2907  0.1724
 6234TIP3    H142897   2.987   5.631   7.286 -0.2030 -0.2315 -3.1850
 6234TIP3    H242898   2.912   5.504   7.252  0.2193 -1.1933 -0.7104
 6235TIP3   OH242899   3.927   5.537   5.420 -0.1567 -0.3558  0.2055
 6235TIP3    H142900   3.852   5.597   5.428 -0.1689 -0.1844 -0.9858
 6235TIP3    H242901   3.896   5.468   5.362  0.9126  0.2629 -1.1562
 6236TIP3   OH242902   4.000   1.687   7.834  0.0059 -0.2933  0.0568
 6236TIP3    H142903   4.067   1.722   7.774  1.9567 -1.0896  1.6309
 6236TIP3    H242904   3.944   1.762   7.853  0.1666  0.3001 -1.6819
 6237TIP3   OH242905   5.295   5.476   5.553  0.6129 -0.0413  0.0245
 6237TIP3    H142906   5.326   5.510   5.469  0.0526 -1.5258 -0.8186
 6237TIP3    H242907   5.255   5.552   5.596  0.5201  0.6586 -1.2396
 6238TIP3   OH242908   1.526   2.197   6.676 -0.6213 -0.4170 -0.2264
 6238TIP3    H142909   1.506   2.243   6.595  1.9295 -0.4140 -0.9477
 6238TIP3    H242910   1.468   2.236   6.741  0.1561  2.5586 -1.1646
 6239TIP3   OH242911   1.654   5.127   5.897 -0.2349 -0.1554  0.0168
 6239TIP3    H142912   1.718   5.073   5.852 -1.1541 -1.5905  0.3595
 6239TIP3    H242913   1.607   5.173   5.827  0.7736  0.4810 -0.2594
 6240TIP3   OH242914   4.207   1.080   7.687 -0.2202  0.3372  0.1944
 6240TIP3    H142915   4.252   0.997   7.669 -0.3058  0.5357 -0.9883
 6240TIP3    H242916   4.257   1.119   7.759  1.0989  0.2320 -0.6318
 6241TIP3   OH242917   6.484   2.417   8.740  0.4582 -0.0116  0.9534
 6241TIP3    H142918   6.460   2.360   8.667 -0.7535 -1.2090  2.1957
 6241TIP3    H242919   6.506   2.500   8.700 -0.3594 -0.5701 -0.7568
 6242TIP3   OH242920   0.225   0.848   7.770 -0.4941  0.4210 -0.0219
 6242TIP3    H142921   0.267   0.847   7.684 -0.3480 -1.5665  0.0129
 6242TIP3    H242922   0.293   0.818   7.830 -0.2145  2.9511  1.0495
 6243TIP3   OH242923   5.555   6.084   8.578 -0.3346 -0.5300  0.1455
 6243TIP3    H142924   5.533   6.165   8.626  0.5963 -0.7322  0.9531
 6243TIP3    H242925   5.475   6.033   8.579 -0.6513 -0.0353  0.5045
 6244TIP3   OH242926   1.702   2.323   6.286 -0.1671  0.6825  0.4082
 6244TIP3    H142927   1.733   2.315   6.196  0.6359  0.0310  0.7285
 6244TIP3    H242928   1.681   2.416   6.296 -1.0965  0.6158 -0.6992
 6245TIP3   OH242929   0.553   3.452   7.208 -0.3959 -0.4778  0.5030
 6245TIP3    H142930   0.617   3.405   7.262  0.0900  0.0392  0.3925
 6245TIP3    H242931   0.559   3.543   7.239  0.2196 -0.0859 -0.7278
 6246TIP3   OH242932   6.251   3.002   7.976  0.7372  0.2071 -0.5999
 6246TIP3    H142933   6.306   2.930   7.944  1.4868  0.5745 -0.1785
 6246TIP3    H242934   6.176   3.004   7.917 -0.6336 -2.5761  0.8763
 6247TIP3   OH242935   0.167   5.261   7.040  0.0430 -0.0367 -0.3734
 6247TIP3    H142936   0.245   5.210   7.017 -0.3839 -0.9309  0.1250
 6247TIP3    H242937   0.197   5.320   7.109  0.4474  0.1219 -0.6793
 6248TIP3   OH242938   1.511   4.052   7.360  0.3076  0.1554 -0.6255
 6248TIP3    H142939   1.424   4.065   7.323 -0.2144 -0.1787  0.4411
 6248TIP3    H242940   1.508   3.965   7.400  0.7322  0.6170  0.4631
 6249TIP3   OH242941   1.682   6.490   6.323  0.2041  0.3517  0.3594
 6249TIP3    H142942   1.617   6.465   6.390 -1.4541  1.1629 -0.8701
 6249TIP3    H242943   1.738   6.413   6.314  0.1901  0.0464  2.3221
 6250TIP3   OH242944   1.788   2.499   7.643 -0.1872  0.8806 -0.1153
 6250TIP3    H142945   1.751   2.445   7.713  0.4852  0.8669  0.2361
 6250TIP3    H242946   1.712   2.534   7.597 -0.6315  0.4565  0.2903
 6251TIP3   OH242947   5.770   2.979   8.320 -0.6273 -0.0336 -0.2322
 6251TIP3    H142948   5.828   2.904   8.334 -0.7874 -0.0144  0.6185
 6251TIP3    H242949   5.762   2.986   8.225  1.3607  0.4194 -0.4165
 6252TIP3   OH242950   6.694   1.360   7.406  0.1428 -0.3791  0.7240
 6252TIP3    H142951   6.667   1.287   7.350 -0.7168  1.0331 -0.7737
 6252TIP3    H242952   6.790   1.355   7.407  0.1114 -1.2638  0.2989
 6253TIP3   OH242953   6.610   5.831   8.381 -0.8974  0.3916  0.3498
 6253TIP3    H142954   6.527   5.785   8.395 -0.7220  0.3224  1.2253
 6253TIP3    H242955   6.670   5.764   8.350 -0.8847  0.2171  0.7505
 6254TIP3   OH242956   0.959   2.597   7.637  0.0974 -0.0441  0.1182
 6254TIP3    H142957   0.934   2.657   7.706 -0.5174  0.9146 -0.9051
 6254TIP3    H242958   0.924   2.512   7.665 -1.3689  0.6033  0.3275
 6255TIP3   OH242959   5.587   5.986   9.407 -0.6292  0.6044  0.2170
 6255TIP3    H142960   5.591   6.008   9.314 -0.8704  1.3433  0.3808
 6255TIP3    H242961   5.619   5.895   9.411 -1.9837  0.0500 -0.7611
 6256TIP3   OH242962   2.882   2.709   6.064  0.1568 -0.2840  0.7397
 6256TIP3    H142963   2.857   2.661   6.143  0.1015 -0.8622  0.3829
 6256TIP3    H242964   2.968   2.745   6.083  0.1960 -0.5226  1.0206
 6257TIP3   OH242965   6.600   0.952   6.531 -0.5003 -0.1847 -0.2314
 6257TIP3    H142966   6.514   0.993   6.518  0.2627  1.2007 -1.2691
 6257TIP3    H242967   6.615   0.903   6.450  0.4105  1.0431 -0.8476
 6258TIP3   OH242968   6.594   3.404   7.971  0.2887 -0.4817 -0.1557
 6258TIP3    H142969   6.534   3.455   8.025 -0.0074 -0.4440 -0.5232
 6258TIP3    H242970   6.543   3.328   7.943  0.3817 -0.4013 -0.5446
 6259TIP3   OH242971   3.922   5.855   5.615  0.0877  0.4349  0.0916
 6259TIP3    H142972   4.013   5.845   5.643  0.2937 -0.6429 -0.8609
 6259TIP3    H242973   3.877   5.779   5.652 -0.4341  0.9632  0.5593
 6260TIP3   OH242974   3.087   4.754   6.325  0.0193 -0.5446 -0.6091
 6260TIP3    H142975   3.145   4.789   6.257  0.7219  0.7140  0.5888
 6260TIP3    H242976   3.145   4.705   6.384 -0.0989  0.6695  0.5636
 6261TIP3   OH242977   0.530   3.120   7.738 -0.1702 -0.4050 -0.3021
 6261TIP3    H142978   0.571   3.044   7.779 -0.4505  0.0201  0.8059
 6261TIP3    H242979   0.464   3.148   7.801 -0.5232  0.3486 -1.0004
 6262TIP3   OH242980   6.444   3.090   6.707  0.0909 -0.3275  0.3517
 6262TIP3    H142981   6.418   3.033   6.634  0.5170 -0.8249  0.5874
 6262TIP3    H242982   6.364   3.138   6.729 -0.0796 -0.2698 -0.3498
 6263TIP3   OH242983   3.271   1.588   6.124 -0.3845  0.1108 -0.4327
 6263TIP3    H142984   3.336   1.559   6.059  1.0229 -0.9738  1.3834
 6263TIP3    H242985   3.245   1.508   6.169 -0.4423  0.9690  1.1284
 6264TIP3   OH242986   2.724   2.286   7.792 -0.5387  0.6143  0.0121
 6264TIP3    H142987   2.650   2.327   7.747 -1.4583 -0.1829  0.7425
 6264TIP3    H242988   2.714   2.192   7.774 -0.3411  0.3930  0.9965
 6265TIP3   OH242989   2.478   5.585   7.202 -0.5677  0.1690  0.2785
 6265TIP3    H142990   2.405   5.614   7.258  1.3967 -2.6303  4.8681
 6265TIP3    H242991   2.538   5.660   7.201 -1.6084  1.0456 -0.1271
 6266TIP3   OH242992   1.028   0.590   9.208  0.5487  0.4605  0.6664
 6266TIP3    H142993   1.105   0.646   9.198  0.7115 -0.1809 -2.3526
 6266TIP3    H242994   0.959   0.650   9.237  0.6735  2.3989 -2.5964
 6267TIP3   OH242995   3.467   6.179   7.251  0.0189 -0.3607  0.1033
 6267TIP3    H142996   3.401   6.119   7.288 -0.1864  0.0150  0.3518
 6267TIP3    H242997   3.416   6.256   7.224 -0.0112 -1.0533 -1.9896
 6268TIP3   OH242998   0.683   5.530   7.491  0.0182 -0.3677  0.6471
 6268TIP3    H142999   0.689   5.517   7.397 -0.6813  0.8710  0.4115
 6268TIP3    H243000   0.590   5.525   7.511 -0.0691  1.4998  0.9073
 6269TIP3   OH243001   5.574   5.613   7.633 -0.3616 -0.4171 -0.1454
 6269TIP3    H143002   5.634   5.675   7.592 -1.0763 -0.6350 -1.5968
 6269TIP3    H243003   5.605   5.527   7.607 -1.2396 -0.5349 -0.8416
 6270TIP3   OH243004   1.823   4.104   6.319  0.6996 -0.3059 -0.3855
 6270TIP3    H143005   1.770   4.103   6.399  2.0223  2.6471  0.6743
 6270TIP3    H243006   1.827   4.013   6.292 -1.7155 -1.1171  1.6017
 6271TIP3   OH243007   3.274   4.387   7.261 -0.1988 -0.0068  0.1674
 6271TIP3    H143008   3.309   4.323   7.323 -0.7892 -1.1392 -0.6381
 6271TIP3    H243009   3.182   4.396   7.285 -0.7916 -1.5244 -1.3810
 6272TIP3   OH243010   1.417   4.030   7.869 -0.2356  0.3033  0.1866
 6272TIP3    H143011   1.491   4.090   7.858 -0.2102  0.3408  0.5750
 6272TIP3    H243012   1.381   4.021   7.780  1.0135 -0.7170 -0.2596
 6273TIP3   OH243013   0.454   2.303   8.749 -0.3038  0.7184  0.4917
 6273TIP3    H143014   0.508   2.363   8.801  0.1582 -0.0015  0.8530
 6273TIP3    H243015   0.516   2.244   8.707 -0.8388 -1.4768  2.5786
 6274TIP3   OH243016   0.063   3.693   9.326  0.3386  0.2668 -0.0389
 6274TIP3    H143017   0.157   3.696   9.340  0.1750 -0.5253  1.3867
 6274TIP3    H243018   0.039   3.783   9.303  1.4932  0.3666 -0.9741
 6275TIP3   OH243019   5.828   0.679   8.515 -0.1927 -0.0826  0.0957
 6275TIP3    H143020   5.901   0.727   8.554 -1.1772  0.8086  0.8752
 6275TIP3    H243021   5.857   0.663   8.425 -0.0653  2.5520 -0.4184
 6276TIP3   OH243022   2.568   3.959   8.314  0.3140  0.4998  0.2870
 6276TIP3    H143023   2.532   3.873   8.292  1.1790  0.0319  0.6479
 6276TIP3    H243024   2.658   3.941   8.343  0.3950  1.4874  0.6943
 6277TIP3   OH243025   3.177   2.961   7.511 -0.1728 -0.1870  0.2723
 6277TIP3    H143026   3.117   3.028   7.542 -0.1111 -0.6162  1.3869
 6277TIP3    H243027   3.212   2.922   7.591  0.7152 -0.7230 -0.3551
 6278TIP3   OH243028   0.127   4.316   5.896  0.0574  0.6987  0.0152
 6278TIP3    H143029   0.173   4.335   5.978 -0.4371  0.1948  0.4177
 6278TIP3    H243030   0.035   4.338   5.914 -0.0755  0.4718 -0.3655
 6279TIP3   OH243031   3.853   3.036   6.630  0.3544 -0.3338 -0.5288
 6279TIP3    H143032   3.862   3.115   6.684 -0.1209 -2.4798  2.9521
 6279TIP3    H243033   3.783   2.986   6.671  3.1910 -4.3921 -0.0296
 6280TIP3   OH243034   2.588   6.262   7.523 -0.4163  0.9948  0.1222
 6280TIP3    H143035   2.681   6.280   7.537 -0.3578  0.5484  0.3174
 6280TIP3    H243036   2.543   6.317   7.587 -0.2441  0.5978  0.5900
 6281TIP3   OH243037   1.941   3.628   9.144  0.3969 -0.2412 -0.0525
 6281TIP3    H143038   1.859   3.674   9.161 -0.2529 -0.9322 -1.2085
 6281TIP3    H243039   2.001   3.695   9.113  0.5912  0.4424  1.6754
 6282TIP3   OH243040   3.221   4.271   5.411 -0.4862 -0.0073 -0.2346
 6282TIP3    H143041   3.145   4.329   5.405 -0.6096 -0.0657  0.6444
 6282TIP3    H243042   3.285   4.309   5.351 -1.4018 -0.2715 -1.4310
 6283TIP3   OH243043   5.210   1.956   7.118 -0.1328 -0.3157  0.7512
 6283TIP3    H143044   5.125   1.979   7.080  0.3317  0.3673  0.0993
 6283TIP3    H243045   5.260   2.038   7.117  1.2825 -1.1252 -0.8655
 6284TIP3   OH243046   5.822   4.474   8.440 -0.4935  0.2187  0.3305
 6284TIP3    H143047   5.911   4.441   8.441 -0.1639  1.0414 -0.2589
 6284TIP3    H243048   5.804   4.500   8.530  1.0860  3.1060 -0.0642
 6285TIP3   OH243049   6.598   1.918   7.026  0.0612 -0.3429  0.4562
 6285TIP3    H143050   6.532   1.964   7.078 -1.1600  0.9082 -2.0280
 6285TIP3    H243051   6.677   1.972   7.034 -0.3527  0.2853  0.3684
 6286TIP3   OH243052   2.602   5.257   6.094  0.2910  0.1127  0.4923
 6286TIP3    H143053   2.695   5.277   6.081  0.7342 -1.7960  0.4437
 6286TIP3    H243054   2.576   5.312   6.169  0.9775  1.9099 -0.5282
 6287TIP3   OH243055   2.270   2.493   7.926 -0.2923 -0.2271 -0.4314
 6287TIP3    H143056   2.197   2.433   7.917 -1.5356  1.3381 -1.2024
 6287TIP3    H243057   2.348   2.439   7.908 -1.3312 -1.6087 -0.9385
 6288TIP3   OH243058   3.423   1.514   8.255  0.1409  0.0421 -0.0958
 6288TIP3    H143059   3.508   1.545   8.286 -0.3889  1.8927 -0.3661
 6288TIP3    H243060   3.403   1.569   8.179 -0.3791 -1.7623 -1.3527
 6289TIP3   OH243061   4.054   4.771   7.875 -0.4844 -0.1021  0.3920
 6289TIP3    H143062   4.033   4.680   7.896  2.0713 -0.8910 -0.1692
 6289TIP3    H243063   4.080   4.769   7.783 -0.5960  1.2502  0.3107
 6290TIP3   OH243064   3.361   0.526   7.600  0.7287  0.2032 -0.7753
 6290TIP3    H143065   3.274   0.498   7.628  1.9269 -3.3375 -0.1151
 6290TIP3    H243066   3.350   0.548   7.507 -0.8155 -0.4719 -0.7777
 6291TIP3   OH243067   2.767   3.164   6.450 -0.0877 -0.0572  0.0246
 6291TIP3    H143068   2.799   3.185   6.537 -1.8726 -0.7632  0.8963
 6291TIP3    H243069   2.839   3.117   6.408  0.2564 -1.0750  1.6785
 6292TIP3   OH243070   5.578   5.767   6.544  0.5602 -0.2906 -0.8003
 6292TIP3    H143071   5.606   5.742   6.456  0.7732 -1.8386 -0.3206
 6292TIP3    H243072   5.516   5.699   6.570  0.4540  0.1786  0.2267
 6293TIP3   OH243073   0.712   6.165   5.820  0.5184  0.3063 -0.2018
 6293TIP3    H143074   0.798   6.205   5.834 -0.2193  1.8227  0.2058
 6293TIP3    H243075   0.711   6.090   5.879  0.9458  1.2776  1.0987
 6294TIP3   OH243076   6.726   5.784   6.274  0.4891 -0.5397 -0.3725
 6294TIP3    H143077   6.817   5.754   6.268  0.0145 -2.0624 -0.4648
 6294TIP3    H243078   6.676   5.717   6.227 -0.7003  0.1689 -0.1462
 6295TIP3   OH243079   3.639   0.271   7.536 -0.1464  0.2978  0.2155
 6295TIP3    H143080   3.554   0.267   7.492 -0.5300 -1.8518  0.9857
 6295TIP3    H243081   3.693   0.206   7.491  1.2581  1.8732 -0.4866
 6296TIP3   OH243082   1.417   6.164   8.000 -0.4476  0.2816 -0.6649
 6296TIP3    H143083   1.470   6.243   8.015  0.5563 -0.1627 -1.7283
 6296TIP3    H243084   1.477   6.102   7.959 -1.2892 -0.9703 -0.0607
 6297TIP3   OH243085   0.506   4.735   6.971  0.4148 -0.3137 -0.5657
 6297TIP3    H143086   0.547   4.762   6.889 -0.8762 -0.7549 -1.3852
 6297TIP3    H243087   0.412   4.729   6.950  0.0754 -0.5157  0.9184
 6298TIP3   OH243088   0.796   0.841   6.131 -0.2335 -0.1302  0.0284
 6298TIP3    H143089   0.815   0.868   6.221 -1.2492 -0.2444  0.2899
 6298TIP3    H243090   0.750   0.916   6.093 -1.0346 -0.6024  0.0432
 6299TIP3   OH243091   1.610   1.692   6.237 -0.2056  0.2719  0.0309
 6299TIP3    H143092   1.646   1.678   6.325 -0.8764 -1.1018  0.1075
 6299TIP3    H243093   1.681   1.665   6.178 -0.6542 -1.3165  0.1779
 6300TIP3   OH243094   1.138   4.703   8.376 -0.2203 -0.1456  0.2100
 6300TIP3    H143095   1.149   4.752   8.294 -0.6449  0.7261  0.6541
 6300TIP3    H243096   1.049   4.724   8.404  0.5023  0.9939  1.7901
 6301TIP3   OH243097   2.330   5.368   6.580 -0.0031  0.6459 -0.3179
 6301TIP3    H143098   2.355   5.315   6.505  0.8565  0.8267 -0.1707
 6301TIP3    H243099   2.267   5.432   6.546 -0.9927 -0.4046 -0.5093
 6302TIP3   OH243100   4.377   6.632   6.156 -0.0823 -0.2276 -0.0643
 6302TIP3    H143101   4.347   6.681   6.079  0.8767  1.1078  0.3725
 6302TIP3    H243102   4.337   6.546   6.147 -2.7748  0.9361 -0.3179
 6303TIP3   OH243103   2.217   2.101   6.634  0.1001  0.7299  0.8022
 6303TIP3    H143104   2.142   2.151   6.665  0.1553  0.3515  1.5719
 6303TIP3    H243105   2.293   2.148   6.667  0.3585  2.4441 -1.9163
 6304TIP3   OH243106   3.495   4.091   8.978 -0.4843 -0.2756 -0.0777
 6304TIP3    H143107   3.453   4.078   8.893 -0.6325  0.0523 -0.0535
 6304TIP3    H243108   3.549   4.169   8.966 -1.7817  0.7691  0.6118
 6305TIP3   OH243109   4.664   2.154   7.358 -0.4294 -0.3418  0.2888
 6305TIP3    H143110   4.650   2.113   7.444  0.0622  0.6561  0.8623
 6305TIP3    H243111   4.737   2.214   7.372 -0.6173  0.1401 -0.7347
 6306TIP3   OH243112   1.539   1.391   7.051 -0.1080 -0.3887  0.0537
 6306TIP3    H143113   1.528   1.374   6.957 -1.5898 -0.9798  0.3090
 6306TIP3    H243114   1.466   1.450   7.073  0.8871  0.6647  0.6208
 6307TIP3   OH243115   3.479   2.192   6.898 -0.4004 -0.0843  0.2877
 6307TIP3    H143116   3.403   2.150   6.859 -0.3282 -0.8584  0.9625
 6307TIP3    H243117   3.552   2.165   6.843 -0.5146  0.1068  0.0401
 6308TIP3   OH243118   5.701   6.263   7.711 -0.0072  0.1775  0.4472
 6308TIP3    H143119   5.610   6.244   7.733 -0.2740 -1.1614 -1.5581
 6308TIP3    H243120   5.699   6.352   7.676 -0.0532  1.1736  2.8414
 6309TIP3   OH243121   0.366   2.643   7.240 -0.0450  0.3718  0.5985
 6309TIP3    H143122   0.438   2.646   7.302  0.9792 -0.1653 -0.5151
 6309TIP3    H243123   0.334   2.733   7.235  2.0262  1.1096 -0.5241
 6310TIP3   OH243124   1.581   4.467   5.848 -0.4589 -0.1999 -0.5407
 6310TIP3    H143125   1.542   4.554   5.853 -0.8032 -0.4365  1.7958
 6310TIP3    H243126   1.675   4.484   5.841 -0.4996  0.3773  0.1746
 6311TIP3   OH243127   1.703   5.324   7.977  0.3412  0.1776 -0.1409
 6311TIP3    H143128   1.727   5.354   7.890  1.9364 -0.9584 -0.1212
 6311TIP3    H243129   1.648   5.246   7.961  1.5801 -0.7189 -0.1533
 6312TIP3   OH243130   1.146   0.293   9.655 -0.4035 -0.0717 -0.3740
 6312TIP3    H143131   1.220   0.303   9.716 -0.1075 -0.0194 -0.7390
 6312TIP3    H243132   1.070   0.322   9.706 -0.4310 -1.6796  0.5482
 6313TIP3   OH243133   0.119   5.159   8.673 -0.1253 -0.0657 -0.1804
 6313TIP3    H143134   0.187   5.220   8.702  0.3794  0.4677 -2.3244
 6313TIP3    H243135   0.069   5.140   8.753  1.6677  0.6072  1.1867
 6314TIP3   OH243136   5.359   4.044   7.689  0.1833 -0.2259 -0.3665
 6314TIP3    H143137   5.325   4.132   7.707  0.3020 -0.3643  0.5761
 6314TIP3    H243138   5.421   4.027   7.760  1.8600 -0.1941 -1.7620
 6315TIP3   OH243139   1.902   1.781   7.665 -0.1323  0.1039 -0.2756
 6315TIP3    H143140   1.942   1.700   7.633 -1.7651 -0.6638 -0.4823
 6315TIP3    H243141   1.929   1.848   7.602  0.7979 -0.3730 -0.4003
 6316TIP3   OH243142   1.758   0.483   6.960 -0.3495 -0.1858 -0.0471
 6316TIP3    H143143   1.680   0.451   6.917 -0.7600  2.2010 -1.2711
 6316TIP3    H243144   1.828   0.424   6.933 -1.2375 -0.7158 -1.2277
 6317TIP3   OH243145   5.410   1.354   6.462 -0.4613  0.2096  0.0951
 6317TIP3    H143146   5.338   1.292   6.447  0.9126 -1.1603 -1.2319
 6317TIP3    H243147   5.386   1.431   6.409 -0.3445 -0.7662 -1.4414
 6318TIP3   OH243148   0.065   4.701   6.032  0.4936  0.0179 -0.3789
 6318TIP3    H143149   0.018   4.621   6.057 -0.1004 -0.1201 -1.8472
 6318TIP3    H243150   0.140   4.669   5.981  0.4931  0.3827 -0.6076
 6319TIP3   OH243151   5.044   4.661   5.608 -1.0635 -0.0307 -0.0731
 6319TIP3    H143152   5.103   4.717   5.558  0.9799 -0.5607  1.5809
 6319TIP3    H243153   4.966   4.714   5.623 -0.1830  1.4625 -0.6297
 6320TIP3   OH243154   0.695   6.430   7.589 -0.0474  0.2528  0.2344
 6320TIP3    H143155   0.676   6.514   7.629 -0.2351  0.5567 -0.4731
 6320TIP3    H243156   0.610   6.395   7.563  0.1629  0.7354 -1.2026
 6321TIP3   OH243157   4.147   0.039   5.648 -0.2206  0.0115 -0.0110
 6321TIP3    H143158   4.211   0.083   5.592 -0.2632 -0.6451 -0.5751
 6321TIP3    H243159   4.071   0.026   5.593 -0.1226 -0.9862  0.0756
 6322TIP3   OH243160   2.476   6.751   8.230 -0.0936  0.4425  0.7752
 6322TIP3    H143161   2.530   6.720   8.303 -0.8295 -0.9686  0.7507
 6322TIP3    H243162   2.458   6.673   8.179  0.7270  1.4701 -1.1710
 6323TIP3   OH243163   0.089   5.628   5.924  0.1425  0.1918 -0.1349
 6323TIP3    H143164   0.162   5.638   5.864 -0.8363  3.1085 -0.9873
 6323TIP3    H243165   0.124   5.653   6.009  0.6505 -0.5378 -0.1212
 6324TIP3   OH243166   2.545   1.666   8.047 -0.1624 -0.4622  0.0692
 6324TIP3    H143167   2.556   1.761   8.042  0.7048 -0.5640 -0.1142
 6324TIP3    H243168   2.632   1.630   8.028 -0.3924 -1.2858  0.5000
 6325TIP3   OH243169   1.606   6.626   5.727 -0.2440  0.1774 -0.0097
 6325TIP3    H143170   1.597   6.671   5.811 -1.9468  0.9658 -0.5716
 6325TIP3    H243171   1.578   6.536   5.746 -0.5219  0.3245  0.3022
 6326TIP3   OH243172   1.775   3.951   6.794  0.4658  0.0554  0.5638
 6326TIP3    H143173   1.706   3.889   6.817  0.3323  0.3774  1.0610
 6326TIP3    H243174   1.809   3.920   6.710 -1.7542  1.1398 -0.8270
 6327TIP3   OH243175   4.546   4.811   5.794 -0.2429  0.0162 -0.9082
 6327TIP3    H143176   4.507   4.891   5.829  0.2485  0.4438 -1.3291
 6327TIP3    H243177   4.544   4.749   5.867  0.5013  0.7984 -0.2120
 6328TIP3   OH243178   6.113   2.700   6.490  0.2210 -0.1134  0.2903
 6328TIP3    H143179   6.196   2.714   6.535  0.4539  0.9020 -0.4012
 6328TIP3    H243180   6.062   2.780   6.507 -0.4934 -0.5872  0.4443
 6329TIP3   OH243181   1.010   2.139   8.014 -0.2536  0.0407 -0.2211
 6329TIP3    H143182   1.015   2.178   7.927 -2.5387  1.0972  0.0580
 6329TIP3    H243183   1.045   2.206   8.072 -1.1682  0.3899 -0.0681
 6330TIP3   OH243184   1.172   5.203   6.700  0.0858  0.5875 -0.0031
 6330TIP3    H143185   1.128   5.250   6.629 -1.2798 -0.0067  0.4248
 6330TIP3    H243186   1.227   5.138   6.655 -1.2901 -0.2546 -0.5354
 6331TIP3   OH243187   4.788   6.013   6.136 -0.3108  0.1216 -0.2950
 6331TIP3    H143188   4.764   5.944   6.198 -0.2056  0.7816  0.4999
 6331TIP3    H243189   4.883   6.011   6.134 -0.2880  0.6026  0.1533
 6332TIP3   OH243190   1.747   4.537   8.939 -0.1291 -0.0175  0.0327
 6332TIP3    H143191   1.692   4.516   9.014  0.5522 -0.8346  0.3232
 6332TIP3    H243192   1.764   4.630   8.947  0.0403 -0.1226  0.9715
 6333TIP3   OH243193   3.752   6.003   8.871 -0.2981  0.5848 -0.3090
 6333TIP3    H143194   3.832   6.055   8.875  0.3426 -0.1800 -2.1541
 6333TIP3    H243195   3.777   5.918   8.908 -0.7428  0.8526  0.6494
 6334TIP3   OH243196   3.309   6.663   7.881  0.2850  0.4557  0.1524
 6334TIP3    H143197   3.302   6.757   7.895  0.8878  0.2695  1.9677
 6334TIP3    H243198   3.379   6.635   7.941  0.4844 -1.0667 -0.7298
 6335TIP3   OH243199   4.303   3.130   5.912 -0.2820 -0.0966 -0.0580
 6335TIP3    H143200   4.210   3.111   5.926 -0.5320 -0.3266 -1.7490
 6335TIP3    H243201   4.329   3.183   5.987 -1.4645 -1.0272  1.0614
 6336TIP3   OH243202   0.875   2.619   8.989 -0.3642 -0.0017 -0.4600
 6336TIP3    H143203   0.899   2.641   9.078 -1.7046 -2.3492  0.5828
 6336TIP3    H243204   0.957   2.622   8.940  0.7893 -0.8241  1.3510
 6337TIP3   OH243205   5.208   4.649   5.922 -0.1577 -0.2619 -0.5584
 6337TIP3    H143206   5.136   4.639   5.985 -2.4460 -1.4409 -3.1224
 6337TIP3    H243207   5.169   4.697   5.849  1.6954 -0.8479 -2.0187
 6338TIP3   OH243208   2.928   3.140   8.273  0.5630 -0.0444 -0.1746
 6338TIP3    H143209   2.842   3.102   8.291  0.8817 -1.2655 -1.0419
 6338TIP3    H243210   2.913   3.234   8.268 -0.5305 -0.1527  0.6533
 6339TIP3   OH243211   1.378   2.246   6.239 -0.0990 -0.7424  0.7421
 6339TIP3    H143212   1.379   2.329   6.192 -0.2480 -1.1970 -0.0825
 6339TIP3    H243213   1.447   2.194   6.199  1.3108 -0.3507  2.5343
 6340TIP3   OH243214   0.653   3.278   8.096 -1.0230  0.1126 -0.5005
 6340TIP3    H143215   0.591   3.313   8.032 -0.9714  1.5621  0.2000
 6340TIP3    H243216   0.624   3.313   8.180 -0.8925 -1.4813  0.2477
 6341TIP3   OH243217   4.375   6.492   6.762  0.1102  0.2469  0.2663
 6341TIP3    H143218   4.366   6.587   6.756  0.8561  0.4562  1.8752
 6341TIP3    H243219   4.312   6.457   6.699  0.5320  1.8152 -1.0632
 6342TIP3   OH243220   4.430   2.430   7.674  0.4391  0.0614 -0.1445
 6342TIP3    H143221   4.504   2.416   7.734  0.5234  2.0573  0.2828
 6342TIP3    H243222   4.355   2.446   7.732  0.7696  3.3449 -0.4264
 6343TIP3   OH243223   5.420   5.210   7.868 -0.4986 -0.0589  0.1649
 6343TIP3    H143224   5.391   5.286   7.818  1.2807 -0.0702 -0.9677
 6343TIP3    H243225   5.443   5.245   7.954 -1.2956  0.3725  0.2139
 6344TIP3   OH243226   6.689   5.796   5.776  0.3315 -0.1325  0.5896
 6344TIP3    H143227   6.767   5.811   5.722  0.8035 -2.3747  0.5522
 6344TIP3    H243228   6.721   5.743   5.849 -1.6544 -4.5566 -1.3647
 6345TIP3   OH243229   3.438   6.430   5.955  0.7101  0.4090  0.6067
 6345TIP3    H143230   3.381   6.387   5.891  0.2737  1.9539 -0.0877
 6345TIP3    H243231   3.525   6.391   5.939  1.0817  2.1686 -2.4129
 6346TIP3   OH243232   5.265   1.599   8.378 -0.2841 -0.5632 -0.4489
 6346TIP3    H143233   5.256   1.601   8.283 -2.0053 -0.2503 -0.3024
 6346TIP3    H243234   5.223   1.679   8.409 -1.6351 -1.6496  0.6926
 6347TIP3   OH243235   3.476   5.576   6.416 -0.3585 -0.2135  0.3412
 6347TIP3    H143236   3.522   5.588   6.333  0.6118 -1.1308  0.7192
 6347TIP3    H243237   3.492   5.484   6.439  0.5188  0.3501  2.1878
 6348TIP3   OH243238   3.176   0.053   5.614  0.9779  0.0176 -0.2670
 6348TIP3    H143239   3.140   0.141   5.626  0.9611 -0.0481  0.1885
 6348TIP3    H243240   3.111   0.007   5.561  1.3693  0.5236 -1.1927
 6349TIP3   OH243241   4.049   4.452   6.173 -0.2507  0.0222 -0.4323
 6349TIP3    H143242   4.032   4.377   6.116 -0.4845 -0.8379  0.7293
 6349TIP3    H243243   4.090   4.517   6.116 -0.7781 -0.6743 -1.6443
 6350TIP3   OH243244   0.261   4.266   5.660 -0.3720  0.0417  0.3529
 6350TIP3    H143245   0.214   4.282   5.741 -0.3886  0.9264  0.1828
 6350TIP3    H243246   0.344   4.313   5.670  0.0781 -0.7107  0.2693
 6351TIP3   OH243247   2.088   3.640   5.737  0.3962 -0.4817  0.1687
 6351TIP3    H143248   2.150   3.661   5.808  1.9846 -1.1876 -0.9458
 6351TIP3    H243249   2.114   3.698   5.665 -0.1346 -0.9103 -0.3713
 6352TIP3   OH243250   4.418   1.848   8.182  0.3533  0.4126 -0.0615
 6352TIP3    H143251   4.438   1.917   8.119 -0.0833  1.1854  0.6394
 6352TIP3    H243252   4.419   1.891   8.267  0.8083 -0.5953  0.4690
 6353TIP3   OH243253   1.392   5.063   8.446 -0.2661  0.0484  0.3222
 6353TIP3    H143254   1.375   5.098   8.534  0.0610 -0.2430  0.5012
 6353TIP3    H243255   1.460   5.120   8.411 -2.4159  2.0516 -0.8996
 6354TIP3   OH243256   6.140   1.573   8.148  0.2004  0.2640  0.2157
 6354TIP3    H143257   6.206   1.504   8.143  2.2076  2.0600  0.5257
 6354TIP3    H243258   6.097   1.558   8.233 -0.9736 -1.8475 -0.6574
 6355TIP3   OH243259   1.904   3.387   6.187  0.0396  0.0728  0.2096
 6355TIP3    H143260   1.972   3.391   6.121  0.1259 -1.2555  0.1847
 6355TIP3    H243261   1.950   3.366   6.268  0.0369  2.4717  0.9091
 6356TIP3   OH243262   5.796   3.647   7.378 -0.3040  0.2260 -0.5013
 6356TIP3    H143263   5.863   3.609   7.434 -0.8418  0.6361  0.4295
 6356TIP3    H243264   5.823   3.738   7.366 -1.2538  0.7085  0.8007
 6357TIP3   OH243265   5.541   3.715   6.290 -0.6111  0.2106 -0.6785
 6357TIP3    H143266   5.608   3.647   6.298 -2.4386 -1.8674 -1.8402
 6357TIP3    H243267   5.542   3.760   6.374  1.1572 -0.7750 -0.1204
 6358TIP3   OH243268   2.979   5.831   8.626  0.6631  0.5698 -0.6389
 6358TIP3    H143269   3.024   5.807   8.545  2.4705  1.8320 -0.0824
 6358TIP3    H243270   3.047   5.873   8.679 -1.1075  2.2311  0.4328
 6359TIP3   OH243271   1.731   1.044   7.693 -0.0997 -0.3518 -0.1490
 6359TIP3    H143272   1.817   1.021   7.657 -0.3660 -0.4424 -0.7467
 6359TIP3    H243273   1.699   1.112   7.634  0.8669  1.9728  1.8242
 6360TIP3   OH243274   3.555   5.795   8.779 -0.0619 -0.0381  0.3802
 6360TIP3    H143275   3.571   5.780   8.686  0.1546 -1.0496  0.5643
 6360TIP3    H243276   3.639   5.777   8.822  0.0735  1.2557  0.7043
 6361TIP3   OH243277   6.111   1.744   8.945 -0.1358 -0.0210  0.3637
 6361TIP3    H143278   6.075   1.820   8.899 -0.4575 -0.7708 -0.6423
 6361TIP3    H243279   6.205   1.764   8.953 -0.4561  1.2051  1.5800
 6362TIP3   OH243280   0.997   2.140   7.055  0.2353 -0.6782 -0.3732
 6362TIP3    H143281   0.938   2.156   6.982  2.2178  1.0278 -1.7244
 6362TIP3    H243282   1.011   2.227   7.095  0.6024 -1.2859  0.9007
 6363TIP3   OH243283   5.799   3.183   7.169 -0.1077 -0.1738  0.0442
 6363TIP3    H143284   5.742   3.142   7.234  0.5985 -1.5517 -0.1817
 6363TIP3    H243285   5.739   3.233   7.113 -0.7074  1.3604  1.9226
 6364TIP3   OH243286   0.662   6.703   6.388  0.0067  0.2498 -0.1777
 6364TIP3    H143287   0.694   6.773   6.333 -3.2743  1.4068 -0.8402
 6364TIP3    H243288   0.683   6.623   6.340  1.3171  0.9313 -0.7823
 6365TIP3   OH243289   6.467   2.658   6.050 -0.5732 -0.6622  0.1189
 6365TIP3    H143290   6.429   2.570   6.042  0.6700 -1.1261 -1.0604
 6365TIP3    H243291   6.494   2.681   5.962 -1.0217  1.0093  0.3808
 6366TIP3   OH243292   1.105   1.108   8.100 -0.1242 -0.0229  0.0891
 6366TIP3    H143293   1.082   1.112   8.192 -1.4220  0.4698 -0.2302
 6366TIP3    H243294   1.023   1.086   8.055  0.1948  0.9308 -1.0393
 6367TIP3   OH243295   1.762   6.286   5.746  0.2992 -0.3786  0.0762
 6367TIP3    H143296   1.829   6.319   5.806  0.5266 -1.3916  0.3887
 6367TIP3    H243297   1.809   6.267   5.666 -0.2102  2.2409 -0.9654
 6368TIP3   OH243298   1.971   6.431   6.392 -0.4387  0.1140  0.3570
 6368TIP3    H143299   1.909   6.364   6.362 -0.4432 -1.5318  3.6035
 6368TIP3    H243300   2.053   6.384   6.404  0.6379  1.5894 -0.8293
 6369TIP3   OH243301   1.671   4.219   7.474 -0.1101  0.0137  0.1434
 6369TIP3    H143302   1.759   4.180   7.468  0.1190  0.6920 -2.3582
 6369TIP3    H243303   1.614   4.154   7.431 -0.6218  0.1441  0.6205
 6370TIP3   OH243304   3.408   4.591   7.922  0.4623  0.0405 -0.1693
 6370TIP3    H143305   3.388   4.627   8.008  0.6909  0.8751 -0.4588
 6370TIP3    H243306   3.383   4.499   7.928 -1.8578  0.6102  0.0259
 6371TIP3   OH243307   1.708   2.304   5.969  0.3970  0.3470  0.0850
 6371TIP3    H143308   1.629   2.262   6.003  0.4906  0.3431  0.3030
 6371TIP3    H243309   1.762   2.231   5.939  1.3443  0.1245  2.1195
 6372TIP3   OH243310   2.212   4.195   7.566 -0.6984 -0.4930  0.7885
 6372TIP3    H143311   2.225   4.100   7.561 -0.6449 -0.4392 -0.3308
 6372TIP3    H243312   2.293   4.228   7.607 -0.1206 -0.8086 -0.0652
 6373TIP3   OH243313   6.621   6.654   7.840 -0.2220  0.4560 -0.1204
 6373TIP3    H143314   6.699   6.696   7.877 -0.9585  0.9837  0.8835
 6373TIP3    H243315   6.548   6.691   7.890 -1.3041  1.4150 -2.2698
 6374TIP3   OH243316   3.334   4.968   8.160  0.1261  0.3037 -0.2604
 6374TIP3    H143317   3.311   4.876   8.156  2.5829 -0.4059  0.0681
 6374TIP3    H243318   3.407   4.977   8.098 -0.5022  2.1930 -0.8029
 6375TIP3   OH243319   0.126   4.436   7.136  0.0563  0.9072 -0.4601
 6375TIP3    H143320   0.119   4.405   7.226  1.1182  0.1942 -0.6107
 6375TIP3    H243321   0.088   4.524   7.138 -3.0266 -0.2989 -0.0079
 6376TIP3   OH243322   6.072   1.025   8.781  0.4416  0.2617  0.5123
 6376TIP3    H143323   6.106   1.113   8.766  0.7229 -0.0026 -0.4775
 6376TIP3    H243324   6.039   1.027   8.871 -1.9089  2.1472 -0.2669
 6377TIP3   OH243325   1.900   5.143   8.120  0.0011 -0.4043  0.1393
 6377TIP3    H143326   1.937   5.204   8.184  1.0369  0.3370 -1.1267
 6377TIP3    H243327   1.847   5.197   8.063 -0.0563 -0.8865 -0.2719
 6378TIP3   OH243328   4.147   4.229   5.699 -0.2654 -0.1806 -0.0414
 6378TIP3    H143329   4.054   4.243   5.686 -0.1184 -0.1280 -1.1545
 6378TIP3    H243330   4.162   4.247   5.792 -1.2115  0.6428 -0.0403
 6379TIP3   OH243331   2.898   3.317   9.251  0.3050  0.2166  0.0810
 6379TIP3    H143332   2.976   3.289   9.300  1.2207  0.5790 -1.1183
 6379TIP3    H243333   2.923   3.307   9.159 -0.0654  2.8400 -0.3863
 6380TIP3   OH243334   5.596   1.816   6.801  0.5725 -0.5243  0.2023
 6380TIP3    H143335   5.609   1.722   6.788 -0.0503 -0.4635 -0.9639
 6380TIP3    H243336   5.652   1.838   6.876  3.0409 -1.2708 -1.3160
 6381TIP3   OH243337   2.923   4.380   7.585 -0.4171  0.1430  0.2440
 6381TIP3    H143338   2.846   4.401   7.637  0.0800  0.2374  0.9512
 6381TIP3    H243339   2.912   4.288   7.561 -0.3912 -0.0599  0.9805
 6382TIP3   OH243340   2.064   6.003   6.401  0.2882  0.2497  0.0240
 6382TIP3    H143341   2.039   6.075   6.458 -1.9311 -0.4351  0.0139
 6382TIP3    H243342   2.148   5.974   6.434 -0.5514  0.4044  2.4651
 6383TIP3   OH243343   6.726   1.500   8.090  0.3222  0.3450 -0.3053
 6383TIP3    H143344   6.798   1.519   8.151 -0.0168  0.9242 -0.0837
 6383TIP3    H243345   6.711   1.583   8.045  0.8263 -0.1731 -1.4613
 6384TIP3   OH243346   4.264   3.823   9.074 -0.0147 -0.6368 -0.5129
 6384TIP3    H143347   4.222   3.905   9.101  0.7933 -0.4810  0.3212
 6384TIP3    H243348   4.320   3.848   9.000 -1.2054 -0.8088 -1.4996
 6385TIP3   OH243349   4.283   2.685   7.534  0.0404  0.8914 -0.7567
 6385TIP3    H143350   4.377   2.685   7.522  0.1571  1.0348  0.0767
 6385TIP3    H243351   4.259   2.593   7.544  0.2120  0.9132 -0.1301
 6386TIP3   OH243352   5.253   4.901   8.263 -0.2747 -0.0525  0.0613
 6386TIP3    H143353   5.340   4.931   8.290 -0.0427 -0.5218 -0.1543
 6386TIP3    H243354   5.216   4.975   8.215  0.1354  0.0419 -0.1180
 6387TIP3   OH243355   0.066   2.653   5.918 -0.1056 -0.3550  0.4515
 6387TIP3    H143356   0.007   2.613   5.854  0.3031 -0.5446  0.1924
 6387TIP3    H243357   0.041   2.614   6.002 -0.3500 -0.4313  0.3433
 6388TIP3   OH243358   1.581   5.035   8.058  0.3432 -0.3552  0.0976
 6388TIP3    H143359   1.615   5.028   7.969  1.7538  0.1918  0.5668
 6388TIP3    H243360   1.493   5.073   8.047  0.8144  0.4754 -1.0179
 6389TIP3   OH243361   0.693   3.670   7.321  0.0470 -0.1566  0.1242
 6389TIP3    H143362   0.784   3.645   7.306 -0.3549 -0.7417 -1.4837
 6389TIP3    H243363   0.687   3.682   7.416  2.1742  1.4454  0.1275
 6390TIP3   OH243364   4.505   5.539   6.547  0.9440 -0.3631  0.0539
 6390TIP3    H143365   4.590   5.555   6.588 -0.0947  0.5175  2.0387
 6390TIP3    H243366   4.504   5.595   6.470  1.9325  0.0652  0.3395
 6391TIP3   OH243367   5.500   3.541   6.037 -0.1163  0.3502  0.3170
 6391TIP3    H143368   5.524   3.599   5.965  0.1397 -1.1464 -0.8242
 6391TIP3    H243369   5.583   3.513   6.074 -0.2236 -0.1469  0.1791
 6392TIP3   OH243370   4.671   1.999   5.727  0.3692  0.0756 -0.0983
 6392TIP3    H143371   4.693   1.928   5.787 -1.2159  0.3807  0.9146
 6392TIP3    H243372   4.600   1.964   5.674 -1.4570  1.2917  1.3955
 6393TIP3   OH243373   5.980   2.111   6.928 -0.5159 -0.0264 -0.0606
 6393TIP3    H143374   5.917   2.090   6.859 -0.8785  0.3197  0.1574
 6393TIP3    H243375   6.027   2.187   6.895  1.1638 -1.4369 -1.0837
 6394TIP3   OH243376   1.968   0.786   7.561 -0.3665  0.2823 -0.8147
 6394TIP3    H143377   1.957   0.869   7.515  1.7098  0.5147 -0.9821
 6394TIP3    H243378   2.059   0.762   7.547  0.6570  0.6765  3.5735
 6395TIP3   OH243379   5.197   2.852   6.937  0.4253 -0.5574 -0.1980
 6395TIP3    H143380   5.145   2.933   6.933  1.8232  0.3884 -0.1396
 6395TIP3    H243381   5.159   2.796   6.870 -0.3836  0.2782 -0.4642
 6396TIP3   OH243382   2.055   4.573  15.364 -0.0185  0.7763 -0.3964
 6396TIP3    H143383   2.006   4.623  15.430  1.8395  0.5166  1.2571
 6396TIP3    H243384   2.132   4.626  15.346  0.2526  0.1161 -1.2284
 6397TIP3   OH243385   0.541   6.386   5.881  0.3674  0.2902  0.0415
 6397TIP3    H143386   0.576   6.430   5.804  1.0320 -0.0957  0.1221
 6397TIP3    H243387   0.580   6.298   5.879 -1.7778 -0.7393 -0.7371
 6398TIP3   OH243388   4.204   3.210   7.550  0.8840  0.0903  0.3684
 6398TIP3    H143389   4.248   3.295   7.547  0.8592  0.0837 -0.3866
 6398TIP3    H243390   4.243   3.166   7.625  2.2083  0.0744 -0.2907
 6399TIP3   OH243391   4.628   0.883   5.667  0.1653  0.1548  0.0220
 6399TIP3    H143392   4.640   0.870   5.761 -1.9339  2.0884  0.6382
 6399TIP3    H243393   4.646   0.976   5.652 -0.6352  0.1322 -1.2796
 6400TIP3   OH243394   3.015   4.396   7.328  0.0937 -0.0189 -0.5498
 6400TIP3    H143395   2.995   4.422   7.418  0.5381  0.1106 -0.4865
 6400TIP3    H243396   2.970   4.313   7.316  0.0186 -0.0255 -0.2153
 6401TIP3   OH243397   1.480   3.197   9.154  0.2972 -0.6722  0.2187
 6401TIP3    H143398   1.502   3.175   9.064  0.2417  0.7165 -0.1537
 6401TIP3    H243399   1.451   3.288   9.150 -0.2299 -0.7616  1.5558
 6402TIP3   OH243400   1.783   1.691   8.164  0.2931 -0.4557 -0.1239
 6402TIP3    H143401   1.861   1.703   8.218  0.7744  0.8764 -1.0613
 6402TIP3    H243402   1.816   1.675   8.076 -0.4850 -2.1078 -0.1481
 6403TIP3   OH243403   4.682   5.255   7.886  1.1282  0.4115 -0.3576
 6403TIP3    H143404   4.694   5.204   7.966  1.7433  2.9301  1.2715
 6403TIP3    H243405   4.588   5.272   7.882  1.0421 -0.0592 -0.4014
 6404TIP3   OH243406   1.236   2.870   7.881  0.2172 -0.1899  0.1284
 6404TIP3    H143407   1.164   2.916   7.923  1.7638  1.5017  1.1042
 6404TIP3    H243408   1.294   2.845   7.954  1.2623 -0.3027 -0.7102
 6405TIP3   OH243409   1.884   1.371   8.866  0.1614  0.4905  0.1745
 6405TIP3    H143410   1.968   1.343   8.829 -0.4623  1.6969 -2.3704
 6405TIP3    H243411   1.887   1.341   8.957  3.6526  1.1312  0.4101
 6406TIP3   OH243412   5.050   0.164   6.534  0.4072  0.0588 -0.3988
 6406TIP3    H143413   5.073   0.238   6.590  0.9019  0.0097 -0.5351
 6406TIP3    H243414   4.958   0.147   6.553  0.6098 -0.0558  0.5154
 6407TIP3   OH243415   1.002   0.646   6.070  0.2041 -0.0982 -0.3891
 6407TIP3    H143416   0.982   0.734   6.103 -1.2227 -0.9219  1.0522
 6407TIP3    H243417   0.947   0.637   5.992  0.1729  0.1990 -0.4024
 6408TIP3   OH243418   4.833   6.205   7.863 -0.5851  0.0524  0.5583
 6408TIP3    H143419   4.789   6.155   7.795  0.6937 -1.0942  0.5237
 6408TIP3    H243420   4.896   6.260   7.816 -0.5081  0.1276  0.7444
 6409TIP3   OH243421   0.205   3.566   8.030 -0.2724  0.0098  0.0625
 6409TIP3    H143422   0.300   3.576   8.037 -0.2144  0.0820 -0.7326
 6409TIP3    H243423   0.169   3.641   8.077  0.0142 -0.9563  1.9527
 6410TIP3   OH243424   4.971   3.610   7.067  0.3296 -0.2374 -0.0379
 6410TIP3    H143425   4.915   3.576   6.997  0.1697 -1.1850  0.5264
 6410TIP3    H243426   5.050   3.555   7.063  0.7775  0.4113 -0.1606
 6411TIP3   OH243427   0.177   1.978   6.661  0.2520 -0.3420  0.5360
 6411TIP3    H143428   0.123   1.899   6.665 -0.7755  0.1743 -1.6246
 6411TIP3    H243429   0.266   1.947   6.679 -0.3292 -1.7287  1.1511
 6412TIP3   OH243430   6.307   5.800   6.741 -0.2517 -0.0311  0.0350
 6412TIP3    H143431   6.245   5.872   6.731  1.8183  1.9385  0.5611
 6412TIP3    H243432   6.324   5.770   6.652  0.0593  1.2469 -0.3529
 6413TIP3   OH243433   0.350   6.527   7.276  0.1592 -0.2426 -0.3906
 6413TIP3    H143434   0.271   6.551   7.227 -0.2314 -0.4151  0.1354
 6413TIP3    H243435   0.419   6.582   7.240 -0.0141 -0.6909 -1.4479
 6414TIP3   OH243436   4.311   5.859   6.822  0.1700  0.2732 -0.2374
 6414TIP3    H143437   4.253   5.882   6.895  1.1090 -1.1250  1.0128
 6414TIP3    H243438   4.344   5.942   6.791 -0.7411  0.9446  0.5185
 6415TIP3   OH243439   3.925   0.884   5.727  0.1191  0.0700  0.2376
 6415TIP3    H143440   3.991   0.949   5.701  0.1482 -0.8920 -2.4154
 6415TIP3    H243441   3.972   0.801   5.728 -0.2451 -0.1669  2.1999
 6416TIP3   OH243442   1.282   6.614   6.120 -0.1436  0.7968 -0.0012
 6416TIP3    H143443   1.188   6.619   6.101 -0.3810  0.1617  0.9370
 6416TIP3    H243444   1.301   6.697   6.164 -0.2924  0.8858 -0.1022
 6417TIP3   OH243445   2.577   4.413   6.169 -0.1658 -0.2773 -0.1900
 6417TIP3    H143446   2.538   4.335   6.206 -0.7843 -0.6244 -1.5159
 6417TIP3    H243447   2.612   4.385   6.084 -0.1115  0.8085 -0.5477
 6418TIP3   OH243448   6.269   0.643   8.123  0.2502 -0.7278 -0.1600
 6418TIP3    H143449   6.244   0.647   8.215  1.1347  0.4578  0.0694
 6418TIP3    H243450   6.343   0.582   8.120  0.4127 -0.5399 -0.0213
 6419TIP3   OH243451   4.279   3.704   6.085  0.5824 -0.1606  0.2328
 6419TIP3    H143452   4.198   3.755   6.099  0.4360 -0.9520  2.7026
 6419TIP3    H243453   4.349   3.766   6.102  0.4333 -0.1819  0.9657
 6420TIP3   OH243454   3.145   5.316   6.479  0.3638  0.7140  0.1470
 6420TIP3    H143455   3.103   5.254   6.538  2.2873 -0.1621  0.6600
 6420TIP3    H243456   3.189   5.379   6.536  1.0604  0.6899 -0.3469
 6421TIP3   OH243457   5.870   5.261   8.385  0.1369 -0.1607  0.5765
 6421TIP3    H143458   5.806   5.253   8.314  0.4819  0.5367  0.1682
 6421TIP3    H243459   5.877   5.355   8.399 -1.0607 -0.3329  2.6116
 6422TIP3   OH243460   0.608   1.960   7.116  0.3229  0.4544 -0.1488
 6422TIP3    H143461   0.608   2.017   7.039  0.9303 -0.5483 -0.9261
 6422TIP3    H243462   0.582   2.017   7.188 -1.7203  1.1144 -1.3121
 6423TIP3   OH243463   5.822   6.049   6.589 -0.0285 -0.1388 -0.2885
 6423TIP3    H143464   5.759   6.018   6.654 -1.9823 -0.0518 -2.0448
 6423TIP3    H243465   5.841   6.139   6.615  0.4705 -0.5984  1.0230
 6424TIP3   OH243466   4.227   0.461   7.866  0.0352  0.0265  0.0763
 6424TIP3    H143467   4.172   0.487   7.940  0.0793  0.8973 -0.1902
 6424TIP3    H243468   4.172   0.399   7.817 -0.8082  1.0345 -0.2948
 6425TIP3   OH243469   3.454   4.460   5.324 -1.0707 -0.0020  0.2007
 6425TIP3    H143470   3.529   4.504   5.365 -1.2325 -0.0175  0.5186
 6425TIP3    H243471   3.378   4.510   5.354 -1.1933 -0.0098 -0.0912
 6426TIP3   OH243472   4.559   4.424   7.667 -0.1411  0.3053  0.9109
 6426TIP3    H143473   4.618   4.349   7.670 -2.1596 -1.5629 -1.6772
 6426TIP3    H243474   4.601   4.485   7.606 -0.0827 -0.2751  0.3595
 6427TIP3   OH243475   2.497   6.558   6.294  0.0279  0.8089  0.0084
 6427TIP3    H143476   2.547   6.492   6.342 -0.1999  0.3331 -0.4077
 6427TIP3    H243477   2.428   6.509   6.250  0.7147  1.1297 -1.4751
 6428TIP3   OH243478   5.178   0.982   7.407 -0.0962 -0.0107  0.4075
 6428TIP3    H143479   5.092   0.970   7.447 -0.2162 -1.3461 -0.1780
 6428TIP3    H243480   5.191   1.077   7.404 -0.6207  0.1659  2.4093
 6429TIP3   OH243481   0.421   0.539   6.407  0.2220  0.1466  0.3818
 6429TIP3    H143482   0.503   0.534   6.358  1.3018  0.2149  2.0842
 6429TIP3    H243483   0.396   0.447   6.421  0.4512  0.1062  0.5417
 6430TIP3   OH243484   4.764   6.103   8.129 -0.6409  0.1833 -0.3541
 6430TIP3    H143485   4.680   6.151   8.126  0.2239  1.7899 -0.0999
 6430TIP3    H243486   4.809   6.130   8.049 -0.4015 -0.7796 -0.5509
 6431TIP3   OH243487   6.006   6.048   8.569  0.6464  0.5126  0.2286
 6431TIP3    H143488   5.953   6.119   8.536  0.9420  0.2728 -0.8005
 6431TIP3    H243489   5.943   5.983   8.600  0.3349  0.4039 -0.6047
 6432TIP3   OH243490   4.682   2.605   7.787 -0.4521  0.2608  0.0766
 6432TIP3    H143491   4.758   2.662   7.795 -1.8042  1.9006  2.4943
 6432TIP3    H243492   4.717   2.517   7.801  1.2728  0.7041 -1.0384
 6433TIP3   OH243493   2.797   3.150   5.956 -0.1974 -0.1373  0.5799
 6433TIP3    H143494   2.757   3.164   6.042  1.1980 -0.7101  1.3474
 6433TIP3    H243495   2.811   3.238   5.921 -0.1736  0.1247  1.2343
 6434TIP3   OH243496   0.035   5.069   7.697 -0.3001 -0.3533  0.3745
 6434TIP3    H143497  -0.034   5.111   7.645  0.7748 -0.7997 -1.5130
 6434TIP3    H243498  -0.013   5.013   7.758 -1.6483 -1.1673 -1.3150
 6435TIP3   OH243499   5.295   0.228   7.665 -0.0416 -0.1202  0.6322
 6435TIP3    H143500   5.288   0.323   7.661  0.9793 -0.0435  0.1427
 6435TIP3    H243501   5.384   0.212   7.697  0.2218 -0.8955 -0.4112
 6436TIP3   OH243502   3.130   6.148   8.313 -0.0818 -0.3562  0.5963
 6436TIP3    H143503   3.056   6.149   8.373  0.3583 -0.7684  1.1572
 6436TIP3    H243504   3.130   6.235   8.273  0.2478  0.3137  1.9928
 6437TIP3   OH243505   5.283   0.820   8.349  0.9170 -0.2682 -0.9534
 6437TIP3    H143506   5.378   0.831   8.347  0.8392  1.4863  1.2148
 6437TIP3    H243507   5.248   0.903   8.319  0.1076 -0.0988  0.3846
 6438TIP3   OH243508   6.739   5.204   6.026 -0.0094  0.3606 -0.6890
 6438TIP3    H143509   6.671   5.140   6.046 -0.9786  2.3188  3.1446
 6438TIP3    H243510   6.819   5.152   6.017 -0.7124 -1.5363  2.4690
 6439TIP3   OH243511   1.478   4.716   5.981  0.0525 -0.6741 -0.3615
 6439TIP3    H143512   1.488   4.798   6.030  1.0441 -1.9428  1.6959
 6439TIP3    H243513   1.408   4.734   5.919 -0.0350  1.6000  0.2993
 6440TIP3   OH243514   0.108   2.682   6.748  0.0083 -0.1020  0.0114
 6440TIP3    H143515   0.055   2.710   6.673  1.4934  0.9079 -0.7001
 6440TIP3    H243516   0.154   2.604   6.717 -0.0617 -0.2065  0.1722
 6441TIP3   OH243517   0.168   2.646   6.379  0.4720 -0.5927 -0.0408
 6441TIP3    H143518   0.185   2.736   6.408  0.2377 -1.2862  2.5035
 6441TIP3    H243519   0.097   2.654   6.316  0.8098  1.0419 -0.2602
 6442TIP3   OH243520   0.007   3.366   6.490 -0.0703  0.5681  0.1244
 6442TIP3    H143521  -0.072   3.320   6.462  0.5216  0.3316 -1.2051
 6442TIP3    H243522  -0.009   3.457   6.467  0.6040  0.3056 -1.4969
 6443TIP3   OH243523   6.498   3.541   7.086  0.2332  0.3242  0.0132
 6443TIP3    H143524   6.484   3.549   6.991 -1.6626  0.4493  0.2578
 6443TIP3    H243525   6.525   3.629   7.114 -1.4558  0.9197 -0.1124
 6444TIP3   OH243526   0.549   6.244   5.608  0.4388  0.2370  0.2824
 6444TIP3    H143527   0.605   6.206   5.675  2.0437 -0.4748 -1.3769
 6444TIP3    H243528   0.587   6.216   5.525  0.0179  3.0765 -1.0122
 6445TIP3   OH243529   3.389   3.283   5.833  0.3647  0.0838 -0.4488
 6445TIP3    H143530   3.366   3.329   5.914 -1.8497 -0.7229 -0.5677
 6445TIP3    H243531   3.354   3.338   5.763  0.1642 -0.4002 -0.7331
 6446TIP3   OH243532   5.508   2.515   7.722 -0.4107  0.1188  0.1860
 6446TIP3    H143533   5.572   2.466   7.670  0.7509 -0.2828  1.9256
 6446TIP3    H243534   5.429   2.461   7.720  0.0231 -0.5183 -0.0814
 6447TIP3   OH243535   5.508   6.411   5.869  0.0369 -0.4327 -0.1464
 6447TIP3    H143536   5.466   6.473   5.928  2.8637  0.7867  0.7760
 6447TIP3    H243537   5.516   6.330   5.920  1.6112  0.3286  0.9028
 6448TIP3   OH243538   0.902   5.981   8.497 -0.4394 -0.3151  0.3189
 6448TIP3    H143539   0.960   5.969   8.572 -0.6520 -0.4566  0.4612
 6448TIP3    H243540   0.873   5.892   8.475 -0.3352 -0.2804  0.0360
 6449TIP3   OH243541   2.282   4.246   5.436  0.1101 -0.3134  0.3748
 6449TIP3    H143542   2.302   4.274   5.347  1.4665 -2.2246  0.0423
 6449TIP3    H243543   2.241   4.160   5.427 -0.7397 -0.0708  1.5564
 6450TIP3   OH243544   4.566   1.047   6.431 -0.3901 -0.0160  0.5069
 6450TIP3    H143545   4.542   1.138   6.450  0.2802  0.1336  0.6743
 6450TIP3    H243546   4.508   0.995   6.487 -1.6574  0.2487 -0.5230
 6451TIP3   OH243547   0.315   0.232   8.426 -0.4631 -0.1925 -0.0502
 6451TIP3    H143548   0.333   0.163   8.490  1.4332  0.9419  0.7383
 6451TIP3    H243549   0.339   0.193   8.342 -0.1159 -0.7370  0.2929
 6452TIP3   OH243550   2.253   6.738   7.177  0.2041 -0.5920  0.1518
 6452TIP3    H143551   2.166   6.709   7.150 -1.2307  2.3255  1.1849
 6452TIP3    H243552   2.273   6.687   7.255 -1.1307 -0.5241  0.5615
 6453TIP3   OH243553   4.074   1.481   8.510  0.3364 -0.5243  0.5853
 6453TIP3    H143554   4.012   1.553   8.505  1.2649  0.2771  0.2913
 6453TIP3    H243555   4.055   1.439   8.594 -0.6653 -0.3710  0.4477
 6454TIP3   OH243556   6.665   3.002   6.048 -0.4144  0.3935  0.7788
 6454TIP3    H143557   6.650   3.036   6.137  0.8701  0.4492  0.9901
 6454TIP3    H243558   6.728   2.931   6.060  1.9348  2.1699 -0.3467
 6455TIP3   OH243559   2.668   1.578   7.696 -0.2106  0.0373 -0.0736
 6455TIP3    H143560   2.740   1.584   7.759 -1.8080  0.5736  1.7762
 6455TIP3    H243561   2.680   1.492   7.654 -0.0893 -1.1480  2.2361
 6456TIP3   OH243562   2.576   4.408   8.427 -0.2857 -0.0117 -0.2414
 6456TIP3    H143563   2.611   4.393   8.340 -0.8866 -0.7060 -0.3731
 6456TIP3    H243564   2.494   4.455   8.412 -0.6395 -0.5744 -0.0827
 6457TIP3   OH243565   2.706   3.739   9.353 -0.1244  0.5467 -0.4328
 6457TIP3    H143566   2.616   3.753   9.384 -0.3137 -0.4417 -0.4995
 6457TIP3    H243567   2.725   3.647   9.375  1.0483  0.8856  0.0201
 6458TIP3   OH243568   0.431   0.687   6.814 -0.0034  0.5819 -0.1023
 6458TIP3    H143569   0.415   0.782   6.816  1.2853  0.8613 -1.5517
 6458TIP3    H243570   0.344   0.649   6.827 -1.0208  1.9870 -2.2485
 6459TIP3   OH243571   0.220   4.200   6.619 -0.0295 -0.5702  0.4226
 6459TIP3    H143572   0.312   4.176   6.629  0.5818  0.9947 -0.9620
 6459TIP3    H243573   0.221   4.275   6.560 -2.0693  0.6434  1.8145
 6460TIP3   OH243574   0.693   5.939   7.050 -0.5162  0.1058 -0.5508
 6460TIP3    H143575   0.733   5.930   7.136  0.9167  1.3070 -1.0498
 6460TIP3    H243576   0.607   5.898   7.059  0.0862 -0.8880  1.0905
 6461TIP3   OH243577   4.093   0.154   6.637 -0.3541  0.4353 -0.2528
 6461TIP3    H143578   4.023   0.088   6.635  1.0482 -1.1733  1.1445
 6461TIP3    H243579   4.053   0.228   6.683 -1.7020  0.3026 -1.1308
 6462TIP3   OH243580   6.376   3.188   6.115 -0.0332  0.0984 -0.9175
 6462TIP3    H143581   6.411   3.109   6.074  0.1248  0.0377 -0.6701
 6462TIP3    H243582   6.347   3.243   6.042  0.9295  0.3167 -1.1548
 6463TIP3   OH243583   0.756   0.518   6.433  0.4573 -0.1927  0.2402
 6463TIP3    H143584   0.846   0.485   6.444 -0.4505 -2.7326  0.8350
 6463TIP3    H243585   0.755   0.556   6.345  2.0270 -0.4386  0.0854
 6464TIP3   OH243586   1.160   4.497   5.660  0.7609 -0.0284  0.1225
 6464TIP3    H143587   1.157   4.576   5.714 -0.1331  0.7987 -1.0812
 6464TIP3    H243588   1.099   4.436   5.702 -0.0288  0.6561 -0.0162
 6465TIP3   OH243589   6.229   6.181   6.774 -0.2877 -0.3224 -0.1157
 6465TIP3    H143590   6.182   6.262   6.753 -0.1870 -0.8041 -2.4918
 6465TIP3    H243591   6.186   6.114   6.720 -0.2375 -1.8571  1.6350
 6466TIP3   OH243592   4.209   2.040   6.158  0.1611 -0.4577 -0.2005
 6466TIP3    H143593   4.290   2.035   6.108 -0.4335 -0.0390 -1.2394
 6466TIP3    H243594   4.212   1.964   6.217  1.9641  0.3444  0.8296
 6467TIP3   OH243595   0.365   0.434   6.008  0.7950  0.0030 -0.0808
 6467TIP3    H143596   0.413   0.394   5.935  0.3985  1.6332 -1.3110
 6467TIP3    H243597   0.287   0.472   5.967  0.4126  0.7034  1.2389
 6468TIP3   OH243598   6.577   0.394   7.758  0.5792  0.1823 -0.1002
 6468TIP3    H143599   6.668   0.417   7.774  0.6299 -0.9065  1.3862
 6468TIP3    H243600   6.576   0.298   7.757 -0.5949  0.1716  0.2236
 6469TIP3   OH243601   2.925   1.479   7.279 -0.4823 -0.3028 -0.0341
 6469TIP3    H143602   2.851   1.519   7.233  1.3145  1.9665 -1.1802
 6469TIP3    H243603   3.000   1.499   7.224  1.2392 -1.0856  1.9060
 6470TIP3   OH243604   4.586   4.984   8.372 -0.1663  0.2021  0.2455
 6470TIP3    H143605   4.659   4.940   8.414 -1.3979 -0.5274  1.7318
 6470TIP3    H243606   4.612   5.075   8.366  1.2822 -0.2271 -0.2436
 6471TIP3   OH243607   3.979   6.062   6.059  0.0519  0.4199  0.4356
 6471TIP3    H143608   3.971   5.968   6.043  1.5774  0.3422 -0.0949
 6471TIP3    H243609   3.955   6.102   5.976  1.4988  0.3547 -0.0514
 6472TIP3   OH243610   5.390   2.566   7.424 -0.0469  0.0353 -0.2932
 6472TIP3    H143611   5.333   2.560   7.501 -0.0758  2.5163 -0.0196
 6472TIP3    H243612   5.330   2.562   7.350 -0.1977 -0.7459 -0.1328
 6473TIP3   OH243613   2.771   2.850   6.894  0.1345 -0.2285 -0.2279
 6473TIP3    H143614   2.733   2.767   6.867  3.4683 -1.0306 -3.2204
 6473TIP3    H243615   2.861   2.827   6.919  1.4922  2.5363 -2.1646
 6474TIP3   OH243616   4.296   1.954   6.817  0.5120 -0.3124  0.3573
 6474TIP3    H143617   4.348   1.924   6.892  0.2399 -1.4598  0.1021
 6474TIP3    H243618   4.308   2.049   6.816  0.7425 -0.3108  1.6859
 6475TIP3   OH243619   1.690   0.748   7.501  0.1464  0.1301 -0.4884
 6475TIP3    H143620   1.775   0.774   7.536  1.2155 -1.3177 -1.8716
 6475TIP3    H243621   1.637   0.729   7.579  0.2758  3.2174  0.4654
 6476TIP3   OH243622   1.260   4.957   8.220 -0.3496 -0.1747 -0.1451
 6476TIP3    H143623   1.308   5.006   8.287 -1.2228 -1.2221  1.3148
 6476TIP3    H243624   1.312   4.878   8.206 -0.1497  0.0603 -0.7414
 6477TIP3   OH243625   6.739   4.049   7.165  0.4948 -0.7022 -0.0323
 6477TIP3    H143626   6.681   4.121   7.186 -2.1378 -2.7219  0.1297
 6477TIP3    H243627   6.807   4.052   7.233 -1.5556 -0.4591  2.1228
 6478TIP3   OH243628   5.170   4.847   7.002  0.0221  0.1947  0.0532
 6478TIP3    H143629   5.219   4.924   6.974 -1.8632  1.3645 -0.2297
 6478TIP3    H243630   5.114   4.826   6.927 -1.9243  0.6622  1.3002
 6479TIP3   OH243631   4.944   3.404   7.538 -0.0454  0.8712 -0.2296
 6479TIP3    H143632   4.902   3.480   7.497 -1.6148 -0.4255 -1.1326
 6479TIP3    H243633   5.024   3.390   7.487 -0.7713  0.7260 -1.3557
 6480TIP3   OH243634   4.350   2.232   5.656 -0.0413 -0.2772  0.1371
 6480TIP3    H143635   4.435   2.276   5.659  0.3433 -0.7771 -1.8523
 6480TIP3    H243636   4.324   2.223   5.748  1.1605  1.5630  0.7101
 6481TIP3   OH243637   2.712   2.838   7.170  0.7327  1.0572 -0.1437
 6481TIP3    H143638   2.778   2.768   7.177 -0.8782 -0.4163  0.9602
 6481TIP3    H243639   2.712   2.860   7.076  1.5835 -0.1037 -0.4525
 6482TIP3   OH243640   2.965   0.967   8.332 -0.3696  0.2586  0.7590
 6482TIP3    H143641   2.882   1.015   8.332 -0.7959 -0.2245  4.2764
 6482TIP3    H243642   3.031   1.035   8.321 -1.1114  0.6359 -2.2938
 6483TIP3   OH243643   0.362   1.829   6.790  0.2583 -0.0492 -0.3758
 6483TIP3    H143644   0.451   1.849   6.762  1.6382  0.1755  3.6511
 6483TIP3    H243645   0.359   1.734   6.795 -0.1106 -0.1097 -1.4378
 6484TIP3   OH243646   0.076   2.484   7.030 -0.1123  0.4437 -0.1922
 6484TIP3    H143647   0.091   2.574   7.060 -1.1133  1.2517 -1.9245
 6484TIP3    H243648   0.158   2.461   6.985 -0.6069  1.4030 -1.7048
 6485TIP3   OH243649   0.596   6.681   7.703 -0.2421 -0.5573  0.1350
 6485TIP3    H143650   0.521   6.705   7.757  0.4407 -2.7131  2.2380
 6485TIP3    H243651   0.672   6.714   7.752  0.3044 -0.1074 -0.9766
 6486TIP3   OH243652   2.660   1.480   8.677  0.3382  0.5460  0.0714
 6486TIP3    H143653   2.732   1.520   8.726 -0.0349  0.4066  0.7457
 6486TIP3    H243654   2.697   1.397   8.644  0.9977  1.2478 -1.0284
 6487TIP3   OH243655   5.045   3.900   8.129  0.3998  0.1676 -0.2910
 6487TIP3    H143656   5.115   3.873   8.189 -0.7589  1.1884  1.6220
 6487TIP3    H243657   4.973   3.841   8.149  0.3911 -0.3007 -1.6213
 6488TIP3   OH243658   4.800   6.304   7.190 -0.8066  0.0896  0.2488
 6488TIP3    H143659   4.802   6.209   7.200 -0.7518  0.2041  1.3855
 6488TIP3    H243660   4.733   6.320   7.123 -0.0471 -0.7971 -0.7638
 6489TIP3   OH243661   4.909   5.737   8.358 -0.1092 -0.1008 -0.2626
 6489TIP3    H143662   4.835   5.794   8.378 -1.7358 -1.8199 -1.0586
 6489TIP3    H243663   4.874   5.673   8.295  1.8912 -1.3322 -0.2160
 6490TIP3   OH243664   1.237   2.970   5.929 -0.1532 -0.1347 -0.4393
 6490TIP3    H143665   1.176   3.038   5.900 -0.4870  0.4159  1.4304
 6490TIP3    H243666   1.321   3.015   5.937  0.0129 -0.3650 -0.8334
 6491TIP3   OH243667   6.384   4.526   8.998  0.0331 -0.2159  0.7672
 6491TIP3    H143668   6.422   4.613   9.001  0.3505 -0.3086 -0.0826
 6491TIP3    H243669   6.351   4.510   9.086  0.5703  0.4940  1.1028
 6492TIP3   OH243670   2.037   6.179   6.609  0.3616 -0.2923 -0.0705
 6492TIP3    H143671   1.993   6.108   6.656  2.0787 -1.0228  0.5279
 6492TIP3    H243672   2.098   6.216   6.673 -0.1494  1.4331 -0.5255
 6493TIP3   OH243673   1.979   1.563   6.452  0.5347 -0.9127  0.1165
 6493TIP3    H143674   1.895   1.597   6.482  0.6505 -0.3333 -0.1960
 6493TIP3    H243675   1.994   1.485   6.505  1.3831  0.8135  2.6416
 6494TIP3   OH243676   0.827   5.681   8.205  0.0299 -0.3380 -0.8165
 6494TIP3    H143677   0.867   5.741   8.142  0.6715 -0.1896 -0.2864
 6494TIP3    H243678   0.873   5.700   8.287  0.8520 -2.1390 -0.8147
 6495TIP3   OH243679   2.785   0.397   7.188 -0.0378  0.4973  0.3553
 6495TIP3    H143680   2.789   0.319   7.244  0.0835  0.9316  0.9515
 6495TIP3    H243681   2.711   0.380   7.129 -1.4635  0.8972  1.9509
 6496TIP3   OH243682   3.695   1.870   8.149  0.1094 -0.1678 -0.5253
 6496TIP3    H143683   3.763   1.805   8.134  0.0038 -0.8780  1.7958
 6496TIP3    H243684   3.742   1.948   8.177  0.0155 -0.5269  0.6631
 6497TIP3   OH243685   1.309   0.754   7.235 -0.7078 -0.1961  0.3258
 6497TIP3    H143686   1.283   0.774   7.145  0.0459 -1.1182 -0.1122
 6497TIP3    H243687   1.404   0.743   7.230 -0.9661 -3.4146  0.5885
 6498TIP3   OH243688   6.290   1.453   6.164  0.2347 -0.3065 -0.3592
 6498TIP3    H143689   6.247   1.368   6.174 -1.4311  0.3979 -1.1215
 6498TIP3    H243690   6.231   1.503   6.108  0.8828  1.5611  0.5460
 6499TIP3   OH243691   3.961   5.875   9.238  0.3762  0.0792  0.0691
 6499TIP3    H143692   4.021   5.852   9.167  0.6684 -0.6449  0.5463
 6499TIP3    H243693   3.899   5.803   9.242  1.1081 -0.5238  1.3627
 6500TIP3   OH243694   3.117   4.344   6.693  0.1813 -0.0881 -0.0831
 6500TIP3    H143695   3.036   4.347   6.744  0.6375  1.7059  0.6490
 6500TIP3    H243696   3.134   4.436   6.671  2.3156 -0.3291  0.3184
 6501TIP3   OH243697   5.611   5.523   6.862 -0.0822 -0.1360 -0.7568
 6501TIP3    H143698   5.680   5.581   6.830 -0.6508  0.2931 -1.2369
 6501TIP3    H243699   5.544   5.525   6.793 -1.0632  0.3365  0.1727
 6502TIP3   OH243700   4.363   0.710   6.314 -0.1679 -0.0526  0.7707
 6502TIP3    H143701   4.404   0.624   6.303 -0.5880 -0.2924  1.0758
 6502TIP3    H243702   4.298   0.714   6.244  0.5827  0.4613  0.0811
 6503TIP3   OH243703   5.030   1.024   6.016  0.1733 -0.0746 -0.2117
 6503TIP3    H143704   5.067   1.015   6.104  0.6675  0.8590 -0.3112
 6503TIP3    H243705   4.994   1.113   6.015 -0.5655 -0.3673 -0.6905
 6504TIP3   OH243706   0.223   0.709   6.473  0.2492  0.0029  0.5170
 6504TIP3    H143707   0.212   0.751   6.388 -0.0373  0.2991  0.6951
 6504TIP3    H243708   0.276   0.631   6.455  0.0806 -0.0086  0.0479
 6505TIP3   OH243709   3.918   2.337   7.776 -0.5999 -0.1254  0.1999
 6505TIP3    H143710   3.972   2.306   7.704  1.6820  0.7432  1.4434
 6505TIP3    H243711   3.963   2.305   7.855 -2.5726 -0.3666  1.3023
 6506TIP3   OH243712   2.229   2.150   7.012 -0.0143 -0.2147 -0.5784
 6506TIP3    H143713   2.319   2.171   7.034 -0.3001  0.6950 -0.2384
 6506TIP3    H243714   2.214   2.192   6.928 -0.3790  0.3859 -0.2207
 6507TIP3   OH243715   2.423   3.481   8.609 -0.0675 -0.4501 -0.0954
 6507TIP3    H143716   2.396   3.393   8.584  0.3225 -0.3822 -0.7888
 6507TIP3    H243717   2.464   3.470   8.695  0.1629 -0.9845 -0.2647
 6508TIP3   OH243718   1.192   2.373   8.077  0.3776  0.4357 -0.1424
 6508TIP3    H143719   1.168   2.351   8.167  1.2041  0.3245  0.0620
 6508TIP3    H243720   1.163   2.464   8.066  1.0845  0.7631  0.5508
 6509TIP3   OH243721   0.140   5.974   8.885 -0.2493 -0.1725  0.1641
 6509TIP3    H143722   0.157   5.884   8.912 -1.1928 -0.1216  1.0131
 6509TIP3    H243723   0.192   6.027   8.945 -0.3544 -0.1363  0.2251
 6510TIP3   OH243724   6.370   2.753   6.601 -0.1520 -0.2497 -0.2514
 6510TIP3    H143725   6.425   2.710   6.536  0.2330  1.2364 -0.9459
 6510TIP3    H243726   6.352   2.685   6.666  2.2894 -0.8807 -0.1331
 6511TIP3   OH243727   3.568   6.086   5.889 -0.5809 -0.2226  0.1621
 6511TIP3    H143728   3.600   6.077   5.979  0.4991  1.4033 -0.0085
 6511TIP3    H243729   3.647   6.097   5.836 -1.2762  1.5799 -0.5988
 6512TIP3   OH243730   5.261   6.232   6.417 -0.6538  0.3109 -0.0523
 6512TIP3    H143731   5.269   6.309   6.472 -1.4490  0.5012 -0.1876
 6512TIP3    H243732   5.328   6.172   6.449  0.5167  1.3622 -0.4729
 6513TIP3   OH243733   2.632   0.595   8.477  0.0423  0.5927 -0.0096
 6513TIP3    H143734   2.592   0.666   8.528 -2.1158 -0.5475 -0.0143
 6513TIP3    H243735   2.618   0.517   8.530  1.3865 -0.0414 -0.5353
 6514TIP3   OH243736   1.934   3.348   9.149  0.4005 -0.4117 -0.3154
 6514TIP3    H143737   1.935   3.442   9.168 -1.9152  0.1265 -2.3356
 6514TIP3    H243738   1.869   3.312   9.210  0.2895 -0.4426 -0.4504
 6515TIP3   OH243739   3.754   6.639   8.365  0.7076 -0.4608 -0.6303
 6515TIP3    H143740   3.766   6.623   8.271 -0.7186 -0.5645 -0.8195
 6515TIP3    H243741   3.766   6.733   8.375 -2.0087  0.0811 -1.4686
 6516TIP3   OH243742   0.668   1.056   6.842  0.0899 -0.4535  0.3438
 6516TIP3    H143743   0.616   1.096   6.912 -0.1419 -1.8645  1.0252
 6516TIP3    H243744   0.758   1.058   6.874  0.1294 -0.1332  0.2108
 6517TIP3   OH243745   6.381   6.448   7.989  0.3291  0.2089 -0.2322
 6517TIP3    H143746   6.287   6.458   7.975 -0.1222 -0.7813  1.7105
 6517TIP3    H243747   6.409   6.389   7.919 -0.5226  0.4260 -0.7722
 6518TIP3   OH243748   6.317   5.260   5.979  0.8931 -0.6215 -0.5560
 6518TIP3    H143749   6.398   5.307   6.001  0.9565 -1.0723  0.2293
 6518TIP3    H243750   6.301   5.203   6.055 -1.2132  0.8549  0.2002
 6519TIP3   OH243751   5.996   6.310   7.725  0.6915 -0.3110  0.1866
 6519TIP3    H143752   6.072   6.258   7.750  1.0391  0.4603  0.7718
 6519TIP3    H243753   5.924   6.247   7.719  1.4060 -1.0736 -0.5583
 6520TIP3   OH243754   3.348   6.215   8.636 -0.6500 -0.2998 -0.0598
 6520TIP3    H143755   3.265   6.187   8.598 -0.7963  2.0696 -1.6646
 6520TIP3    H243756   3.345   6.183   8.726 -2.3541 -2.0725 -0.6875
 6521TIP3   OH243757   1.773   0.786   6.998 -0.7377 -0.4536 -0.0070
 6521TIP3    H143758   1.774   0.821   6.909 -0.8529 -1.2424 -0.3230
 6521TIP3    H243759   1.686   0.748   7.008 -2.2567  3.0188  1.8251
 6522TIP3   OH243760   2.074   6.462   7.623  0.6621  0.1277  0.2464
 6522TIP3    H143761   1.993   6.412   7.627 -0.7166  2.0948 -1.1825
 6522TIP3    H243762   2.057   6.542   7.673  2.7643 -0.6630  2.3965
 6523TIP3   OH243763   2.940   4.103   5.509  0.2691  0.2560  0.1505
 6523TIP3    H143764   3.001   4.117   5.581  1.6122  0.3866 -0.9767
 6523TIP3    H243765   2.957   4.173   5.447 -1.5839  0.7556  0.1291
 6524TIP3   OH243766   5.611   2.245   6.179 -0.8682 -0.7340  0.2808
 6524TIP3    H143767   5.529   2.248   6.130 -1.0853 -1.1055  0.6096
 6524TIP3    H243768   5.627   2.335   6.205 -2.9843 -1.0258  3.1351
 6525TIP3   OH243769   4.156   2.224   8.370  0.3438  0.0329 -0.1980
 6525TIP3    H143770   4.098   2.294   8.400  0.0575 -0.9752  1.7620
 6525TIP3    H243771   4.180   2.177   8.449  1.3882 -1.4571 -1.3356
 6526TIP3   OH243772   1.810   2.234   6.650 -0.0019  0.5200  0.0553
 6526TIP3    H143773   1.812   2.326   6.675 -0.0388  1.4253 -2.9344
 6526TIP3    H243774   1.717   2.209   6.656 -0.2154  1.1383 -0.5520
 6527TIP3   OH243775   5.657   1.295   6.581  0.2821  0.3124 -0.3988
 6527TIP3    H143776   5.674   1.221   6.522 -0.0598  0.2498 -0.4229
 6527TIP3    H243777   5.565   1.318   6.564  0.2818  0.5124 -0.1333
 6528TIP3   OH243778   0.739   3.469   7.569 -0.7813 -0.2430  0.3002
 6528TIP3    H143779   0.827   3.504   7.584 -0.5077 -0.5570 -0.5364
 6528TIP3    H243780   0.713   3.433   7.654  0.8128 -2.2043  0.0101
 6529TIP3   OH243781   1.885   4.230   6.561 -0.5459 -0.2707  0.3710
 6529TIP3    H143782   1.903   4.225   6.467  0.3067  0.6413  0.4710
 6529TIP3    H243783   1.800   4.188   6.571 -2.3571  2.6664 -1.3076
 6530TIP3   OH243784   1.419   2.370   6.503  0.2266  0.0950  0.0413
 6530TIP3    H143785   1.420   2.341   6.412  1.1313 -0.0994  0.1046
 6530TIP3    H243786   1.334   2.341   6.536 -0.9162  1.7609 -1.2227
 6531TIP3   OH243787   2.639   6.335   6.242 -0.3917 -0.0370 -0.8465
 6531TIP3    H143788   2.621   6.359   6.152  1.7551 -0.4695 -1.4329
 6531TIP3    H243789   2.651   6.240   6.240 -3.5174 -0.6151  0.5242
 6532TIP3   OH243790   3.286   3.812   6.967  0.7849 -0.1637 -0.4191
 6532TIP3    H143791   3.241   3.762   6.898  0.3845 -0.1927 -0.1377
 6532TIP3    H243792   3.263   3.766   7.048  0.0468  0.7316 -0.1055
 6533TIP3   OH243793   3.851   6.641   7.215  0.6654 -0.3444 -0.2168
 6533TIP3    H143794   3.946   6.630   7.211  1.2270  2.1730  2.5096
 6533TIP3    H243795   3.827   6.680   7.131  2.3919  0.7990 -0.2152
 6534TIP3   OH243796   3.328   5.254   5.716 -0.2819 -0.2362 -0.1788
 6534TIP3    H143797   3.268   5.199   5.765 -0.1392 -1.7953 -1.6380
 6534TIP3    H243798   3.353   5.324   5.777  0.3445 -2.3548  2.1476
 6535TIP3   OH243799   1.506   3.213   8.524 -0.1862  0.0928  0.7777
 6535TIP3    H143800   1.423   3.259   8.538 -0.3829  0.2791 -0.7982
 6535TIP3    H243801   1.536   3.244   8.438  0.5653 -1.3685  0.4825
 6536TIP3   OH243802   4.579   1.193   5.712 -0.0501 -0.5845 -0.3220
 6536TIP3    H143803   4.495   1.216   5.753  0.4583  0.0273  0.4000
 6536TIP3    H243804   4.640   1.184   5.786  0.7144 -0.2158 -0.8990
 6537TIP3   OH243805   0.079   2.648   7.784  0.0587 -0.1572  0.0800
 6537TIP3    H143806   0.135   2.709   7.735 -2.2213  1.0267 -1.1855
 6537TIP3    H243807   0.118   2.562   7.768  0.8788  0.4813 -1.6793
 6538TIP3   OH243808   1.666   0.508   7.221  0.2339 -0.2784  0.0636
 6538TIP3    H143809   1.712   0.510   7.137  2.3497 -1.5698  1.0913
 6538TIP3    H243810   1.613   0.428   7.218  0.0575 -0.1540 -0.1487
 6539TIP3   OH243811   6.077   4.981   7.183  0.3586  0.0825  0.2826
 6539TIP3    H143812   5.991   4.960   7.147 -1.1778  3.4289  1.6178
 6539TIP3    H243813   6.106   5.057   7.134  1.8199  0.0227  0.9854
 6540TIP3   OH243814   2.696   3.575   7.607  0.1349 -0.1992  0.2073
 6540TIP3    H143815   2.726   3.498   7.559  1.3738  0.0715  0.5113
 6540TIP3    H243816   2.749   3.575   7.687  0.1906  0.9881  0.1789
 6541TIP3   OH243817   6.369   0.455   7.115 -0.2757 -0.4746  0.1541
 6541TIP3    H143818   6.346   0.399   7.189  3.1909 -0.9113  1.1098
 6541TIP3    H243819   6.430   0.402   7.063  0.9618  1.3917 -0.4264
 6542TIP3   OH243820   1.991   6.081   6.099  0.3646  0.2382 -0.2924
 6542TIP3    H143821   2.046   6.128   6.036  0.9468  1.9269  1.3635
 6542TIP3    H243822   2.041   6.084   6.181 -1.1335 -0.3478  0.6874
 6543TIP3   OH243823   1.366   4.735   8.521  0.0325  1.0003 -0.0754
 6543TIP3    H143824   1.281   4.705   8.489  0.1779  0.7489 -0.2281
 6543TIP3    H243825   1.345   4.794   8.594 -0.2456  0.3105  0.4155
 6544TIP3   OH243826   1.768   4.629   8.561  0.5132 -0.3087  0.7392
 6544TIP3    H143827   1.747   4.538   8.583 -1.3815 -0.0397  0.2057
 6544TIP3    H243828   1.781   4.671   8.646 -2.8850 -0.1570  1.3352
 6545TIP3   OH243829   2.888   0.763   5.735 -0.0185 -0.3863  0.8402
 6545TIP3    H143830   2.846   0.822   5.673 -0.7582 -1.2720  0.4804
 6545TIP3    H243831   2.905   0.818   5.812  0.2902  0.5492  0.1257
 6546TIP3   OH243832   5.513   1.129   7.263 -0.0079  0.0197 -0.7987
 6546TIP3    H143833   5.485   1.053   7.212  0.4724  0.2542 -1.4168
 6546TIP3    H243834   5.477   1.204   7.216 -1.9073  0.1333  0.7037
 6547TIP3   OH243835   4.618   3.415   6.928  0.3481  0.0608 -0.5274
 6547TIP3    H143836   4.681   3.437   6.859 -1.0801  2.8485 -1.0824
 6547TIP3    H243837   4.654   3.454   7.007 -0.3590  1.1631 -0.7321
 6548TIP3   OH243838   1.719   0.842   6.733  0.6971 -0.1151 -0.5595
 6548TIP3    H143839   1.806   0.820   6.700  0.5702 -2.5720  0.5760
 6548TIP3    H243840   1.659   0.788   6.682  0.1978 -1.2203  1.1210
 6549TIP3   OH243841   4.449   2.765   6.799 -0.5320 -0.3942  0.0299
 6549TIP3    H143842   4.374   2.796   6.747  0.9030  1.4411 -1.0764
 6549TIP3    H243843   4.469   2.679   6.763 -0.7937  0.0090 -1.1211
 6550TIP3   OH243844   0.972   1.867   8.208  0.2309 -0.2013 -0.0643
 6550TIP3    H143845   1.041   1.914   8.161  0.6150  0.6920  1.3341
 6550TIP3    H243846   0.996   1.774   8.197 -0.5902 -0.1679 -2.9198
 6551TIP3   OH243847   0.119   4.607   6.798  0.4504  0.4729 -0.0018
 6551TIP3    H143848   0.034   4.632   6.761 -0.6751 -0.4426  1.8392
 6551TIP3    H243849   0.109   4.516   6.824  2.1843  0.1897 -0.1610
 6552TIP3   OH243850   3.046   1.285   8.113 -0.3774  0.1587 -0.5289
 6552TIP3    H143851   3.045   1.338   8.193  0.9458 -2.9751  1.7949
 6552TIP3    H243852   3.133   1.301   8.075 -0.6956  1.0355 -0.9057
 6553TIP3   OH243853   4.282   5.547   5.806  0.1726  0.3939  0.2984
 6553TIP3    H143854   4.276   5.518   5.897 -0.7708  0.6961  0.3483
 6553TIP3    H243855   4.210   5.502   5.761 -2.1649  3.4424  0.6333
 6554TIP3   OH243856   4.046   3.228   8.413  0.6275 -0.2174  0.3191
 6554TIP3    H143857   4.012   3.315   8.394 -0.5506 -0.7924 -0.3169
 6554TIP3    H243858   4.015   3.208   8.502  0.0087 -0.3927  0.0694
 6555TIP3   OH243859   0.248   5.598   6.141  0.0023  0.1041  0.1498
 6555TIP3    H143860   0.321   5.638   6.095  0.3179 -0.0575  0.5032
 6555TIP3    H243861   0.284   5.575   6.227 -0.5982  0.4761  0.5035
 6556TIP3   OH243862   1.555   6.394   8.030  0.8403 -0.6699 -0.6246
 6556TIP3    H143863   1.566   6.477   7.983 -0.8697  0.6049  1.0712
 6556TIP3    H243864   1.637   6.383   8.079  1.4768 -0.5324 -1.6291
 6557TIP3   OH243865   0.034   3.767   8.096 -0.1930  0.4121  0.7709
 6557TIP3    H143866  -0.023   3.794   8.024  2.0617  0.2774 -1.2121
 6557TIP3    H243867  -0.009   3.799   8.175 -2.5809  0.9360 -0.6554
 6558TIP3   OH243868   3.111   3.468   8.583  0.6918  0.7333 -0.0684
 6558TIP3    H143869   3.204   3.485   8.599  0.4103  0.8943  1.5986
 6558TIP3    H243870   3.066   3.522   8.648 -0.5787  0.7454 -0.9282
 6559TIP3   OH243871   0.482   1.560   9.562 -0.7543  0.4653 -0.2975
 6559TIP3    H143872   0.538   1.548   9.486 -0.0846  0.3681  0.2063
 6559TIP3    H243873   0.396   1.527   9.533 -0.1991 -0.7962 -0.5968
 6560TIP3   OH243874   0.881   6.387   6.581 -0.3763  0.1108 -0.1605
 6560TIP3    H143875   0.948   6.389   6.649 -2.5007 -0.6218  2.1016
 6560TIP3    H243876   0.877   6.295   6.554  1.8883  0.7072 -2.9321
 6561TIP3   OH243877   6.066   5.952   6.743 -0.4986  0.2178  0.5962
 6561TIP3    H143878   6.050   5.912   6.828  0.2305 -3.4430 -0.7695
 6561TIP3    H243879   5.979   5.964   6.705 -0.7530 -0.4902  0.9381
 6562TIP3   OH243880   3.321   5.624   8.594 -0.1225 -0.4166 -0.0535
 6562TIP3    H143881   3.285   5.555   8.538 -1.3365  0.0179  0.1568
 6562TIP3    H243882   3.375   5.677   8.535 -1.0040 -0.2428 -0.7207
 6563TIP3   OH243883   2.982   5.579   5.759  0.1581 -0.0037 -0.4874
 6563TIP3    H143884   3.028   5.573   5.676  2.8660  0.1167  0.8987
 6563TIP3    H243885   3.016   5.506   5.811 -2.1178 -0.6057  0.2748
 6564TIP3   OH243886   0.634   4.773   7.221 -0.4845 -0.7264 -0.5276
 6564TIP3    H143887   0.610   4.681   7.233  3.1673 -1.9638 -1.5117
 6564TIP3    H243888   0.607   4.793   7.132 -1.6983 -0.6543 -0.1629
 6565TIP3   OH243889   0.359   2.887   7.984 -0.0479  0.2406 -0.1431
 6565TIP3    H143890   0.359   2.980   7.962 -0.8319  0.0454 -1.0524
 6565TIP3    H243891   0.274   2.872   8.026  0.3357  0.0630  0.5698
 6566TIP3   OH243892   3.751   4.064   6.177 -0.1318  0.4265  0.0946
 6566TIP3    H143893   3.708   4.148   6.194 -0.4708  0.0754  1.0197
 6566TIP3    H243894   3.748   4.018   6.261 -1.0864 -1.0197 -0.6775
 6567TIP3   OH243895   2.247   4.848   8.385  0.5374 -0.5807 -0.2262
 6567TIP3    H143896   2.227   4.888   8.300  0.3753  1.3664  0.6700
 6567TIP3    H243897   2.336   4.814   8.376  0.4760 -0.5180 -1.1969
 6568TIP3   OH243898   4.622   2.389   8.207 -0.0788 -0.1138 -0.8268
 6568TIP3    H143899   4.671   2.394   8.290  1.0174 -0.1944 -1.4530
 6568TIP3    H243900   4.543   2.441   8.223  1.2858  2.0066 -0.4932
 6569TIP3   OH243901   4.509   2.403   8.607  0.0873 -0.3268 -0.4630
 6569TIP3    H143902   4.490   2.330   8.666  0.9713  0.9166  1.4716
 6569TIP3    H243903   4.440   2.467   8.626  0.3812  0.0812 -0.7694
 6570TIP3   OH243904   5.674   1.970   7.882  0.1345  0.1442 -0.3906
 6570TIP3    H143905   5.590   1.927   7.866 -0.8454  1.4485  0.9790
 6570TIP3    H243906   5.738   1.916   7.834 -1.2382 -1.7941 -0.1580
 6571TIP3   OH243907   0.431   5.173   8.211  0.2952 -0.7217  0.2825
 6571TIP3    H143908   0.417   5.080   8.191  0.4117 -0.7407  0.2901
 6571TIP3    H243909   0.349   5.200   8.253  0.1115 -0.7203 -0.0699
 6572TIP3   OH243910   1.800   6.618   9.303 -0.0887 -0.1059  0.2580
 6572TIP3    H143911   1.866   6.616   9.372  0.4717  0.1517 -0.2643
 6572TIP3    H243912   1.722   6.581   9.344  0.0705  0.5704  1.1938
 6573TIP3   OH243913   4.206   3.199   6.812 -0.0743  0.7074 -0.2649
 6573TIP3    H143914   4.196   3.272   6.873  0.2734  0.7093 -0.2047
 6573TIP3    H243915   4.170   3.123   6.859 -0.1535  0.7806 -0.2066
 6574TIP3   OH243916   5.267   0.036   7.176 -0.6019  0.4514 -0.4810
 6574TIP3    H143917   5.322   0.112   7.164 -1.7709  1.6096  1.0148
 6574TIP3    H243918   5.251   0.032   7.271  1.2150 -2.9851 -0.1515
 6575TIP3   OH243919   1.761   5.434   8.253  0.0912  0.2736 -0.0980
 6575TIP3    H143920   1.756   5.403   8.162 -0.5670 -2.2099  0.6881
 6575TIP3    H243921   1.828   5.379   8.292 -1.0432 -0.1124  1.3910
 6576TIP3   OH243922   0.037   0.906   8.587  0.2352 -0.1678 -0.6838
 6576TIP3    H143923  -0.023   0.921   8.660 -1.1663 -2.0852 -1.3484
 6576TIP3    H243924   0.119   0.948   8.614 -0.5966  0.2111  1.4515
 6577TIP3   OH243925   6.226   3.755   5.673 -0.2659  0.0776 -0.0043
 6577TIP3    H143926   6.310   3.719   5.702 -0.4376  1.7071  2.7862
 6577TIP3    H243927   6.239   3.850   5.675 -2.2221  0.3640  0.7289
 6578TIP3   OH243928   3.265   1.848   6.908 -0.3040 -0.1061 -0.3460
 6578TIP3    H143929   3.216   1.766   6.897  0.7175 -1.5800  4.1523
 6578TIP3    H243930   3.348   1.821   6.948  1.2185  2.9744 -1.1273
 6579TIP3   OH243931   4.195   4.884   8.532 -0.7569  0.3365  0.8607
 6579TIP3    H143932   4.221   4.975   8.522 -0.1171  0.3853  2.5931
 6579TIP3    H243933   4.273   4.841   8.569 -1.3525 -0.7113  0.9329
 6580TIP3   OH243934   5.227   0.578   8.208  0.6845  1.0613  0.3100
 6580TIP3    H143935   5.251   0.650   8.266  1.7786  1.4630 -0.6164
 6580TIP3    H243936   5.265   0.601   8.123 -0.8497  0.4625 -0.5766
 6581TIP3   OH243937   0.519   6.058   6.196  0.0310 -0.1113  0.2682
 6581TIP3    H143938   0.424   6.068   6.193 -0.0358 -0.5976 -2.6857
 6581TIP3    H243939   0.549   6.126   6.256 -2.0299  2.0326 -0.9494
 6582TIP3   OH243940   0.278   0.334   6.266  0.1910 -0.5443  0.3754
 6582TIP3    H143941   0.293   0.375   6.181 -2.7048 -0.8844 -0.4204
 6582TIP3    H243942   0.327   0.252   6.263  0.2842 -0.4525 -0.8993
 6583TIP3   OH243943   4.879   4.343   6.286 -0.0605 -0.0598 -0.4747
 6583TIP3    H143944   4.809   4.402   6.261 -0.5667 -0.5030 -0.1358
 6583TIP3    H243945   4.882   4.348   6.382  1.9388  1.7324 -0.5555
 6584TIP3   OH243946   1.764   0.766   8.670 -0.3272  0.6658  0.4619
 6584TIP3    H143947   1.767   0.684   8.620  1.4250  0.9102  0.1124
 6584TIP3    H243948   1.675   0.768   8.706 -0.7985 -0.7911 -0.5045
 6585TIP3   OH243949   1.260   6.088   7.136  0.0889 -0.3945 -0.1794
 6585TIP3    H143950   1.329   6.031   7.170 -0.2293  0.1718  1.5223
 6585TIP3    H243951   1.273   6.171   7.181  0.4975  0.9066 -2.5593
 6586TIP3   OH243952   2.537   3.571   6.957 -0.1111 -0.6902  0.0363
 6586TIP3    H143953   2.465   3.559   7.019 -0.8208  0.1368 -0.5907
 6586TIP3    H243954   2.615   3.577   7.012 -0.9996  2.8463  1.2009
 6587TIP3   OH243955   1.582   6.366   6.711  0.1373  0.4449 -0.2035
 6587TIP3    H143956   1.527   6.297   6.748  0.9519  0.4532  1.1033
 6587TIP3    H243957   1.567   6.441   6.767  0.0380  1.0312 -1.0003
 6588TIP3   OH243958   6.665   5.272   7.510  0.5034  0.4277  0.7757
 6588TIP3    H143959   6.620   5.258   7.427 -0.3482  1.5909  1.0047
 6588TIP3    H243960   6.758   5.258   7.490  0.3339  0.8631 -0.4105
 6589TIP3   OH243961   3.997   2.003   7.799 -0.3863 -0.2826 -0.4240
 6589TIP3    H143962   4.052   2.080   7.815 -0.2485 -0.1929 -1.2857
 6589TIP3    H243963   3.968   2.013   7.709 -0.6007 -1.1012 -0.4500
 6590TIP3   OH243964   5.122   0.138   6.236  0.1973 -0.7026  0.6086
 6590TIP3    H143965   5.032   0.110   6.251  0.3822 -0.6584  1.8677
 6590TIP3    H243966   5.175   0.063   6.261  0.5142 -0.8662 -0.4930
 6591TIP3   OH243967   2.205   6.548   8.480  0.2137  0.6331 -0.4337
 6591TIP3    H143968   2.215   6.595   8.563  2.1359 -0.2975 -0.0836
 6591TIP3    H243969   2.181   6.616   8.417 -1.9958  1.2634  0.9399
 6592TIP3   OH243970   3.792   5.549   7.923 -0.2245 -0.0677 -0.3625
 6592TIP3    H143971   3.706   5.512   7.942 -0.8526  1.7228  0.4962
 6592TIP3    H243972   3.833   5.559   8.008  0.7588 -0.6821 -0.7495
 6593TIP3   OH243973   0.183   5.820   5.649  0.0906  0.0655  0.1512
 6593TIP3    H143974   0.220   5.744   5.603 -0.1049 -1.9670  3.0552
 6593TIP3    H243975   0.258   5.858   5.695 -0.5023 -1.3677  2.4889
 6594TIP3   OH243976   5.469   5.359   8.092  0.4362 -0.0100 -0.4229
 6594TIP3    H143977   5.461   5.311   8.174  1.1310 -0.5475 -0.6538
 6594TIP3    H243978   5.458   5.451   8.116 -1.5082 -0.2988 -0.0580
 6595TIP3   OH243979   3.593   0.151   6.644  0.2951 -0.2605  0.0592
 6595TIP3    H143980   3.665   0.182   6.699  1.1939 -1.4955 -0.3677
 6595TIP3    H243981   3.532   0.111   6.706  0.9915 -1.0701  0.2505
 6596TIP3   OH243982   2.980   5.755   7.086  0.0410 -0.2704 -0.3279
 6596TIP3    H143983   3.037   5.691   7.044 -0.6449  0.1378 -1.9673
 6596TIP3    H243984   3.023   5.839   7.068 -0.7641 -0.0095 -1.0834
 6597TIP3   OH243985   6.168   6.662   5.678 -0.1680  0.0324  0.1096
 6597TIP3    H143986   6.080   6.661   5.715 -0.2229  0.3680 -0.0119
 6597TIP3    H243987   6.176   6.747   5.636 -0.2051 -0.4531 -0.9036
 6598TIP3   OH243988   3.756   3.727   7.135  0.1870  0.8288  0.0465
 6598TIP3    H143989   3.700   3.683   7.199 -0.3479  1.2396 -0.1223
 6598TIP3    H243990   3.799   3.657   7.087 -0.6721  0.4761 -0.2380
 6599TIP3   OH243991   6.120   6.623   5.978 -0.6794 -0.7221 -0.3204
 6599TIP3    H143992   6.085   6.574   5.903  0.3325  0.5057 -1.6521
 6599TIP3    H243993   6.046   6.676   6.008 -0.6129  0.2070 -1.7032
 6600TIP3   OH243994   1.292   0.044   9.364  0.2391  0.5371 -0.4441
 6600TIP3    H143995   1.283   0.040   9.269  0.9768 -0.3375 -0.4979
 6600TIP3    H243996   1.347   0.120   9.380  1.5333 -0.2690 -0.8622
 6601TIP3   OH243997   6.621   6.469   6.470  0.1307  1.0280 -0.0563
 6601TIP3    H143998   6.527   6.452   6.460  0.1301  1.5216 -1.0657
 6601TIP3    H243999   6.656   6.389   6.508 -0.7360  0.9190  0.5343
 6602TIP3   OH244000   1.410   2.896   6.267 -0.1211  1.1290 -0.3078
 6602TIP3    H144001   1.346   2.828   6.249  0.2443  0.8521 -0.5729
 6602TIP3    H244002   1.489   2.868   6.221 -0.0560  1.8791 -0.6761
 6603TIP3   OH244003   2.069   0.260   6.538  0.1652  0.0840 -0.4986
 6603TIP3    H144004   2.162   0.253   6.518  0.0842 -1.8462 -0.3316
 6603TIP3    H244005   2.025   0.228   6.459 -0.2799 -1.6398  0.4098
 6604TIP3   OH244006   0.227   4.282   8.178 -0.3127  0.7703 -0.1249
 6604TIP3    H144007   0.284   4.359   8.174 -0.6816  1.0025 -1.8829
 6604TIP3    H244008   0.142   4.318   8.205 -0.0631  0.6957  0.7764
 6605TIP3   OH244009   6.148   2.992   7.538 -0.3334  0.1159  0.4831
 6605TIP3    H144010   6.239   3.022   7.538  0.1593 -1.2646  1.8519
 6605TIP3    H244011   6.122   2.998   7.446  1.3418  0.0092 -0.0437
 6606TIP3   OH244012   6.609   6.589   8.459  0.3464  0.0417 -0.2850
 6606TIP3    H144013   6.619   6.494   8.467 -0.0484  0.1100  1.2591
 6606TIP3    H244014   6.699   6.621   8.449  0.4575 -0.5109 -1.1733
 6607TIP3   OH244015   5.118   6.431   6.702 -0.5642  0.0692  0.2543
 6607TIP3    H144016   5.054   6.496   6.672 -0.9178 -0.6320 -0.5686
 6607TIP3    H244017   5.066   6.365   6.748 -0.3227 -0.0623  0.3408
 6608TIP3   OH244018   6.222   4.701   5.645  0.2161 -0.8265  0.2811
 6608TIP3    H144019   6.303   4.707   5.594  0.7068 -1.1655  0.9957
 6608TIP3    H244020   6.166   4.770   5.609  0.3089 -1.4396 -1.0997
 6609TIP3   OH244021   1.229   0.516   6.160  0.3361  0.1784  0.2181
 6609TIP3    H144022   1.306   0.510   6.103 -0.4928 -1.5132 -0.7998
 6609TIP3    H244023   1.177   0.587   6.123  1.8549  2.1400  1.5916
 6610TIP3   OH244024   1.282   1.783  14.300 -0.2242 -0.0543 -0.4491
 6610TIP3    H144025   1.286   1.722  14.226 -1.7872  0.4601 -0.9839
 6610TIP3    H244026   1.309   1.867  14.263  1.1545 -0.2194  0.1081
 6611TIP3   OH244027   1.982   0.061   6.073  0.5192  0.0045 -0.1222
 6611TIP3    H144028   1.897   0.048   6.030 -0.0220 -1.5025  1.3333
 6611TIP3    H244029   2.036   0.101   6.005 -1.8840  3.0041 -0.5204
 6612TIP3   OH244030   4.002   5.341   5.956  0.8067 -0.8140  0.0541
 6612TIP3    H144031   3.932   5.295   6.003  2.2189 -0.4183  2.7639
 6612TIP3    H244032   3.998   5.305   5.868 -4.0843  0.6703 -0.6441
 6613TIP3   OH244033   6.029   5.482   8.718  0.6376 -0.2323 -0.5583
 6613TIP3    H144034   5.977   5.506   8.641  0.9848  2.0611 -0.1555
 6613TIP3    H244035   5.981   5.408   8.757 -1.9995  1.3301 -0.5703
 6614TIP3   OH244036   4.525   1.126   7.271 -0.3015 -0.6330 -0.4580
 6614TIP3    H144037   4.430   1.133   7.266 -0.4504 -0.7949  1.4868
 6614TIP3    H244038   4.541   1.041   7.313  0.6833 -0.4527 -0.4410
 6615TIP3   OH244039   1.453   6.202   7.670  0.2286 -0.6213  0.3080
 6615TIP3    H144040   1.512   6.276   7.672 -0.1025 -0.2192 -1.7676
 6615TIP3    H244041   1.426   6.188   7.761  0.1731  1.8943  0.7296
 6616TIP3   OH244042   4.914   5.457   7.886  0.1057  0.0305  0.1366
 6616TIP3    H144043   4.894   5.472   7.978 -2.4261  0.7057 -0.4336
 6616TIP3    H244044   4.846   5.395   7.857  1.1494 -0.5469 -1.1735
 6617TIP3   OH244045   4.123   1.085   5.705  0.2789 -1.0742 -0.6163
 6617TIP3    H144046   4.180   1.032   5.649 -0.9876 -1.9504 -1.1322
 6617TIP3    H244047   4.183   1.129   5.766  1.3597 -4.1622  0.7865
 6618TIP3   OH244048   5.650   3.969   8.322 -0.1230  0.3984 -0.0098
 6618TIP3    H144049   5.625   3.928   8.405 -0.5732 -0.6103 -0.6182
 6618TIP3    H244050   5.658   4.062   8.342 -0.6585  0.2249  1.0631
 6619TIP3   OH244051   5.550   1.698   7.617  0.1893 -0.2216 -0.4650
 6619TIP3    H144052   5.637   1.681   7.580  0.7582  0.8565  0.3498
 6619TIP3    H244053   5.492   1.641   7.566  1.3127 -0.7148 -1.2498
 6620TIP3   OH244054   3.894   5.019   9.309 -0.3589 -0.2168 -0.2016
 6620TIP3    H144055   3.981   4.980   9.313 -0.5488 -1.0207 -2.5224
 6620TIP3    H244056   3.847   4.980   9.383  1.0120 -0.3005  0.6571
 6621TIP3   OH244057   3.313   3.726   7.517  0.6352  0.8343 -0.5192
 6621TIP3    H144058   3.365   3.770   7.584 -0.0663  2.3305 -0.8995
 6621TIP3    H244059   3.296   3.639   7.552  0.6941  1.4184  1.0135
 6622TIP3   OH244060   3.324   2.434   6.032  0.0264 -0.1614 -0.1483
 6622TIP3    H144061   3.336   2.391   6.116 -0.0036  0.2762  0.0834
 6622TIP3    H244062   3.410   2.471   6.011 -0.1716  0.4559  0.1013
 6623TIP3   OH244063   4.384   6.357   6.147 -0.3455 -0.0136 -0.3669
 6623TIP3    H144064   4.458   6.323   6.197 -0.2168 -0.6079 -0.9346
 6623TIP3    H244065   4.308   6.314   6.185 -0.1711 -1.0606 -1.1572
 6624TIP3   OH244066   0.370   0.055   8.215  0.2777  0.0310  0.7627
 6624TIP3    H144067   0.447   0.078   8.163 -0.7339  0.7049 -0.4958
 6624TIP3    H244068   0.327  -0.014   8.164 -0.6691  0.6231  0.7524
 6625TIP3   OH244069   4.140   2.046   8.168  0.1837 -0.5899 -0.1976
 6625TIP3    H144070   4.169   1.972   8.221  2.1422  0.3030  0.0801
 6625TIP3    H244071   4.167   2.123   8.219 -0.0666  0.2923 -1.3688
 6626TIP3   OH244072   4.870   6.318   6.464  0.4931  0.3543  0.4044
 6626TIP3    H144073   4.908   6.380   6.526  0.9633  1.1805 -0.6815
 6626TIP3    H244074   4.836   6.372   6.393 -0.4643 -0.5416  0.1550
 6627TIP3   OH244075   5.043   5.786   5.864  0.1719  0.4884 -0.2062
 6627TIP3    H144076   4.977   5.837   5.817  0.6884  0.7909 -0.6201
 6627TIP3    H244077   5.028   5.807   5.956 -0.1451  0.7473 -0.3136
 6628TIP3   OH244078   2.133   5.120   6.031 -0.1388  0.4317 -0.9508
 6628TIP3    H144079   2.152   5.185   5.964 -1.1223  0.6704 -1.0060
 6628TIP3    H244080   2.200   5.052   6.018  1.0760  1.5402 -0.7165
 6629TIP3   OH244081   6.652   1.324   6.315 -0.0776 -0.0730 -0.5302
 6629TIP3    H144082   6.638   1.246   6.262  0.6393 -1.6512  1.4440
 6629TIP3    H244083   6.706   1.293   6.389 -1.5588  1.8016  1.4617
 6630TIP3   OH244084   5.253   1.648   8.051 -0.4804 -0.1166 -0.3674
 6630TIP3    H144085   5.328   1.598   8.019 -0.6469 -1.7704  1.6460
 6630TIP3    H244086   5.178   1.613   8.002 -0.1745  0.5306 -1.3381
 6631TIP3   OH244087   0.068   2.762   7.015 -0.5095 -0.1416 -0.6418
 6631TIP3    H144088   0.074   2.857   7.023  0.2931 -0.2251 -0.1337
 6631TIP3    H244089   0.063   2.746   6.920  1.4212  0.3222 -0.8654
 6632TIP3   OH244090   3.473   5.035   8.413 -0.5243 -0.9374 -0.1086
 6632TIP3    H144091   3.454   5.097   8.343  0.9211 -0.4415 -0.1041
 6632TIP3    H244092   3.482   4.950   8.369 -1.3901 -0.9549 -0.2657
 6633TIP3   OH244093   6.239   3.459   8.890  0.2128 -0.0025  0.4781
 6633TIP3    H144094   6.245   3.541   8.842  3.0699 -0.8987 -0.9341
 6633TIP3    H244095   6.168   3.411   8.848  1.3260  0.0712 -1.6201
 6634TIP3   OH244096   6.500   5.127   7.187 -0.3380 -0.0892  0.0870
 6634TIP3    H144097   6.475   5.208   7.232 -2.4108 -0.0924 -0.9514
 6634TIP3    H244098   6.575   5.152   7.133  0.3122  0.6259  1.2725
 6635TIP3   OH244099   0.880   0.393   8.318 -0.3328 -0.9094  0.1533
 6635TIP3    H144100   0.870   0.482   8.284 -1.2567 -1.0204  0.0989
 6635TIP3    H244101   0.973   0.373   8.309  0.0924  0.4518  1.1450
 6636TIP3   OH244102   1.299   3.818   6.015  0.0927 -0.0919  0.0610
 6636TIP3    H144103   1.384   3.836   6.056  0.7700 -1.1230 -0.8356
 6636TIP3    H244104   1.319   3.808   5.922 -1.0459 -0.1627 -0.1888
 6637TIP3   OH244105   4.014   1.399   5.465  0.2979  0.2228 -0.1095
 6637TIP3    H144106   3.965   1.440   5.395 -0.0019  0.9039  0.4846
 6637TIP3    H244107   3.948   1.349   5.514  0.3246  0.5227  0.2391
 6638TIP3   OH244108   5.582   0.591   5.756  0.2107  0.3498  0.8667
 6638TIP3    H144109   5.609   0.682   5.743 -0.0786  0.3825  0.4538
 6638TIP3    H244110   5.559   0.586   5.849 -1.4080  1.1561  0.5471
 6639TIP3   OH244111   1.548   3.802   6.133  1.0466  0.2361  0.5919
 6639TIP3    H144112   1.593   3.727   6.172  0.3677  0.0836  1.0920
 6639TIP3    H244113   1.501   3.844   6.205  0.2919  0.3223  0.0722
 6640TIP3   OH244114   2.351   1.301   7.728  0.3576 -0.1261 -0.4523
 6640TIP3    H144115   2.425   1.298   7.666  1.2124 -1.3539  0.5687
 6640TIP3    H244116   2.312   1.214   7.723 -0.0119 -0.0024  0.2176
 6641TIP3   OH244117   0.278   2.786   7.639  0.3692 -0.1686 -0.4470
 6641TIP3    H144118   0.312   2.779   7.550 -0.4551  0.5373 -0.8381
 6641TIP3    H244119   0.221   2.863   7.637 -0.6366 -0.8585  0.3689
 6642TIP3   OH244120   1.371   3.906   6.314 -0.2858 -0.7567 -0.3582
 6642TIP3    H144121   1.395   3.927   6.404  0.5930  1.9588 -1.1385
 6642TIP3    H244122   1.278   3.883   6.319 -0.4881  0.2697  1.1358
 6643TIP3   OH244123   4.100   4.328   8.204 -0.0079  0.6489 -0.2536
 6643TIP3    H144124   4.029   4.355   8.262 -0.4077  2.1558 -1.3981
 6643TIP3    H244125   4.105   4.397   8.138  0.6762 -0.8179 -1.8043
 6644TIP3   OH244126   0.570   1.507   9.310 -0.5353 -0.7701 -0.2109
 6644TIP3    H144127   0.599   1.431   9.260 -0.0956 -1.5902  1.2453
 6644TIP3    H244128   0.487   1.531   9.269  0.4146 -0.6029 -2.1389
 6645TIP3   OH244129   5.161   0.809   6.812 -0.0432  0.3719  0.2894
 6645TIP3    H144130   5.160   0.889   6.864  0.5803  0.8779 -0.4534
 6645TIP3    H244131   5.246   0.769   6.831  0.3119  0.7064 -0.5363
 6646TIP3   OH244132   5.268   4.915   6.448  0.0640  0.3360 -0.6278
 6646TIP3    H144133   5.239   4.908   6.539  0.3334  1.7284 -0.4173
 6646TIP3    H244134   5.190   4.895   6.396 -0.2921  0.3184 -0.0909
 6647TIP3   OH244135   6.707   0.731   7.099  0.0326 -0.1311 -0.0109
 6647TIP3    H144136   6.673   0.816   7.071 -0.2936 -0.3954 -0.4368
 6647TIP3    H244137   6.712   0.737   7.194 -2.7338 -0.6087  0.2504
 6648TIP3   OH244138   4.036   4.863   5.675  0.3260 -0.3988  0.2643
 6648TIP3    H144139   4.099   4.875   5.746  3.9267 -0.2055 -2.6682
 6648TIP3    H244140   4.053   4.775   5.642 -0.0399  0.0981 -1.3585
 6649TIP3   OH244141   3.489   0.533   6.437  0.2641 -0.0650 -0.0861
 6649TIP3    H144142   3.485   0.438   6.448 -0.8733  0.0214  0.4522
 6649TIP3    H244143   3.444   0.549   6.354  1.1259 -0.0506 -0.5535
 6650TIP3   OH244144   1.691   1.103   6.824  0.3185  0.1083 -0.7012
 6650TIP3    H144145   1.773   1.122   6.870  1.2945 -1.5536 -1.6842
 6650TIP3    H244146   1.703   1.015   6.789 -1.4969  0.2402 -1.7551
 6651TIP3   OH244147   2.189   5.473   8.131 -0.2082 -0.2472 -0.4283
 6651TIP3    H144148   2.271   5.486   8.180  0.6854 -0.1091 -1.8805
 6651TIP3    H244149   2.125   5.529   8.175  1.1167  1.6046 -0.7226
 6652TIP3   OH244150   3.428   2.332   8.686 -0.3547 -0.3244 -0.3912
 6652TIP3    H144151   3.419   2.237   8.684  0.0605 -0.3792  0.2487
 6652TIP3    H244152   3.496   2.349   8.751 -0.2230  0.3974 -0.7051
 6653TIP3   OH244153   0.389   4.854   7.386  0.1382  0.0088  0.0699
 6653TIP3    H144154   0.474   4.844   7.342  0.4194  1.6378  0.1587
 6653TIP3    H244155   0.324   4.838   7.317  0.5560  0.6530 -0.4955
 6654TIP3   OH244156   2.372   4.356   5.156  0.0408 -0.1398 -0.0274
 6654TIP3    H144157   2.327   4.402   5.084 -3.2581 -0.5199  1.5928
 6654TIP3    H244158   2.425   4.424   5.197  0.1709  0.6457 -1.4011
 6655TIP3   OH244159   4.556   4.097   7.886  0.4724  0.3557 -0.4670
 6655TIP3    H144160   4.522   4.008   7.891  1.5188 -0.0333 -0.0051
 6655TIP3    H244161   4.495   4.149   7.939 -0.8810  0.1685 -1.7997
 6656TIP3   OH244162   5.490   4.993   8.430  0.7002  0.2747 -0.3708
 6656TIP3    H144163   5.472   4.941   8.508  0.6398  3.5494  1.9963
 6656TIP3    H244164   5.544   4.935   8.375 -2.3489 -3.5414  0.1990
 6657TIP3   OH244165   1.239   6.726   7.095  0.1249  0.0137  0.4294
 6657TIP3    H144166   1.193   6.726   7.011 -1.0128  1.3099  1.0020
 6657TIP3    H244167   1.178   6.687   7.156  1.3791 -1.9701  0.4955
 6658TIP3   OH244168   3.265   2.133   8.456 -0.3981  0.1055  0.1458
 6658TIP3    H144169   3.306   2.086   8.383  0.7669  2.3592 -0.7625
 6658TIP3    H244170   3.313   2.103   8.534 -0.9235 -1.5115 -0.1223
 6659TIP3   OH244171   5.090   4.716   8.816  0.9031  0.6814  0.4300
 6659TIP3    H144172   5.174   4.755   8.841 -0.5051  2.4377  2.9212
 6659TIP3    H244173   5.045   4.785   8.766  0.7831 -0.1195 -0.6020
 6660TIP3   OH244174   6.033   6.019   5.893  0.3752  0.0021  0.0189
 6660TIP3    H144175   6.124   6.002   5.868  0.8718  1.3922  0.7959
 6660TIP3    H244176   6.011   5.948   5.953  0.8864 -0.4391 -0.3065
 6661TIP3   OH244177   3.772   0.513   6.471  0.1908 -0.3222  0.4106
 6661TIP3    H144178   3.696   0.525   6.414 -0.1410 -2.3920  0.3161
 6661TIP3    H244179   3.846   0.503   6.412  0.0981 -0.8700  0.3754
 6662TIP3   OH244180   3.014   4.999   8.066  0.2677  0.9973  0.3365
 6662TIP3    H144181   3.070   5.005   7.989  0.4458  1.8896  0.5286
 6662TIP3    H244182   2.931   5.039   8.039  0.4387  1.6074  0.7053
 6663TIP3   OH244183   0.585   0.175   8.769  0.1626  0.1854 -0.0206
 6663TIP3    H144184   0.576   0.166   8.864  0.5211 -1.0837 -0.0835
 6663TIP3    H244185   0.664   0.227   8.758 -0.0674  0.6266  0.3787
 6664TIP3   OH244186   2.196   1.258   6.403  0.7877  0.1216  0.8234
 6664TIP3    H144187   2.240   1.333   6.365 -0.9945  0.9185  0.2369
 6664TIP3    H244188   2.168   1.287   6.490  2.0562 -0.6468  1.5276
 6665TIP3   OH244189   5.979   3.316   7.385  0.3340  0.5251 -0.4856
 6665TIP3    H144190   5.940   3.404   7.391 -0.2435  0.5915 -3.5663
 6665TIP3    H244191   5.910   3.263   7.345  0.9388 -1.2000  0.6767
 6666TIP3   OH244192   4.991   3.123   7.986 -0.9246  0.2328  0.1275
 6666TIP3    H144193   4.998   3.217   8.002 -0.4712  0.1147  0.6380
 6666TIP3    H244194   5.065   3.085   8.034 -1.1802 -0.3962  0.0264
 6667TIP3   OH244195   1.981   1.149   6.214 -0.3439 -0.0560  0.0372
 6667TIP3    H144196   1.926   1.110   6.282 -1.2232  1.8919  0.5271
 6667TIP3    H244197   2.008   1.234   6.251 -0.0282  0.6276 -1.6521
 6668TIP3   OH244198   4.306   3.660   8.230 -0.2111 -0.4064 -0.4590
 6668TIP3    H144199   4.335   3.603   8.159  0.8830 -1.0774  0.4958
 6668TIP3    H244200   4.366   3.641   8.303  0.4167  2.1917 -0.1905
 6669TIP3   OH244201   3.624   5.898   7.272  0.2282 -1.0337  0.6422
 6669TIP3    H144202   3.542   5.912   7.319 -0.1574  1.1509 -0.5515
 6669TIP3    H244203   3.692   5.912   7.338 -0.3108  1.4148  0.7722
 6670TIP3   OH244204   6.256   6.545   6.948 -0.1874 -0.0874 -0.5034
 6670TIP3    H144205   6.280   6.636   6.932  1.5895 -0.3558  0.4081
 6670TIP3    H244206   6.310   6.495   6.888 -0.7038 -0.5814 -0.5649
 6671TIP3   OH244207   5.816   4.402   6.404  0.0500 -0.5386 -0.9954
 6671TIP3    H144208   5.797   4.464   6.475 -1.9585 -0.1836 -1.7669
 6671TIP3    H244209   5.793   4.317   6.441  1.7336 -0.7430 -0.3159
 6672TIP3   OH244210   4.463   3.138   6.663 -0.4932  0.0175 -0.4183
 6672TIP3    H144211   4.451   3.190   6.584 -0.5421 -0.9662 -1.0709
 6672TIP3    H244212   4.389   3.163   6.719 -1.5349 -0.6412 -1.4480
 6673TIP3   OH244213   2.503   3.198   5.836  0.3800 -0.6362  0.2738
 6673TIP3    H144214   2.579   3.206   5.779  0.1183 -0.6574 -0.0801
 6673TIP3    H244215   2.512   3.112   5.877  0.3925 -0.7603  0.0119
 6674TIP3   OH244216   1.526   3.559   6.671  0.2607  0.3497  0.2195
 6674TIP3    H144217   1.586   3.615   6.720 -0.3868  1.1775  0.0842
 6674TIP3    H244218   1.573   3.476   6.661 -0.3502 -0.6030  3.9831
 6675TIP3   OH244219   2.921   3.385   5.886 -0.0927 -0.7135  0.0954
 6675TIP3    H144220   2.947   3.414   5.799 -0.4826  2.3779  0.9093
 6675TIP3    H244221   2.939   3.460   5.943  0.5475 -2.7635  2.7896
 6676TIP3   OH244222   1.202   2.440   6.785  0.3278 -0.5671 -0.0860
 6676TIP3    H144223   1.125   2.433   6.728 -0.2459  0.3868  0.5631
 6676TIP3    H244224   1.226   2.349   6.804 -0.1972 -0.8790 -0.8665
 6677TIP3   OH244225   2.768   5.564   7.645  0.0242  0.5433 -0.1562
 6677TIP3    H144226   2.769   5.636   7.581 -0.2446  0.5542 -0.1523
 6677TIP3    H244227   2.754   5.607   7.729 -0.1902  0.4836 -0.1600
 6678TIP3   OH244228   3.171   2.012   7.676  0.8054  0.0800 -0.1692
 6678TIP3    H144229   3.082   2.045   7.682  0.4037 -1.0149  0.3157
 6678TIP3    H244230   3.167   1.926   7.719  1.6695 -0.8059 -1.7869
 6679TIP3   OH244231   2.632   3.418   9.119 -0.3809 -0.1873 -0.3162
 6679TIP3    H144232   2.620   3.513   9.117  1.4422  0.0508 -1.5774
 6679TIP3    H244233   2.643   3.397   9.212 -0.1105  0.9252 -0.0907
 6680TIP3   OH244234   6.615   4.543   9.282 -0.5757  0.5327 -0.2211
 6680TIP3    H144235   6.524   4.514   9.279  0.0462 -1.7071  0.6196
 6680TIP3    H244236   6.617   4.606   9.355 -1.7145  1.8418 -1.2598
 6681TIP3   OH244237   2.477   5.110   7.276 -0.6613  0.3515  0.3408
 6681TIP3    H144238   2.486   5.141   7.186  0.8558  0.7200  0.5911
 6681TIP3    H244239   2.484   5.015   7.269  0.8639  0.4573  0.1972
 6682TIP3   OH244240   0.768   1.516   8.503 -0.0795 -0.0154  0.1330
 6682TIP3    H144241   0.848   1.490   8.549 -1.0257  0.3195  2.0767
 6682TIP3    H244242   0.759   1.609   8.522 -2.2829 -0.5709  2.2217
 6683TIP3   OH244243   2.895   6.689   6.747  0.2759 -0.6083  0.4430
 6683TIP3    H144244   2.985   6.705   6.778  0.0294  1.0033  0.4063
 6683TIP3    H244245   2.852   6.773   6.755 -1.1430 -1.2735  0.0748
 6684TIP3   OH244246   3.092   2.289   8.319  0.4564 -0.1736 -0.5965
 6684TIP3    H144247   3.153   2.345   8.271 -0.3521  1.9260  0.6731
 6684TIP3    H244248   3.147   2.244   8.383  0.8256  1.4070  0.2790
 6685TIP3   OH244249   4.321   0.143   5.477  0.3092 -0.4750 -0.6278
 6685TIP3    H144250   4.371   0.219   5.448  1.7769 -0.9491  0.5179
 6685TIP3    H244251   4.350   0.071   5.421  0.2976 -0.5828 -0.4971
 6686TIP3   OH244252   2.785   6.210   5.510 -0.3747  0.1834  0.2171
 6686TIP3    H144253   2.775   6.117   5.527  1.7423 -0.3123 -0.8489
 6686TIP3    H244254   2.702   6.249   5.536 -1.3352 -2.0033  0.6007
 6687TIP3   OH244255   0.136   6.280   9.277  0.3501 -0.1678  0.4885
 6687TIP3    H144256   0.152   6.186   9.283  3.3512  0.2624  0.7588
 6687TIP3    H244257   0.099   6.303   9.362 -3.0827 -1.4201 -0.5072
 6688TIP3   OH244258   5.189   2.377   5.927  0.2519 -0.8097 -0.4480
 6688TIP3    H144259   5.242   2.333   5.993 -0.4551 -1.5094 -0.3216
 6688TIP3    H244260   5.098   2.364   5.957  0.0144  0.4946 -0.5674
 6689TIP3   OH244261   3.451   5.192   8.839 -0.7424  0.9710  0.0428
 6689TIP3    H144262   3.410   5.202   8.926 -0.5922  0.8510  0.1266
 6689TIP3    H244263   3.540   5.164   8.858 -0.6763  1.0546 -0.1494
 6690TIP3   OH244264   5.895   0.861   7.743  0.9396 -0.1014  0.1194
 6690TIP3    H144265   5.824   0.840   7.804  0.5608 -0.8445 -0.5583
 6690TIP3    H244266   5.853   0.865   7.657  1.4516  1.0023 -0.0974
 6691TIP3   OH244267   3.295   3.567   8.914  0.1497 -0.1948 -0.0660
 6691TIP3    H144268   3.305   3.495   8.852  0.3741 -0.8610  0.7322
 6691TIP3    H244269   3.238   3.532   8.982 -1.7290  1.1445 -0.8279
 6692TIP3   OH244270   1.836   1.390   6.665 -0.1527  0.2461  0.6023
 6692TIP3    H144271   1.808   1.306   6.628  0.7703 -0.5164  1.5890
 6692TIP3    H244272   1.763   1.449   6.647  0.3644  0.0770 -2.8422
 6693TIP3   OH244273   5.279   5.228   6.427 -0.5696  0.4589 -0.0509
 6693TIP3    H144274   5.241   5.221   6.514  2.2425 -0.7721  1.1860
 6693TIP3    H244275   5.278   5.138   6.393 -0.5721  0.7403 -0.8317
 6694TIP3   OH244276   1.772   3.527   6.379 -0.6139  0.1832 -0.1252
 6694TIP3    H144277   1.726   3.531   6.296 -0.3790  1.1376 -0.2173
 6694TIP3    H244278   1.864   3.513   6.355 -0.6902 -0.6058  0.0175
 6695TIP3   OH244279   2.701   2.410   6.925  0.0756  0.0445 -0.3575
 6695TIP3    H144280   2.643   2.481   6.896 -1.2756 -1.3179 -1.1353
 6695TIP3    H244281   2.646   2.355   6.979  1.1805 -0.3013  0.4405
 6696TIP3   OH244282   3.172   0.695   5.715 -0.1156  0.0467 -0.0509
 6696TIP3    H144283   3.176   0.672   5.808  0.5283  0.4388  0.0296
 6696TIP3    H244284   3.079   0.710   5.698 -0.3394 -0.8426  0.3209
 6697TIP3   OH244285   4.438   3.555   6.808  0.0532 -0.3042  0.4564
 6697TIP3    H144286   4.459   3.519   6.722 -1.0402  0.3092 -0.0942
 6697TIP3    H244287   4.493   3.506   6.869  2.1103  0.3931 -0.7409
 6698TIP3   OH244288   1.087   2.321   5.995 -0.3518 -0.2388 -0.1056
 6698TIP3    H144289   1.069   2.249   5.935  0.8336 -0.9912  0.4105
 6698TIP3    H244290   1.035   2.394   5.961 -1.7089 -1.3629 -0.5407
 6699TIP3   OH244291   2.647   0.142   6.587  0.2077  0.1679 -0.1274
 6699TIP3    H144292   2.695   0.156   6.669  0.3018  0.8412 -0.2885
 6699TIP3    H244293   2.713   0.151   6.518 -0.1049  0.9448 -0.3409
 6700TIP3   OH244294   4.982   4.621   6.073  0.3522 -0.3995  0.1795
 6700TIP3    H144295   4.978   4.659   6.161  0.2797  1.6863 -0.6642
 6700TIP3    H244296   4.905   4.564   6.068 -0.5898  0.7674  0.9202
 6701TIP3   OH244297   3.116   2.824   5.564  0.3510 -0.2437  0.1391
 6701TIP3    H144298   3.088   2.752   5.621 -0.3391  0.7263  1.0697
 6701TIP3    H244299   3.203   2.798   5.535 -0.3452 -2.0017 -0.5141
 6702TIP3   OH244300   5.447   3.918   8.127  0.1655 -0.1788  0.0730
 6702TIP3    H144301   5.372   3.923   8.186  0.0567 -0.8188  0.0067
 6702TIP3    H244302   5.523   3.928   8.183  0.0413  0.0101  0.2078
 6703TIP3   OH244303   5.910   0.112   8.573 -0.6638 -0.0627 -0.7071
 6703TIP3    H144304   5.925   0.203   8.598  1.2033 -0.6709  0.5983
 6703TIP3    H244305   5.889   0.068   8.655 -2.9333 -0.6283 -1.5032
 6704TIP3   OH244306   4.535   3.967   6.653  0.0903 -0.3292 -0.3767
 6704TIP3    H144307   4.522   3.985   6.746 -0.3765  0.4968 -0.5872
 6704TIP3    H244308   4.477   3.895   6.634 -0.5246  0.1186 -0.2277
 6705TIP3   OH244309   4.853   4.473   6.930 -0.1430  0.5090  0.8158
 6705TIP3    H144310   4.764   4.445   6.949 -0.7482  1.4781 -0.4611
 6705TIP3    H244311   4.904   4.446   7.007 -1.0598 -2.1373  0.5698
 6706TIP3   OH244312   6.033   4.399   6.701 -0.0439 -0.0933  0.0211
 6706TIP3    H144313   5.977   4.458   6.651 -2.7350 -1.8183  0.7523
 6706TIP3    H244314   5.981   4.375   6.778  1.2447 -2.6795  0.2233
 6707TIP3   OH244315   1.022   1.376   8.359 -0.2376  0.5515 -0.4706
 6707TIP3    H144316   1.116   1.358   8.363 -0.0401  1.4908 -0.8149
 6707TIP3    H244317   0.988   1.341   8.441  0.2184 -0.8781 -0.8595
 6708TIP3   OH244318   5.926   0.071   6.979 -0.0789 -0.1619  0.2305
 6708TIP3    H144319   5.962   0.063   7.067  0.8289 -0.1011 -0.1130
 6708TIP3    H244320   5.970   0.149   6.943 -2.2560  1.2814  0.5462
 6709TIP3   OH244321   1.387   4.304   6.426 -0.1605  0.3804  0.1496
 6709TIP3    H144322   1.330   4.233   6.454 -0.0635 -0.4890 -1.7319
 6709TIP3    H244323   1.411   4.282   6.336  0.0395  2.6798 -0.4236
 6710TIP3   OH244324   1.797   5.936   5.806  0.2135  0.2156 -0.1406
 6710TIP3    H144325   1.875   5.987   5.829  0.8172  0.2509 -2.0907
 6710TIP3    H244326   1.724   5.985   5.844  1.0679  0.4125  1.3410
 6711TIP3   OH244327   1.986   2.442   5.670  0.4168  0.0196  0.2155
 6711TIP3    H144328   2.077   2.430   5.700  0.8811  0.7383 -0.8372
 6711TIP3    H244329   1.960   2.357   5.637 -0.0913 -0.7912  2.5379
 6712TIP3   OH244330   3.289   3.745   8.459 -0.9291 -0.2048  0.3675
 6712TIP3    H144331   3.265   3.831   8.492 -1.2734 -0.4559  0.7813
 6712TIP3    H244332   3.225   3.726   8.391 -2.1684 -1.0195  1.6994
 6713TIP3   OH244333   3.918   3.473   8.379 -0.2611 -0.4226 -0.2602
 6713TIP3    H144334   3.828   3.458   8.408 -0.3025  0.7919  0.2715
 6713TIP3    H244335   3.910   3.488   8.285 -0.6066 -0.3896 -0.2292
 6714TIP3   OH244336   6.418   2.039   6.524 -0.3673  0.0907  0.5818
 6714TIP3    H144337   6.398   1.957   6.478  1.2264  0.5222 -1.0078
 6714TIP3    H244338   6.506   2.063   6.493  0.1180  1.2712  2.6984
 6715TIP3   OH244339   2.020   3.244   5.875 -0.1351 -0.3742 -0.2378
 6715TIP3    H144340   2.096   3.286   5.916 -1.1463 -0.3776  1.7932
 6715TIP3    H244341   2.050   3.156   5.853  0.6369 -0.1645 -0.0616
 6716TIP3   OH244342   3.789   0.478   7.895 -0.5460  1.1106 -0.2439
 6716TIP3    H144343   3.849   0.436   7.956 -2.2027  0.9149  1.3314
 6716TIP3    H244344   3.786   0.419   7.820  0.7644  0.8357 -0.1030
 6717TIP3   OH244345   6.402   3.552   6.821  0.2693  0.0825 -0.0489
 6717TIP3    H144346   6.366   3.536   6.733 -0.5229  0.6461  0.1602
 6717TIP3    H244347   6.329   3.588   6.870  0.5702 -0.7166  1.0047
 6718TIP3   OH244348   0.613   2.881   7.842  0.1349 -0.1721  0.0326
 6718TIP3    H144349   0.562   2.819   7.789 -1.0297 -0.1331  1.0784
 6718TIP3    H244350   0.673   2.826   7.892  0.0811 -0.3329 -0.0779
 6719TIP3   OH244351   5.776   2.225   7.071 -0.3353 -0.8652 -0.0459
 6719TIP3    H144352   5.828   2.273   7.136  1.2012  1.5363 -2.7870
 6719TIP3    H244353   5.832   2.151   7.046 -0.3788 -1.0716  0.4578
 6720TIP3   OH244354   0.578   0.302   6.152  0.5504 -0.5356 -0.0631
 6720TIP3    H144355   0.524   0.235   6.193 -0.9502  0.9877  0.5514
 6720TIP3    H244356   0.520   0.346   6.090  0.6730  1.8192  1.3371
 6721TIP3   OH244357   2.491   0.650   7.716 -0.0681  0.0507  0.9502
 6721TIP3    H144358   2.541   0.648   7.634 -0.2964  1.2099  0.7750
 6721TIP3    H244359   2.555   0.629   7.783  0.0691 -1.1814  0.4642
 6722TIP3   OH244360   1.223   5.833   5.722 -0.4833  0.4904  0.3232
 6722TIP3    H144361   1.319   5.838   5.724 -0.3952 -0.7646  0.5037
 6722TIP3    H244362   1.205   5.739   5.715 -1.7096  0.6507  1.0789
 6723TIP3   OH244363   4.637   2.919   7.234 -0.6659 -0.4371  0.1617
 6723TIP3    H144364   4.611   2.898   7.323 -0.2934 -1.0400  0.1348
 6723TIP3    H244365   4.566   2.886   7.179 -0.6292 -0.5761  0.1978
 6724TIP3   OH244366   5.453   5.657   8.151  0.1857  0.0559 -0.0933
 6724TIP3    H144367   5.474   5.655   8.058  1.2876 -1.6449  0.1476
 6724TIP3    H244368   5.477   5.746   8.179 -1.1341  0.9313 -1.6010
 6725TIP3   OH244369   3.297   5.559   5.607 -0.2375 -0.6898 -0.1494
 6725TIP3    H144370   3.352   5.545   5.685 -1.8316 -2.1315  0.7884
 6725TIP3    H244371   3.273   5.471   5.579 -0.4488 -0.1456 -1.7601
 6726TIP3   OH244372   1.553   3.229   8.252 -0.2971 -0.5946 -0.1020
 6726TIP3    H144373   1.619   3.161   8.234 -1.4248 -1.3467 -1.7535
 6726TIP3    H244374   1.475   3.198   8.205 -0.3791  2.6573 -2.4437
 6727TIP3   OH244375   0.922   5.913   8.049 -0.4236 -0.1519  0.4686
 6727TIP3    H144376   1.010   5.951   8.054 -0.1939 -0.5452 -0.2803
 6727TIP3    H244377   0.870   5.964   8.110  0.3481  0.0290  0.9973
 6728TIP3   OH244378   1.520   2.620   7.646 -0.0822  0.1983  0.8374
 6728TIP3    H144379   1.562   2.643   7.729 -0.3775 -0.2392  1.1156
 6728TIP3    H244380   1.445   2.566   7.672 -0.3262  0.2785  0.3009
 6729TIP3   OH244381   4.860   5.009   7.338  0.0757 -0.6334  0.3901
 6729TIP3    H144382   4.790   5.001   7.402  0.9525 -2.5580  1.1728
 6729TIP3    H244383   4.916   5.079   7.371 -1.1058  0.4847  0.0835
 6730TIP3   OH244384   3.428   2.816   6.290  0.5760 -0.5859  0.3654
 6730TIP3    H144385   3.398   2.865   6.213 -1.7760 -2.4717 -0.0285
 6730TIP3    H244386   3.520   2.840   6.300 -0.0372  2.6463 -0.7077
 6731TIP3   OH244387   3.367   1.422   6.497  0.2817 -0.0468 -0.3310
 6731TIP3    H144388   3.459   1.401   6.483  0.3849  0.6238 -0.6505
 6731TIP3    H244389   3.335   1.351   6.553  0.7794 -0.7353 -0.9003
 6732TIP3   OH244390   6.086   0.945   7.926 -0.6684 -0.1425 -0.0367
 6732TIP3    H144391   6.171   0.920   7.889  0.2121  0.7365  1.3113
 6732TIP3    H244392   6.022   0.913   7.863  0.6232 -1.5130 -0.7050
 6733TIP3   OH244393   0.998   0.078   8.544 -0.1549 -0.3220 -0.2253
 6733TIP3    H144394   0.973   0.095   8.453  0.7549  0.9201 -0.2697
 6733TIP3    H244395   1.015   0.165   8.580  3.4074 -0.9707 -0.0279
 6734TIP3   OH244396   4.201   1.525   6.874  0.2056 -0.3466 -0.2240
 6734TIP3    H144397   4.183   1.506   6.782 -1.2131  0.8246 -0.2236
 6734TIP3    H244398   4.294   1.548   6.876  0.1824 -0.0881 -1.4270
 6735TIP3   OH244399   6.333   1.349   8.399 -0.1096  0.1201  0.4436
 6735TIP3    H144400   6.397   1.311   8.459  0.2152 -0.8766 -0.4980
 6735TIP3    H244401   6.384   1.409   8.345 -0.2990  0.6120  0.8100
 6736TIP3   OH244402   5.798   2.211   7.818 -0.1913  0.0742  0.2070
 6736TIP3    H144403   5.884   2.184   7.849 -0.1617  0.2496  0.2806
 6736TIP3    H244404   5.740   2.138   7.840  0.0004 -0.1783 -0.1329
 6737TIP3   OH244405   3.799   4.094   7.594  0.2971 -0.0789  0.1247
 6737TIP3    H144406   3.760   4.171   7.551 -0.0801 -0.4931 -0.2855
 6737TIP3    H244407   3.823   4.037   7.521  0.4046 -0.4308  0.4381
 6738TIP3   OH244408   3.108   1.899   8.418  0.4760  0.4254  0.4856
 6738TIP3    H144409   3.129   1.991   8.436  0.8150  0.3220  0.6089
 6738TIP3    H244410   3.066   1.901   8.332  0.1970  0.7347  0.6236
 6739TIP3   OH244411   3.086   5.768   7.740 -0.7048  0.2203 -0.4321
 6739TIP3    H144412   3.031   5.724   7.805 -0.7965 -1.1056 -1.3697
 6739TIP3    H244413   3.155   5.705   7.719 -0.7494  0.5525 -1.7000
 6740TIP3   OH244414   0.484   3.655   7.914 -0.5706  0.4782 -0.1641
 6740TIP3    H144415   0.560   3.709   7.938  0.9365 -0.8648 -1.5991
 6740TIP3    H244416   0.427   3.714   7.865 -0.4299  1.4838  0.8235
 6741TIP3   OH244417   3.987   0.287   5.773 -0.2816  0.0535 -0.4099
 6741TIP3    H144418   4.051   0.244   5.716  0.0314  0.1258 -0.1166
 6741TIP3    H244419   3.911   0.302   5.716 -0.4238 -0.9488 -0.4909
 6742TIP3   OH244420   1.032   3.208   6.407 -0.0108  0.1986  0.0846
 6742TIP3    H144421   0.957   3.173   6.359 -1.3079  1.6086  1.0072
 6742TIP3    H244422   1.108   3.166   6.366 -1.0122  1.2594 -3.2067
 6743TIP3   OH244423   2.920   5.167   8.642 -0.0241 -0.3970 -0.8425
 6743TIP3    H144424   2.840   5.147   8.593  0.3018 -2.2212 -0.6786
 6743TIP3    H244425   2.946   5.084   8.681  0.3743  0.7496  1.5164
 6744TIP3   OH244426   6.140   5.620   6.901 -0.3323  0.0036 -0.1258
 6744TIP3    H144427   6.103   5.690   6.955 -1.6615  0.2265 -1.2851
 6744TIP3    H244428   6.203   5.664   6.844 -0.0510  0.0102  0.1885
 6745TIP3   OH244429   4.986   2.350   5.645 -0.2932 -0.1807 -0.0957
 6745TIP3    H144430   4.974   2.255   5.647 -0.2409 -0.1774  1.0716
 6745TIP3    H244431   5.002   2.375   5.737 -3.4658  1.3449  0.1793
 6746TIP3   OH244432   5.936   5.085   6.209  0.0717  0.6284  0.5747
 6746TIP3    H144433   5.879   5.008   6.210  0.2520  0.4965  0.8000
 6746TIP3    H244434   5.893   5.148   6.266 -0.2089  0.7932  0.1856
 6747TIP3   OH244435   5.541   5.125   6.105 -0.1943 -0.6207 -0.1807
 6747TIP3    H144436   5.564   5.058   6.041  0.0659 -0.1163 -0.6218
 6747TIP3    H244437   5.543   5.080   6.189 -0.5113 -1.2807 -0.5246
 6748TIP3   OH244438   1.854   1.149   7.949  0.1479  0.2410  0.2550
 6748TIP3    H144439   1.786   1.115   7.891  0.5967 -0.6999  0.2572
 6748TIP3    H244440   1.902   1.212   7.896 -0.2906  0.3835  0.0284
 6749TIP3   OH244441   0.424   5.090   7.024 -0.0017 -0.1424  0.3229
 6749TIP3    H144442   0.466   5.101   7.110  0.8018 -0.4053 -0.0326
 6749TIP3    H244443   0.485   5.129   6.962 -0.9943  0.8893 -0.0590
 6750TIP3   OH244444   3.283   1.267   7.970 -0.2139 -0.0994 -0.4795
 6750TIP3    H144445   3.263   1.177   7.945 -1.0054 -0.7741  2.2748
 6750TIP3    H244446   3.379   1.271   7.974 -0.1848 -1.0580  0.0504
 6751TIP3   OH244447   1.990   6.326   5.899  0.4414  0.2974  0.0628
 6751TIP3    H144448   2.081   6.327   5.869  0.9550  0.9892  1.5727
 6751TIP3    H244449   1.990   6.377   5.980 -1.4474  0.9587 -0.3051
 6752TIP3   OH244450   4.653   3.408   7.981 -0.2137  0.5632  0.1289
 6752TIP3    H144451   4.640   3.358   8.062 -1.5340 -2.1906 -1.6059
 6752TIP3    H244452   4.747   3.423   7.976  0.1321 -1.0602  1.1881
 6753TIP3   OH244453   5.085   0.543   6.893  0.5854  0.0179  0.5754
 6753TIP3    H144454   5.065   0.539   6.987  0.8380 -0.0055  0.6300
 6753TIP3    H244455   5.092   0.637   6.875 -0.3950  0.0632  0.3736
 6754TIP3   OH244456   2.029   5.007   8.742  0.3018 -0.1192 -0.5695
 6754TIP3    H144457   2.001   5.005   8.650  0.2133 -0.3325 -0.5383
 6754TIP3    H244458   1.995   5.089   8.776 -1.3780 -0.9406 -0.1811
 6755TIP3   OH244459   5.865   1.319   6.774 -0.1318 -0.3716 -0.6013
 6755TIP3    H144460   5.868   1.228   6.744  2.5872 -0.3523 -0.6632
 6755TIP3    H244461   5.790   1.357   6.728 -0.1266 -2.0661 -2.1471
 6756TIP3   OH244462   0.402   3.333   6.670  0.1382  0.0643  0.8357
 6756TIP3    H144463   0.424   3.394   6.740 -0.8533  0.9441  0.4139
 6756TIP3    H244464   0.374   3.389   6.598 -0.1342 -0.8749  0.1969
 6757TIP3   OH244465   4.089   2.998   5.718 -0.2196  0.1538 -0.1315
 6757TIP3    H144466   4.174   3.006   5.761 -1.1857  1.7497  1.6292
 6757TIP3    H244467   4.071   3.087   5.686 -2.0753  0.3282  1.2686
 6758TIP3   OH244468   2.016   5.003   6.831 -0.0257 -0.2473  0.0356
 6758TIP3    H144469   2.046   5.021   6.920 -1.3624  0.8664  0.2988
 6758TIP3    H244470   2.079   5.049   6.775  0.4994 -0.4840  0.4217
 6759TIP3   OH244471   4.420   5.340   7.845 -0.6519  0.2743  0.3205
 6759TIP3    H144472   4.346   5.381   7.890 -1.1066  0.5088 -0.6171
 6759TIP3    H244473   4.382   5.266   7.798 -0.0776 -0.3513  0.8300
 6760TIP3   OH244474   0.479   5.963   8.188 -0.0961 -0.0660  0.0316
 6760TIP3    H144475   0.488   5.876   8.226  1.7828  0.2540  0.3767
 6760TIP3    H244476   0.503   5.952   8.096  0.4445  0.1496  0.1474
 6761TIP3   OH244477   0.360   5.798   7.759  0.3356 -0.5339 -0.4854
 6761TIP3    H144478   0.411   5.823   7.682  0.4042 -1.0060 -0.5926
 6761TIP3    H244479   0.409   5.726   7.798 -1.4933 -2.7095 -1.9792
 6762TIP3   OH244480   2.336   0.533   6.452 -0.2107  0.4097  0.5888
 6762TIP3    H144481   2.246   0.524   6.485 -0.5668  0.4049 -0.3528
 6762TIP3    H244482   2.370   0.610   6.497  0.0658 -0.8057  2.5812
 6763TIP3   OH244483   4.623   6.543   6.078  0.0539 -0.5884 -0.0227
 6763TIP3    H144484   4.541   6.586   6.103  0.1129  0.3895 -1.3914
 6763TIP3    H244485   4.664   6.604   6.017  1.6045 -1.2625  0.3076
 6764TIP3   OH244486   1.216   5.434   6.319  0.3785  0.0412  0.7745
 6764TIP3    H144487   1.168   5.357   6.289  0.7816  0.3343 -0.6890
 6764TIP3    H244488   1.149   5.492   6.355 -0.2571  0.0595 -0.4046
 6765TIP3   OH244489   3.600   6.544   7.540  0.3726 -0.0414 -0.0877
 6765TIP3    H144490   3.509   6.526   7.519  0.4294 -0.4365  0.0093
 6765TIP3    H244491   3.647   6.464   7.518  0.9253  0.6390 -1.5093
 6766TIP3   OH244492   1.875   3.843   6.254  0.7447 -0.0635 -0.0688
 6766TIP3    H144493   1.961   3.812   6.225  1.0512 -1.1167  1.8407
 6766TIP3    H244494   1.818   3.767   6.246  0.3125  0.2500  0.0043
 6767TIP3   OH244495   3.900   0.034   7.932  0.2120  0.1021 -0.0656
 6767TIP3    H144496   3.876   0.118   7.970 -1.1717 -0.6256  0.7648
 6767TIP3    H244497   3.827   0.012   7.873  0.9239 -0.1672 -0.8739
 6768TIP3   OH244498   1.866   4.614   8.287  1.0928 -0.4502  0.2265
 6768TIP3    H144499   1.922   4.687   8.261  0.4693 -0.0797 -0.0745
 6768TIP3    H244500   1.841   4.634   8.377 -1.2624  1.1090 -0.6924
 6769TIP3   OH244501   6.324   3.526   7.895 -0.0694  0.4839 -0.5100
 6769TIP3    H144502   6.299   3.505   7.985 -0.5832  1.7545 -0.3422
 6769TIP3    H244503   6.389   3.596   7.903  0.3652  0.1668 -1.1153
 6770TIP3   OH244504   4.369   3.303   6.181  0.2871 -0.1699  0.2924
 6770TIP3    H144505   4.393   3.220   6.222 -1.5292 -0.7266  0.2749
 6770TIP3    H244506   4.440   3.362   6.206  0.6524 -1.2167  1.9053
 6771TIP3   OH244507   4.819   2.387   8.033  0.3443 -0.0564  0.5930
 6771TIP3    H144508   4.744   2.396   8.091 -0.2609 -0.2461 -0.1392
 6771TIP3    H244509   4.797   2.312   7.977  0.2232  0.9941 -0.8377
 6772TIP3   OH244510   3.697   3.963   6.491  0.2758  0.2375  0.2429
 6772TIP3    H144511   3.736   3.991   6.574  0.4297  1.0226 -0.0821
 6772TIP3    H244512   3.614   3.922   6.516 -0.0564  1.1713  0.7389
 6773TIP3   OH244513   5.893   5.503   7.737 -0.2036 -0.0291  0.5165
 6773TIP3    H144514   5.882   5.455   7.819 -0.4321 -1.4282 -0.2968
 6773TIP3    H244515   5.903   5.594   7.764 -1.6650 -0.2605  2.0216
 6774TIP3   OH244516   4.077   5.113   5.436 -0.3868  0.3149  0.1269
 6774TIP3    H144517   4.168   5.142   5.427 -0.1226 -0.8760 -1.2959
 6774TIP3    H244518   4.080   5.045   5.503 -0.2533  0.3678  0.1750
 6775TIP3   OH244519   3.005   6.112   7.041  0.6840 -0.1498 -0.2373
 6775TIP3    H144520   2.948   6.053   6.992  0.6798  0.1887 -0.6488
 6775TIP3    H244521   3.081   6.125   6.985  0.7208  0.1691 -0.1170
 6776TIP3   OH244522   2.849   3.711   5.865  0.6477 -0.7197  0.3565
 6776TIP3    H144523   2.841   3.672   5.952  0.3562 -0.0494  0.6308
 6776TIP3    H244524   2.832   3.638   5.805  0.9203 -1.2037  0.8524
 6777TIP3   OH244525   1.787   6.439   7.080 -0.1951  0.6190  0.0199
 6777TIP3    H144526   1.705   6.413   7.038  0.5193  0.0722 -1.0548
 6777TIP3    H244527   1.856   6.405   7.023  0.8582 -1.4599  2.3587
 6778TIP3   OH244528   0.348   5.643   6.768 -0.2369  0.3376 -0.1427
 6778TIP3    H144529   0.301   5.727   6.765 -0.9918  0.1503  2.8286
 6778TIP3    H244530   0.279   5.577   6.755 -0.4410  0.1368  1.6589
 6779TIP3   OH244531   3.675   2.476   7.974  0.3241 -0.4500  0.4060
 6779TIP3    H144532   3.769   2.467   7.957  0.2225 -2.7293  0.7250
 6779TIP3    H244533   3.643   2.386   7.982 -2.4594  0.0435 -2.6797
 6780TIP3   OH244534   1.629   2.840   9.208 -0.1120 -0.1493  0.1164
 6780TIP3    H144535   1.598   2.801   9.126 -0.6686  0.9483 -0.2127
 6780TIP3    H244536   1.550   2.870   9.251  0.2749  0.2496  0.5541
 6781TIP3   OH244537   1.077   3.067   7.636 -0.1362 -0.0246  0.5376
 6781TIP3    H144538   1.049   3.157   7.623 -0.5298 -0.4814 -2.3584
 6781TIP3    H244539   1.173   3.071   7.633 -0.1706  0.2107 -0.3459
 6782TIP3   OH244540   4.392   3.353   5.683  0.1795  0.1521 -0.4076
 6782TIP3    H144541   4.432   3.270   5.708 -0.4929 -1.2575 -3.4849
 6782TIP3    H244542   4.298   3.336   5.686  0.0495  0.4218 -1.9963
 6783TIP3   OH244543   2.621   4.375   5.552 -0.4673 -0.0787  0.0691
 6783TIP3    H144544   2.652   4.414   5.470  2.1895  0.7448  1.3601
 6783TIP3    H244545   2.547   4.430   5.577 -1.8556 -0.8190 -2.1036
 6784TIP3   OH244546   1.627   1.282   7.569 -0.3614  0.0475  0.7326
 6784TIP3    H144547   1.610   1.273   7.475 -2.2100 -0.5409  1.0736
 6784TIP3    H244548   1.689   1.354   7.576 -1.9059  1.6406 -0.8310
 6785TIP3   OH244549   0.285   2.446   7.764  0.3783 -0.0557 -1.0370
 6785TIP3    H144550   0.346   2.516   7.787 -1.0061  1.3290 -1.3684
 6785TIP3    H244551   0.291   2.439   7.669  0.9731 -0.8541 -0.9494
 6786TIP3   OH244552   4.410   6.547   7.039 -0.7353 -0.2780 -0.7992
 6786TIP3    H144553   4.397   6.521   6.948  0.8339  1.4544 -1.5796
 6786TIP3    H244554   4.410   6.643   7.037  0.2416 -0.2064  0.8694
 6787TIP3   OH244555   3.206   1.357   6.268  0.1606  0.1796 -0.2515
 6787TIP3    H144556   3.152   1.340   6.345  1.4377 -1.0131  0.4193
 6787TIP3    H244557   3.279   1.410   6.301 -0.1783  1.1523 -1.0024
 6788TIP3   OH244558   2.667   3.244   7.076  0.2948  0.2815 -0.7559
 6788TIP3    H144559   2.632   3.212   7.159 -0.7608  0.6374 -1.0524
 6788TIP3    H244560   2.593   3.241   7.016  0.6099  1.6601 -1.2369
 6789TIP3   OH244561   6.460   4.143   8.173 -0.1823  0.1911  0.4404
 6789TIP3    H144562   6.400   4.176   8.106 -1.1059 -0.5925  0.8535
 6789TIP3    H244563   6.454   4.207   8.243  1.3740  1.4247 -0.5025
 6790TIP3   OH244564   2.349   0.833   6.501 -0.0486  0.6854 -0.0320
 6790TIP3    H144565   2.361   0.928   6.503  2.6946  0.4089  0.7128
 6790TIP3    H244566   2.418   0.799   6.557 -1.1105 -1.7805 -0.0789
 6791TIP3   OH244567   6.158   1.064   9.253 -0.4154 -0.3665 -0.1524
 6791TIP3    H144568   6.163   1.041   9.345 -3.0797 -0.0250  0.1644
 6791TIP3    H244569   6.249   1.067   9.223  0.4245 -4.4494  1.4114
 6792TIP3   OH244570   0.218   3.581   7.250 -0.9709 -0.3646 -0.3317
 6792TIP3    H144571   0.178   3.524   7.185  0.8099 -1.5084 -0.4867
 6792TIP3    H244572   0.298   3.613   7.208 -1.4826  1.5843  0.0793
 6793TIP3   OH244573   2.217   5.196   8.095 -0.3622 -0.1743  0.0382
 6793TIP3    H144574   2.229   5.182   8.190 -2.6905 -0.2684  0.3701
 6793TIP3    H244575   2.200   5.289   8.086  3.1620  0.5361 -0.7747
 6794TIP3   OH244576   4.545   5.274   7.524  0.6344 -0.4044 -0.3185
 6794TIP3    H144577   4.622   5.219   7.508  0.9992  0.3199 -1.1533
 6794TIP3    H244578   4.545   5.289   7.618 -0.2067 -2.8619  0.1460
 6795TIP3   OH244579   5.422   6.629   7.491  0.1339  0.1871 -0.0682
 6795TIP3    H144580   5.426   6.607   7.583  0.8832 -0.3125 -0.2112
 6795TIP3    H244581   5.498   6.685   7.476  2.3174 -2.7775 -1.1359
 6796TIP3   OH244582   4.058   4.710   8.200  0.0600  0.2717 -0.1661
 6796TIP3    H144583   4.050   4.633   8.144  0.8071  1.3225 -1.7866
 6796TIP3    H244584   4.136   4.755   8.168  1.2055  0.3683  2.4832
 6797TIP3   OH244585   3.440   3.791   6.531 -0.0156  0.4587 -0.3802
 6797TIP3    H144586   3.445   3.716   6.472  1.1852  0.8954 -0.8603
 6797TIP3    H244587   3.400   3.861   6.479 -0.2459  0.4425 -0.2300
 6798TIP3   OH244588   2.958   0.600   8.062  0.2640  0.7036 -0.2308
 6798TIP3    H144589   2.949   0.630   8.152  0.3464 -1.6617  0.6386
 6798TIP3    H244590   3.004   0.671   8.017  0.9972  1.5675  1.7810
 6799TIP3   OH244591   1.236   5.127   5.754  0.0175  0.0020  0.7313
 6799TIP3    H144592   1.248   5.034   5.775  0.7089 -0.0632  0.0790
 6799TIP3    H244593   1.215   5.167   5.839  0.9087 -0.5603  1.2467
 6800TIP3   OH244594   6.581   3.885   8.236 -1.3779 -0.3828  0.4198
 6800TIP3    H144595   6.581   3.883   8.332 -1.5817 -0.6966  0.4162
 6800TIP3    H244596   6.558   3.975   8.214  0.3344  0.1489  0.6640
 6801TIP3   OH244597   2.919   5.073   5.794 -0.4232  0.3854 -0.4653
 6801TIP3    H144598   2.847   5.136   5.789  0.0180  0.9270 -0.1458
 6801TIP3    H244599   2.925   5.035   5.707 -0.3104  1.2186 -0.8248
 6802TIP3   OH244600   3.673   6.028   8.581 -0.0492  0.2342  0.0957
 6802TIP3    H144601   3.704   6.013   8.671 -0.3184 -1.5625 -0.0718
 6802TIP3    H244602   3.629   5.946   8.557 -1.9978  1.4893 -0.8740
 6803TIP3   OH244603   5.832   1.078   6.173 -0.5522  0.3005  0.0602
 6803TIP3    H144604   5.775   1.045   6.103  0.1277 -1.4026  0.2596
 6803TIP3    H244605   5.920   1.057   6.144 -0.2724 -0.6886  1.5378
 6804TIP3   OH244606   0.988   1.265   8.602  0.1791  0.3420  0.1459
 6804TIP3    H144607   0.966   1.349   8.641 -1.7853 -0.5833  1.1252
 6804TIP3    H244608   0.939   1.200   8.653  3.6108 -1.7546  1.1884
 6805TIP3   OH244609   3.365   2.227   5.823  0.0652  0.2785  0.3683
 6805TIP3    H144610   3.294   2.219   5.759  0.1015 -1.7566  0.5084
 6805TIP3    H244611   3.357   2.316   5.856 -1.6044  0.5277 -0.5618
 6806TIP3   OH244612   2.617   4.313   9.025 -0.1698 -0.6773 -0.4948
 6806TIP3    H144613   2.624   4.393   8.972 -0.8444 -1.0557 -1.1597
 6806TIP3    H244614   2.560   4.339   9.098 -0.2017 -0.4844 -0.5856
 6807TIP3   OH244615   4.195   3.293   8.883 -0.2907 -0.1475 -0.0672
 6807TIP3    H144616   4.183   3.227   8.952  1.0575 -0.0798  0.2663
 6807TIP3    H244617   4.236   3.367   8.928  0.8529 -0.1994 -0.9683
 6808TIP3   OH244618   6.570   2.372   7.884  0.5208 -0.2237 -0.6147
 6808TIP3    H144619   6.478   2.344   7.888  0.6708 -0.7905 -0.9943
 6808TIP3    H244620   6.614   2.319   7.950  0.4587  0.5263  0.0342
 6809TIP3   OH244621   4.486   4.381   5.964 -0.3011 -0.5286 -0.2120
 6809TIP3    H144622   4.532   4.376   5.880  0.2545 -0.0856  0.0572
 6809TIP3    H244623   4.404   4.333   5.950  0.0697 -0.9926 -0.8161
 6810TIP3   OH244624   3.349   3.773   8.157 -0.3839 -0.0899  0.1191
 6810TIP3    H144625   3.380   3.687   8.183  0.2009  0.2814  0.6823
 6810TIP3    H244626   3.323   3.763   8.065 -2.9264 -1.5479  0.8840
 6811TIP3   OH244627   1.943   4.261   9.297  0.7174 -0.3098  0.5023
 6811TIP3    H144628   1.963   4.283   9.388  1.9969 -0.5919  0.3141
 6811TIP3    H244629   1.983   4.332   9.246  1.3640 -0.9446  0.0987
 6812TIP3   OH244630   6.546   1.971   8.084 -0.1204  1.2175  0.3160
 6812TIP3    H144631   6.582   1.937   8.166  0.7217  0.4053 -0.3715
 6812TIP3    H244632   6.622   1.981   8.027 -0.9305 -0.3255 -1.1191
 6813TIP3   OH244633   6.102   4.492   7.362 -0.1740  0.2709  0.3047
 6813TIP3    H144634   6.132   4.437   7.435 -1.4839 -2.9699 -1.4055
 6813TIP3    H244635   6.183   4.523   7.321  0.7284 -1.9004  0.3195
 6814TIP3   OH244636   4.088   2.213   5.525 -0.9176 -0.0183 -0.2066
 6814TIP3    H144637   4.173   2.217   5.568 -0.7982 -1.1194 -0.3208
 6814TIP3    H244638   4.055   2.303   5.530  0.8760  0.7566 -1.4712
 6815TIP3   OH244639   5.291   4.313   6.573  0.1097 -0.1266 -1.1351
 6815TIP3    H144640   5.363   4.269   6.618 -1.4134 -1.2059  0.3354
 6815TIP3    H244641   5.269   4.387   6.629 -1.4933 -1.2050 -0.2985
 6816TIP3   OH244642   2.527   4.809   7.297  0.0183 -0.0070 -0.1329
 6816TIP3    H144643   2.580   4.787   7.221 -0.0248 -0.6225  0.0082
 6816TIP3    H244644   2.498   4.724   7.332 -1.7688  0.3273 -0.7126
 6817TIP3   OH244645   6.157   5.344   8.173  0.1706 -0.9362 -0.5485
 6817TIP3    H144646   6.201   5.260   8.188  0.1401 -1.1240 -1.4565
 6817TIP3    H244647   6.178   5.396   8.250  0.5401 -1.6309 -0.1696
 6818TIP3   OH244648   6.709   2.131   7.344 -0.6289 -0.4660  0.0786
 6818TIP3    H144649   6.777   2.119   7.278  0.3444 -1.4040  1.2160
 6818TIP3    H244650   6.644   2.188   7.301 -0.2426 -1.3647 -1.8053
 6819TIP3   OH244651   3.698   1.600   7.849  0.4918 -0.2613  0.3599
 6819TIP3    H144652   3.717   1.517   7.892  1.3289 -0.5017 -0.4563
 6819TIP3    H244653   3.651   1.576   7.769  0.6078  0.0615  0.1913
 6820TIP3   OH244654   3.127   3.540   7.560  0.2256 -0.1160 -0.1651
 6820TIP3    H144655   3.122   3.458   7.512  0.0441  0.9940 -2.1640
 6820TIP3    H244656   3.086   3.521   7.645  0.3610 -2.1052 -0.5084
 6821TIP3   OH244657   4.745   4.221   7.451  0.7829 -0.0445  0.5093
 6821TIP3    H144658   4.772   4.248   7.539  0.2091 -0.5310  0.8407
 6821TIP3    H244659   4.726   4.128   7.459 -1.3619  0.3332  0.4019
 6822TIP3   OH244660   2.521   2.613   7.414 -0.6972  0.5509 -0.1929
 6822TIP3    H144661   2.473   2.581   7.338 -0.1846 -0.5011 -0.0883
 6822TIP3    H244662   2.610   2.581   7.401 -0.6849  0.0233  1.0233
 6823TIP3   OH244663   4.375   4.305   5.558 -0.1802 -0.0368 -0.0580
 6823TIP3    H144664   4.386   4.397   5.578  0.0240 -0.0069 -0.3018
 6823TIP3    H244665   4.287   4.284   5.589 -0.1371  0.1799  0.2118
 6824TIP3   OH244666   4.545   1.413  16.450  0.0663 -0.1361  0.3026
 6824TIP3    H144667   4.494   1.332  16.452 -0.4723  0.2040  0.7324
 6824TIP3    H244668   4.624   1.391  16.401  1.1267 -1.6371  2.5166
 6825TIP3   OH244669   3.638   3.374   5.989 -0.3352  0.2824 -0.6220
 6825TIP3    H144670   3.680   3.394   5.906 -1.6529 -1.6464 -1.8123
 6825TIP3    H244671   3.556   3.331   5.966 -2.7332  3.1985  1.5962
 6826TIP3   OH244672   3.239   3.286   6.985  0.5828 -0.3530  0.3488
 6826TIP3    H144673   3.319   3.277   6.933  0.2339  1.5964 -0.6388
 6826TIP3    H244674   3.178   3.224   6.945  0.4336  0.8697 -1.4305
 6827TIP3   OH244675   3.866   2.651   6.716  0.3837  0.3341  0.1089
 6827TIP3    H144676   3.938   2.611   6.668  0.1081  0.2013 -0.1943
 6827TIP3    H244677   3.894   2.647   6.808  1.2770  1.3333 -0.1008
 6828TIP3   OH244678   4.512   4.072   5.516 -0.3255  0.2720 -0.0760
 6828TIP3    H144679   4.485   4.161   5.537 -1.1088  0.1747 -0.5899
 6828TIP3    H244680   4.596   4.081   5.472 -0.1627  0.7141  0.3278
 6829TIP3   OH244681   3.920   5.660   7.700 -0.7073 -0.3631  0.1826
 6829TIP3    H144682   3.959   5.575   7.678  0.3083  0.5672 -1.9494
 6829TIP3    H244683   3.859   5.641   7.771  1.0324 -2.4922  1.2184
 6830TIP3   OH244684   3.121   2.650   8.998  0.2346  0.5845  0.2414
 6830TIP3    H144685   3.091   2.643   8.908 -1.0466 -2.4514  0.7490
 6830TIP3    H244686   3.060   2.709   9.040 -1.6681 -1.0460 -0.0758
 6831TIP3   OH244687   3.809   0.548   8.584  0.3694  0.2429  0.2871
 6831TIP3    H144688   3.808   0.458   8.615 -0.7949  0.4529  0.9014
 6831TIP3    H244689   3.826   0.541   8.490 -0.5463 -0.6779  0.1782
 6832TIP3   OH244690   3.957   4.574   6.706  0.1189 -0.1097  0.5631
 6832TIP3    H144691   3.900   4.615   6.641 -0.1038 -1.3457 -0.0547
 6832TIP3    H244692   3.971   4.642   6.772 -0.6127  0.7907 -0.1745
 6833TIP3   OH244693   4.218   3.527   9.002 -0.3397 -0.4829  0.6286
 6833TIP3    H144694   4.179   3.519   9.089 -2.7354 -0.0842 -0.3188
 6833TIP3    H244695   4.223   3.622   8.987 -0.3859 -0.5490  0.1794
 6834TIP3   OH244696   4.085   0.130   5.963 -0.5046  0.7860 -0.2515
 6834TIP3    H144697   4.013   0.070   5.984 -0.1437  0.3806 -0.1819
 6834TIP3    H244698   4.043   0.199   5.911 -0.8943  0.4172 -0.4299
 6835TIP3   OH244699   6.125   1.330   9.182 -0.1154  0.0821 -0.3556
 6835TIP3    H144700   6.214   1.341   9.149  1.5020 -0.1548  3.4084
 6835TIP3    H244701   6.125   1.243   9.221 -1.4249  0.6754  1.0817
 6836TIP3   OH244702   5.313   2.118   8.442  0.3455  0.4401  0.4182
 6836TIP3    H144703   5.235   2.090   8.490 -1.1157 -0.3929 -2.2599
 6836TIP3    H244704   5.374   2.146   8.511 -1.6268 -0.5118  2.7184
 6837TIP3   OH244705   0.759   0.079   7.958  0.2837 -0.0373  0.2790
 6837TIP3    H144706   0.681   0.128   7.931  1.1033  2.2103  1.6531
 6837TIP3    H244707   0.725  -0.001   7.997 -1.3342  0.6506  0.3634
 6838TIP3   OH244708   1.426   4.162   6.193 -0.5429 -0.2087  0.3533
 6838TIP3    H144709   1.456   4.153   6.102  2.0974 -0.6140  1.1838
 6838TIP3    H244710   1.402   4.073   6.219  1.4609 -0.6453  0.8719
 6839TIP3   OH244711   5.920   6.292   6.760  0.0816  0.3048  0.4438
 6839TIP3    H144712   5.897   6.360   6.697  3.3003  1.7621  0.6547
 6839TIP3    H244713   5.934   6.339   6.843 -0.0958 -0.9876  1.2374
 6840TIP3   OH244714   3.734   1.978   8.448 -0.4927 -0.7752  0.1905
 6840TIP3    H144715   3.682   1.973   8.529 -0.7092  1.1950  0.2253
 6840TIP3    H244716   3.818   1.939   8.471 -0.4162  0.1121  1.5124
 6841TIP3   OH244717   1.346   5.986   8.599 -0.1978 -0.6570 -0.4121
 6841TIP3    H144718   1.301   5.906   8.628  2.1583 -1.8369  0.2402
 6841TIP3    H244719   1.395   5.959   8.522  0.4870  0.1956 -0.2909
 6842TIP3   OH244720   6.712   6.316   8.218  0.0956  0.3909  0.2788
 6842TIP3    H144721   6.698   6.225   8.193  0.3773  0.4166  0.0150
 6842TIP3    H244722   6.694   6.318   8.312  0.8822 -0.1106  0.4543
 6843TIP3   OH244723   6.338   3.769   7.615  0.2578 -0.0406 -0.1707
 6843TIP3    H144724   6.314   3.756   7.707  2.0670  1.9620  0.6688
 6843TIP3    H244725   6.395   3.696   7.594  2.3776  1.0814  1.3560
 6844TIP3   OH244726   0.570   5.400   5.603  0.2896 -0.2347 -0.1268
 6844TIP3    H144727   0.611   5.315   5.588 -0.1770 -0.4298 -0.2921
 6844TIP3    H244728   0.628   5.462   5.559  0.9459 -0.3955  0.4776
 6845TIP3   OH244729   5.969   4.931   5.873 -0.4584 -0.5128 -0.1944
 6845TIP3    H144730   6.063   4.916   5.888 -0.2106  1.8655  1.0748
 6845TIP3    H244731   5.952   4.889   5.789  1.9271 -0.3264 -0.8471
 6846TIP3   OH244732   4.255   6.649   7.306  0.0858  0.2911 -0.4810
 6846TIP3    H144733   4.315   6.721   7.285  0.6376 -0.1157 -0.3146
 6846TIP3    H244734   4.234   6.609   7.222 -0.9300  1.1911 -0.6759
 6847TIP3   OH244735   4.965   1.155   8.414 -0.1895  0.0598 -0.2359
 6847TIP3    H144736   4.910   1.159   8.493 -0.2994 -2.4922 -0.1081
 6847TIP3    H244737   4.902   1.146   8.342 -0.0315 -1.7779 -0.1886
 6848TIP3   OH244738   1.841   4.080   8.542  0.0475 -0.3186  0.4556
 6848TIP3    H144739   1.927   4.041   8.552  0.1584  0.3360  2.7753
 6848TIP3    H244740   1.785   4.008   8.513  1.2701 -0.8432 -0.6812
 6849TIP3   OH244741   2.545   1.668   6.460 -0.2620 -0.8341 -0.2232
 6849TIP3    H144742   2.464   1.621   6.475 -0.2139 -1.0769 -0.7160
 6849TIP3    H244743   2.541   1.742   6.520 -0.8492 -0.8433 -0.2471
 6850TIP3   OH244744   1.494   6.348   5.719 -0.2217 -0.8434  0.4990
 6850TIP3    H144745   1.477   6.265   5.676  2.0578 -1.6844  1.0724
 6850TIP3    H244746   1.577   6.335   5.764 -0.1589  1.5306  1.2099
 6851TIP3   OH244747   4.157   3.848   8.509 -0.2554 -0.4618  0.1308
 6851TIP3    H144748   4.196   3.864   8.423  0.3219  0.4198  0.5456
 6851TIP3    H244749   4.231   3.835   8.568 -0.6392 -0.7470  0.5624
 6852TIP3   OH244750   6.029   5.360   6.838 -0.3079  0.0870  0.2111
 6852TIP3    H144751   6.085   5.321   6.771 -0.5160 -1.2997  0.7935
 6852TIP3    H244752   6.068   5.446   6.856  0.9177 -0.3465 -0.2554
 6853TIP3   OH244753   4.523   0.149   6.249  0.2190  0.0581 -0.7567
 6853TIP3    H144754   4.557   0.152   6.159  1.0424 -1.4472 -0.5401
 6853TIP3    H244755   4.540   0.059   6.277 -1.8392 -0.0722  0.2255
 6854TIP3   OH244756   3.025   6.368   5.560  0.4360 -0.1964  0.2239
 6854TIP3    H144757   3.080   6.291   5.546  1.4412  0.5912 -0.2705
 6854TIP3    H244758   2.936   6.333   5.569  0.7368 -1.3319 -0.9821
 6855TIP3   OH244759   5.259   4.354   7.657  0.2761  0.3128  0.1157
 6855TIP3    H144760   5.258   4.435   7.606  0.5181  1.3000  1.6267
 6855TIP3    H244761   5.350   4.343   7.683  0.1922 -0.2951  0.1646
 6856TIP3   OH244762   3.331   0.294   6.845 -0.2790 -0.3364 -0.1166
 6856TIP3    H144763   3.332   0.234   6.921 -0.2802 -1.2720 -0.8376
 6856TIP3    H244764   3.294   0.242   6.774  1.6905 -0.1785 -1.3224
 6857TIP3   OH244765   4.093   1.950   6.499 -0.2745 -0.6419  0.3339
 6857TIP3    H144766   4.152   2.021   6.523  0.3143 -0.7886 -0.6417
 6857TIP3    H244767   4.025   1.992   6.445  0.0451 -0.8004 -0.1991
 6858TIP3   OH244768   2.730   5.802   7.852 -0.0108  0.2070  0.0428
 6858TIP3    H144769   2.711   5.847   7.769  0.1438  0.9460  0.4031
 6858TIP3    H244770   2.644   5.771   7.882 -0.9788  4.1467  2.0139
 6859TIP3   OH244771   6.485   3.736   7.904 -0.1310 -0.1762 -0.5646
 6859TIP3    H144772   6.558   3.721   7.964  0.4557 -1.6937 -1.5898
 6859TIP3    H244773   6.511   3.812   7.852 -0.0044  0.2527  0.1103
 6860TIP3   OH244774   6.630   2.498   5.765 -0.1021 -0.0781  0.0463
 6860TIP3    H144775   6.594   2.500   5.677  3.2121  0.1115 -1.4517
 6860TIP3    H244776   6.569   2.444   5.815 -1.9096 -0.4773 -2.4139
 6861TIP3   OH244777   6.001   2.603   8.731 -0.3096  0.0188 -0.1814
 6861TIP3    H144778   6.077   2.571   8.779 -1.5590 -1.4147  0.9326
 6861TIP3    H244779   5.987   2.691   8.765 -0.3568 -0.4693  1.1042
 6862TIP3   OH244780   3.753   4.686   8.164  0.0131  0.5134 -0.3387
 6862TIP3    H144781   3.827   4.697   8.224  0.1688 -3.0893  0.3657
 6862TIP3    H244782   3.793   4.683   8.077  0.4517  0.4779 -0.1376
 6863TIP3   OH244783   3.200   4.308   6.110  0.2249  0.1707  0.3404
 6863TIP3    H144784   3.274   4.335   6.165  2.4729 -1.7829 -1.4736
 6863TIP3    H244785   3.202   4.213   6.113 -0.2079  0.0132 -2.2485
 6864TIP3   OH244786   2.011   0.375   7.401  0.6892 -0.1154 -0.6134
 6864TIP3    H144787   2.100   0.342   7.399 -0.2827 -3.0555  0.0887
 6864TIP3    H244788   1.964   0.325   7.334 -0.8529 -0.1381  0.4129
 6865TIP3   OH244789   2.906   0.024   5.700  0.3164  0.3853 -0.3141
 6865TIP3    H144790   2.934   0.116   5.706 -2.5106  1.3755 -0.7618
 6865TIP3    H244791   2.883   0.011   5.608 -0.6200 -0.3186 -0.0002
 6866TIP3   OH244792   5.904   2.752   8.231  0.2136 -0.2401 -0.2606
 6866TIP3    H144793   5.904   2.682   8.297 -0.0582  0.2659  0.2904
 6866TIP3    H244794   5.865   2.711   8.154  1.0769 -1.0114 -0.3068
 6867TIP3   OH244795   0.746   3.137   7.537 -0.0929 -0.1923  0.0597
 6867TIP3    H144796   0.662   3.154   7.579 -0.1254  0.1524 -0.1437
 6867TIP3    H244797   0.800   3.213   7.560  0.1155 -0.3430  0.0701
 6868TIP3   OH244798   3.266   0.647   7.344 -0.2590  0.1344  0.0378
 6868TIP3    H144799   3.359   0.645   7.320 -0.5292 -1.2328 -1.0635
 6868TIP3    H244800   3.237   0.734   7.317  1.1474  1.4690  2.4493
 6869TIP3   OH244801   5.757   3.689   5.559  0.1097 -0.2030  0.6431
 6869TIP3    H144802   5.695   3.668   5.488 -1.1832  2.9838  0.6758
 6869TIP3    H244803   5.819   3.749   5.519  0.9245 -0.4040  1.5895
 6870TIP3   OH244804   0.190   4.035   8.058 -0.0176  0.4315 -0.0298
 6870TIP3    H144805   0.102   4.066   8.038  0.0531  0.6731  0.0276
 6870TIP3    H244806   0.227   4.103   8.114  0.1168  0.2103  0.1502
 6871TIP3   OH244807   6.130   6.152   6.274  0.3524  0.0178  0.4003
 6871TIP3    H144808   6.187   6.080   6.302  0.5425 -0.2912 -0.7540
 6871TIP3    H244809   6.041   6.119   6.290  0.4149 -0.7775 -0.8063
 6872TIP3   OH244810   3.810   3.434   8.665 -0.2780 -0.1514  0.3898
 6872TIP3    H144811   3.865   3.356   8.667 -0.9177 -0.6232  0.0749
 6872TIP3    H244812   3.794   3.455   8.757 -0.6445 -0.7903  0.4784
 6873TIP3   OH244813   3.764   1.483   5.747 -0.3930  0.7904  0.5891
 6873TIP3    H144814   3.752   1.430   5.668 -2.0476 -0.4993  1.6378
 6873TIP3    H244815   3.859   1.483   5.761 -0.1893 -0.2109 -0.5659
 6874TIP3   OH244816   4.109   2.296   6.109 -0.1333  0.0374 -0.2177
 6874TIP3    H144817   4.173   2.324   6.043  0.6726 -0.5532  0.2924
 6874TIP3    H244818   4.143   2.212   6.141 -0.5882  0.2453  0.8358
 6875TIP3   OH244819   3.848   5.372   8.849 -0.1276 -0.0260 -0.0010
 6875TIP3    H144820   3.876   5.363   8.940  0.3904 -1.3667 -0.2614
 6875TIP3    H244821   3.874   5.460   8.824  1.7857 -0.4195  0.4754
 6876TIP3   OH244822   6.382   1.198   5.692  0.2169  0.2508 -0.0697
 6876TIP3    H144823   6.400   1.292   5.695 -0.2084  0.3097  1.3180
 6876TIP3    H244824   6.392   1.175   5.600  2.3047  1.2477 -0.1580
 6877TIP3   OH244825   2.352   0.237   5.929 -0.3999 -0.4125 -0.4807
 6877TIP3    H144826   2.270   0.221   5.881 -1.3100  0.6103  0.6933
 6877TIP3    H244827   2.361   0.160   5.986 -1.6360  0.3728  0.8406
 6878TIP3   OH244828   0.845   5.753   7.853 -0.0964  0.2212  0.0072
 6878TIP3    H144829   0.874   5.803   7.929  0.7632 -0.3790  0.0897
 6878TIP3    H244830   0.891   5.792   7.779 -1.3111  1.1295 -0.3057
 6879TIP3   OH244831   1.715   5.428   9.082  0.8508 -0.4575  0.1563
 6879TIP3    H144832   1.805   5.451   9.060  0.6060  1.4979  1.0310
 6879TIP3    H244833   1.695   5.478   9.161 -1.3314 -0.0257 -0.5933
 6880TIP3   OH244834   4.817   0.239   8.840  0.0510 -0.0124 -0.5580
 6880TIP3    H144835   4.800   0.294   8.917  0.8529  0.9952 -1.0871
 6880TIP3    H244836   4.767   0.159   8.857 -1.9653  1.2490 -0.2205
 6881TIP3   OH244837   4.042   5.424   5.672 -0.0310 -0.2852 -0.4409
 6881TIP3    H144838   3.957   5.380   5.677  1.3953 -3.4187 -1.2654
 6881TIP3    H244839   4.032   5.487   5.601 -2.1733  0.8242  0.7414
 6882TIP3   OH244840   1.005   1.072   7.364 -0.4554 -0.2229 -0.2590
 6882TIP3    H144841   1.020   1.123   7.444 -2.9923  0.5333 -0.1649
 6882TIP3    H244842   1.090   1.072   7.319  1.0614 -0.6934  2.3971
 6883TIP3   OH244843   2.769   5.449   7.163  0.5500  0.1680  0.1752
 6883TIP3    H144844   2.694   5.448   7.222  0.6784  0.6032  0.3483
 6883TIP3    H244845   2.742   5.395   7.089  0.4392 -0.5144  0.6970
 6884TIP3   OH244846   3.947   4.303   6.720 -0.0251 -0.1528 -0.1751
 6884TIP3    H144847   3.969   4.396   6.714 -1.1614  0.0852 -0.9127
 6884TIP3    H244848   3.956   4.282   6.813  2.4093  0.1208 -0.2703
 6885TIP3   OH244849   5.933   2.115   6.509 -0.2057 -0.1774  0.1572
 6885TIP3    H144850   5.857   2.104   6.565 -0.2080  1.2831  0.4722
 6885TIP3    H244851   5.973   2.028   6.505 -1.9040 -0.9769 -0.0732
 6886TIP3   OH244852   2.860   0.465   5.682  0.6403 -0.6128  0.1230
 6886TIP3    H144853   2.774   0.434   5.709  0.1525  1.6051  1.3273
 6886TIP3    H244854   2.867   0.553   5.719  3.4505 -0.7363  0.0898
 6887TIP3   OH244855   3.632   1.067   6.124 -0.0114  0.0764 -0.0521
 6887TIP3    H144856   3.623   1.012   6.046 -0.9742 -1.7154  1.2404
 6887TIP3    H244857   3.547   1.110   6.132  0.3533  0.8699 -0.4229
 6888TIP3   OH244858   2.526   4.792   5.626 -0.4010 -0.0463  0.5724
 6888TIP3    H144859   2.569   4.740   5.692 -0.0489 -0.4686  0.0184
 6888TIP3    H244860   2.493   4.728   5.562 -0.8342  0.3425  0.3944
 6889TIP3   OH244861   4.241   0.146   6.190  0.1829  0.0767 -0.4494
 6889TIP3    H144862   4.200   0.085   6.129  0.9967  1.2333 -2.2427
 6889TIP3    H244863   4.333   0.118   6.194  0.6054  1.2620 -1.4368
 6890TIP3   OH244864   1.062   4.669   7.584  0.6683  0.7131 -0.2706
 6890TIP3    H144865   1.104   4.688   7.500  0.4950  0.3420 -0.4442
 6890TIP3    H244866   1.034   4.578   7.576  0.4100  0.7607  0.0892
 6891TIP3   OH244867   3.484   4.958   7.912  0.0744 -0.0470 -0.1373
 6891TIP3    H144868   3.552   5.026   7.915 -0.5514  0.7807 -2.4926
 6891TIP3    H244869   3.530   4.880   7.881  0.6435 -0.5340  1.8356
 6892TIP3   OH244870   0.433   4.525   7.836  0.3366  0.1870 -0.5282
 6892TIP3    H144871   0.438   4.463   7.763  0.0917  0.9288 -1.2014
 6892TIP3    H244872   0.467   4.607   7.799  1.4395  0.2461  0.5871
 6893TIP3   OH244873   3.721   4.310   7.449  0.0084  0.2603  0.0732
 6893TIP3    H144874   3.770   4.342   7.374 -0.4164  1.1087  0.1471
 6893TIP3    H244875   3.641   4.273   7.412  0.0431  0.1920  0.0665
 6894TIP3   OH244876   1.213   2.617   7.723 -0.2483 -0.6799 -0.2061
 6894TIP3    H144877   1.220   2.710   7.744  0.4531 -0.5498 -0.9333
 6894TIP3    H244878   1.124   2.607   7.689 -0.5979 -0.4432  0.6049
 6895TIP3   OH244879   4.353   3.776   6.630 -0.0550 -0.8976  0.0559
 6895TIP3    H144880   4.301   3.743   6.557  0.9289 -1.2601 -0.4860
 6895TIP3    H244881   4.353   3.704   6.694  0.8938 -1.4337 -0.5213
 6896TIP3   OH244882   1.942   4.382   5.323 -0.1030  0.0844  0.6348
 6896TIP3    H144883   1.953   4.288   5.334  2.7652  0.4556  1.7213
 6896TIP3    H244884   1.854   4.400   5.357 -0.5293 -2.1046  0.8429
 6897TIP3   OH244885   1.980   2.327   7.025 -0.0944  0.0381 -0.3688
 6897TIP3    H144886   2.031   2.321   6.944 -0.9684  2.5122 -1.1891
 6897TIP3    H244887   2.045   2.324   7.095  1.5513  4.3211 -1.4061
 6898TIP3   OH244888   6.124   6.495   8.431  0.0015 -0.0223 -0.0834
 6898TIP3    H144889   6.188   6.523   8.366 -0.5702 -3.5843 -2.3922
 6898TIP3    H244890   6.175   6.486   8.512  1.6414  0.5556 -1.0046
 6899TIP3   OH244891   3.084   2.668   7.854 -0.3927  0.3721 -0.1838
 6899TIP3    H144892   3.065   2.595   7.796  1.7914 -0.0541 -0.4513
 6899TIP3    H244893   3.156   2.714   7.811  0.7967  0.4636  1.7935
 6900TIP3   OH244894   3.034   4.695   8.392  0.5928  0.1471  0.2340
 6900TIP3    H144895   3.075   4.778   8.413  0.5544  0.3033 -0.3079
 6900TIP3    H244896   3.101   4.646   8.344  0.2722  0.2602 -0.3330
 6901TIP3   OH244897   2.858   6.376   5.901 -0.8074  0.4389  0.1730
 6901TIP3    H144898   2.879   6.464   5.933  0.0421  0.1378  0.4784
 6901TIP3    H244899   2.937   6.347   5.855 -0.5374 -0.6996  1.2799
 6902TIP3   OH244900   1.097   1.571   7.155  0.2270 -0.4799 -0.5529
 6902TIP3    H144901   1.057   1.494   7.196  0.3015 -1.1138 -1.6466
 6902TIP3    H244902   1.036   1.642   7.174 -0.6109 -1.1145 -0.8022
 6903TIP3   OH244903   0.879   0.630   7.816  0.1307 -0.2385  0.4825
 6903TIP3    H144904   0.946   0.567   7.843 -0.4801 -0.5295  1.3685
 6903TIP3    H244905   0.804   0.611   7.872 -0.2640  0.9069  0.3762
 6904TIP3   OH244906   2.099   2.281   7.857  0.1037 -0.0046 -0.1481
 6904TIP3    H144907   2.013   2.259   7.891  1.3099 -2.7928  1.3859
 6904TIP3    H244908   2.120   2.210   7.796  1.0666  0.9946 -1.0332
 6905TIP3   OH244909   1.839   0.767   5.943 -0.4202 -0.2216  0.0088
 6905TIP3    H144910   1.855   0.822   5.866  0.0830 -0.1069  0.1917
 6905TIP3    H244911   1.836   0.678   5.908  0.1106 -0.1979 -0.1034
 6906TIP3   OH244912   4.489   1.788   5.642 -0.0436  0.8382  0.1237
 6906TIP3    H144913   4.400   1.755   5.651 -0.2741  0.8509 -1.6925
 6906TIP3    H244914   4.545   1.712   5.655 -0.3453  0.7054  0.6572
 6907TIP3   OH244915   5.465   2.779   7.629 -0.4194 -0.8123  0.0283
 6907TIP3    H144916   5.427   2.773   7.541  3.2474 -1.7906 -1.6921
 6907TIP3    H244917   5.496   2.690   7.647  2.1527  0.1272  0.6256
 6908TIP3   OH244918   2.831   1.229   6.816 -0.2593 -0.1956 -0.6737
 6908TIP3    H144919   2.745   1.214   6.854  0.0078  0.5896  0.2886
 6908TIP3    H244920   2.814   1.245   6.723 -1.2824  1.0315 -0.3024
 6909TIP3   OH244921   5.210   4.035   6.346 -0.0214 -0.1817  0.4945
 6909TIP3    H144922   5.120   4.023   6.315  0.0500 -0.8978  0.5429
 6909TIP3    H244923   5.202   4.043   6.441 -0.3975  3.5160  0.2929
 6910TIP3   OH244924   1.823   1.426   7.016  0.2594  0.1635 -0.3714
 6910TIP3    H144925   1.738   1.397   7.048  0.2961  0.2658 -0.1803
 6910TIP3    H244926   1.803   1.498   6.956  0.2054  0.1158 -0.4112
 6911TIP3   OH244927   6.519   6.051   7.379 -0.5921 -0.4475 -0.2213
 6911TIP3    H144928   6.611   6.076   7.387 -0.6138 -0.2660 -0.4865
 6911TIP3    H244929   6.473   6.133   7.360 -0.3510 -0.9100 -3.5506
 6912TIP3   OH244930   2.183   2.404   7.245  0.5834  0.0118  1.0070
 6912TIP3    H144931   2.213   2.435   7.159  0.7888 -1.1666  0.6392
 6912TIP3    H244932   2.174   2.484   7.297 -0.8608  0.9044 -0.5005
 6913TIP3   OH244933   2.338   2.791   8.650  0.0714  0.3597  0.6354
 6913TIP3    H144934   2.268   2.788   8.715  0.2508  0.2432  0.8235
 6913TIP3    H244935   2.395   2.717   8.672 -1.3184 -1.4119 -1.2792
 6914TIP3   OH244936   1.492   5.693   7.239  0.6344 -0.0034  0.4016
 6914TIP3    H144937   1.565   5.645   7.280 -1.0482 -1.9313  1.3029
 6914TIP3    H244938   1.449   5.629   7.184 -0.5619  1.0185  0.1104
 6915TIP3   OH244939   2.218   3.995   6.058 -0.4192 -0.1903 -0.3768
 6915TIP3    H144940   2.300   4.012   6.104 -0.7379  0.3831 -0.0116
 6915TIP3    H244941   2.196   4.079   6.018 -1.7666  0.1849  1.0475
 6916TIP3   OH244942   4.137   1.831   7.524  0.6030 -0.5857  0.5437
 6916TIP3    H144943   4.144   1.772   7.449  0.8832  0.0763  0.0437
 6916TIP3    H244944   4.055   1.879   7.510  1.6900  1.0737 -0.4937
 6917TIP3   OH244945   0.642   2.517   7.849 -0.5349 -0.3248 -0.0087
 6917TIP3    H144946   0.644   2.481   7.937  0.6078  0.1442  0.1694
 6917TIP3    H244947   0.554   2.554   7.840  0.0463  1.7165  1.8102
 6918TIP3   OH244948   3.654   1.421   6.785 -0.0511 -0.4461 -0.2986
 6918TIP3    H144949   3.662   1.437   6.691 -1.6413  0.6957 -0.2819
 6918TIP3    H244950   3.729   1.367   6.807  0.1322 -1.0728 -2.3079
 6919TIP3   OH244951   4.010   2.683   6.319  0.7069  0.6157 -0.6215
 6919TIP3    H144952   3.974   2.619   6.257  0.5527  2.9476 -3.1569
 6919TIP3    H244953   3.937   2.704   6.377  0.5180 -0.8620 -0.3096
 6920TIP3   OH244954   4.909   1.560   8.176 -0.1474  0.9370 -0.5814
 6920TIP3    H144955   4.832   1.504   8.186 -0.6917  1.3359 -2.2413
 6920TIP3    H244956   4.983   1.500   8.184 -0.7092  0.0208 -1.7968
 6921TIP3   OH244957   3.446   1.179   7.709  0.0335  0.1014 -0.3720
 6921TIP3    H144958   3.411   1.250   7.655  1.8791  1.0194 -0.4163
 6921TIP3    H244959   3.390   1.104   7.689 -2.6369  1.7212  0.3960
 6922TIP3   OH244960   0.648   5.667   5.459 -0.6421 -0.0469  0.1089
 6922TIP3    H144961   0.729   5.616   5.465 -0.5442  0.2480  1.8419
 6922TIP3    H244962   0.678   5.758   5.457 -0.8937  0.0311 -0.9838
 6923TIP3   OH244963   3.567   5.858   9.230  0.1707 -0.6817 -0.5806
 6923TIP3    H144964   3.561   5.918   9.304 -1.8439 -0.9871 -0.4626
 6923TIP3    H244965   3.613   5.782   9.264 -0.7766 -0.8346  0.3893
 6924TIP3   OH244966   2.231   3.708   6.597  0.9069  0.5094 -0.2855
 6924TIP3    H144967   2.269   3.625   6.568  0.7298 -0.1294  1.1879
 6924TIP3    H244968   2.223   3.760   6.518  0.1280 -1.2325 -1.4176
 6925TIP3   OH244969   2.762   1.253   7.301 -0.1249  0.6303  0.2783
 6925TIP3    H144970   2.827   1.323   7.301  0.6980 -0.0955  1.6346
 6925TIP3    H244971   2.797   1.188   7.240  0.9010 -0.1416  1.6352
 6926TIP3   OH244972   6.459   6.061   6.143  0.1786 -0.2553  0.0424
 6926TIP3    H144973   6.505   6.000   6.085 -1.0468  1.3375 -2.8214
 6926TIP3    H244974   6.377   6.017   6.165 -1.0190  0.4371 -2.5724
 6927TIP3   OH244975   4.104   6.619   7.997 -0.4157 -0.1135  0.1466
 6927TIP3    H144976   4.124   6.566   7.920  1.5802  0.5069  0.1717
 6927TIP3    H244977   4.025   6.667   7.974  0.1503  0.0753 -1.5493
 6928TIP3   OH244978   5.245   1.932   8.820  0.2183 -0.5952  0.3196
 6928TIP3    H144979   5.280   1.852   8.781  1.6674 -0.2359  0.8452
 6928TIP3    H244980   5.206   1.979   8.746  0.6923 -1.0867 -0.2546
 6929TIP3   OH244981   3.894   2.083   8.045  0.4034  0.1342  0.5567
 6929TIP3    H144982   3.973   2.072   8.097  1.9510  0.5313 -1.5705
 6929TIP3    H244983   3.920   2.060   7.956 -2.1859 -0.7950 -0.0568
 6930TIP3   OH244984   6.534   0.220   7.527  0.2064  0.4722  0.2744
 6930TIP3    H144985   6.489   0.270   7.460 -1.7016 -0.1725  0.9971
 6930TIP3    H244986   6.475   0.147   7.546  1.5515 -0.4015  1.3365
 6931TIP3   OH244987   3.331   0.958   8.257  0.1413 -0.3116  0.4246
 6931TIP3    H144988   3.310   0.878   8.304  0.0076 -0.8852 -0.5886
 6931TIP3    H244989   3.270   1.023   8.292  1.3308 -0.1962  2.4348
 6932TIP3   OH244990   2.508   4.831   7.989 -0.0845 -0.7033 -0.0030
 6932TIP3    H144991   2.558   4.807   8.067  0.8979 -1.9796 -0.9880
 6932TIP3    H244992   2.426   4.866   8.024  0.3369 -1.2021  1.6073
 6933TIP3   OH244993   3.803   3.334   6.405  0.3581 -0.7264 -0.2072
 6933TIP3    H144994   3.834   3.417   6.369 -0.2163  0.1800  1.2820
 6933TIP3    H244995   3.826   3.268   6.339 -1.5228  0.9375 -2.6914
 6934TIP3   OH244996   1.541   0.273   6.222  0.2640 -0.3110  0.0400
 6934TIP3    H144997   1.509   0.333   6.155 -0.8892  0.1596  0.9861
 6934TIP3    H244998   1.551   0.189   6.175 -2.3847 -0.5114 -0.3710
 6935TIP3   OH244999   6.629   4.808   6.365  0.3670 -0.2960  0.6145
 6935TIP3    H145000   6.580   4.792   6.285  0.8303  0.0903  0.2475
 6935TIP3    H245001   6.676   4.890   6.348  0.7456 -0.4014  1.1461
 6936TIP3   OH245002   5.324   0.319   8.290 -0.1549 -0.3897 -0.4279
 6936TIP3    H145003   5.289   0.408   8.284 -1.5051 -0.7985  0.8516
 6936TIP3    H245004   5.386   0.323   8.363  1.4106 -0.0427 -1.7083
 6937TIP3   OH245005   2.065   2.176   7.316 -0.3666  0.1980  0.1389
 6937TIP3    H145006   2.122   2.250   7.299  0.5930 -0.0369  2.0594
 6937TIP3    H245007   2.112   2.101   7.280  2.5288 -0.5770  4.7376
 6938TIP3   OH245008   6.544   0.205   7.005  0.7125  0.7249  0.5519
 6938TIP3    H145009   6.595   0.147   6.949  0.0295  1.0742 -0.4504
 6938TIP3    H245010   6.606   0.273   7.032  1.2269  0.1522  0.8185
 6939TIP3   OH245011   2.332   4.374   5.660 -0.0509  0.1485 -0.0290
 6939TIP3    H145012   2.372   4.319   5.728 -2.3602 -1.1407  0.4009
 6939TIP3    H245013   2.322   4.315   5.585 -0.5512  0.5827 -0.3119
 6940TIP3   OH245014   1.542   0.430   7.991 -0.5699  0.0525 -0.3962
 6940TIP3    H145015   1.528   0.524   8.002 -0.9488  0.0298 -0.6561
 6940TIP3    H245016   1.584   0.422   7.905  0.8049  0.0951  0.2525
 6941TIP3   OH245017   5.896   6.642   6.604  0.0390  0.1523 -0.4822
 6941TIP3    H145018   5.971   6.701   6.594  0.0028  0.1663 -0.6768
 6941TIP3    H245019   5.878   6.611   6.516 -0.1602  0.1180 -0.4305
 6942TIP3   OH245020   5.077   3.772   5.550 -0.3604 -0.2805  0.3598
 6942TIP3    H145021   5.071   3.711   5.623 -1.6657 -1.1024 -0.3831
 6942TIP3    H245022   5.157   3.822   5.566 -0.6058 -0.4548  2.3176
 6943TIP3   OH245023   1.101   3.948   7.428  0.5771 -0.0410  0.8013
 6943TIP3    H145024   1.119   4.042   7.435  1.8554 -0.2958  1.1160
 6943TIP3    H245025   1.032   3.932   7.492  0.5053  0.6492  0.8984
 6944TIP3   OH245026   0.006   0.650   7.391  0.4191 -0.2095 -0.6724
 6944TIP3    H145027   0.100   0.649   7.373  0.2903  1.6659 -1.7638
 6944TIP3    H245028  -0.001   0.645   7.486  1.4700 -2.8580 -0.6378
 6945TIP3   OH245029   1.095   3.001   8.093 -0.3029  1.1529  0.0871
 6945TIP3    H145030   1.119   2.956   8.174  0.3699  1.9515  0.3454
 6945TIP3    H245031   1.129   3.090   8.104 -1.2612  1.6234 -0.5726
 6946TIP3   OH245032   6.356   2.510   5.655  0.2583 -0.3429  0.0666
 6946TIP3    H145033   6.280   2.514   5.597  1.3583  0.2749 -1.4023
 6946TIP3    H245034   6.380   2.602   5.670 -0.3612 -0.4498  2.0647
 6947TIP3   OH245035   1.032   0.334   8.644 -0.4240 -0.1044  0.4152
 6947TIP3    H145036   1.121   0.303   8.660 -0.7779 -2.0532 -1.0011
 6947TIP3    H245037   1.042   0.397   8.572 -0.4344 -3.3647 -2.7730
 6948TIP3   OH245038   6.563   0.264   9.118 -0.6000 -0.0328 -0.2919
 6948TIP3    H145039   6.555   0.315   9.198 -0.6698 -0.4502 -0.0272
 6948TIP3    H245040   6.657   0.253   9.105 -0.5319 -2.8200  1.6142
 6949TIP3   OH245041   3.677   3.429   5.546 -0.3298  0.5102  0.2111
 6949TIP3    H145042   3.733   3.425   5.624  0.9059 -0.8021 -0.6975
 6949TIP3    H245043   3.589   3.410   5.579 -0.2937  2.4693  1.6501
 6950TIP3   OH245044   2.262   5.182   8.374  0.2145 -0.3430 -0.1190
 6950TIP3    H145045   2.272   5.241   8.450 -0.7414  0.6126 -0.7068
 6950TIP3    H245046   2.345   5.133   8.371  0.8559  0.6433  0.6708
 6951TIP3   OH245047   4.754   1.101   6.725  0.1978  0.0812  0.1531
 6951TIP3    H145048   4.811   1.026   6.706 -2.1373 -1.2486 -2.5668
 6951TIP3    H245049   4.675   1.061   6.762 -0.7393  1.2477 -0.5111
 6952TIP3   OH245050   1.611   6.096   5.930 -0.6661 -0.5519 -0.0166
 6952TIP3    H145051   1.645   6.140   5.852 -2.4786 -0.5332 -0.8320
 6952TIP3    H245052   1.606   6.164   5.997 -0.6592 -0.1933 -0.3803
 6953TIP3   OH245053   0.300   2.043   6.985  0.2381  0.0949 -0.0381
 6953TIP3    H145054   0.299   1.957   6.944  0.9654 -0.8543  1.7784
 6953TIP3    H245055   0.373   2.088   6.943 -0.4711  0.0507 -1.3719
 6954TIP3   OH245056   5.857   5.706   6.304 -0.3270  0.2437  0.4699
 6954TIP3    H145057   5.869   5.613   6.321 -0.6261 -0.0823 -1.0006
 6954TIP3    H245058   5.764   5.715   6.282 -0.3193  0.9095  0.6660
 6955TIP3   OH245059   2.866   1.459   8.326  0.0894  0.0291  0.1865
 6955TIP3    H145060   2.871   1.392   8.393  1.4282 -1.0447 -0.9188
 6955TIP3    H245061   2.773   1.469   8.308 -0.1462 -1.4937  0.4416
 6956TIP3   OH245062   1.775   1.411   7.765  0.0703 -0.2881  0.5519
 6956TIP3    H145063   1.682   1.394   7.783 -1.4746  2.7326 -3.2072
 6956TIP3    H245064   1.810   1.442   7.849 -1.9398 -2.4834  2.3623
 6957TIP3   OH245065   1.071   3.077   7.176 -0.5566  0.2792 -0.0513
 6957TIP3    H145066   1.078   3.088   7.081  1.5405 -0.1535 -0.0029
 6957TIP3    H245067   1.099   3.162   7.212  1.6604 -0.4594  0.1514
 6958TIP3   OH245068   4.961   4.719   6.847  0.6920  0.2486  0.3584
 6958TIP3    H145069   4.876   4.758   6.827  1.0109  0.7930  0.0490
 6958TIP3    H245070   4.940   4.630   6.878 -0.1584  1.0688  2.3500
 6959TIP3   OH245071   3.361   1.416   7.454  0.1920  0.1644 -0.1711
 6959TIP3    H145072   3.322   1.487   7.402 -0.8505 -0.8191 -0.7604
 6959TIP3    H245073   3.359   1.340   7.397  0.9439 -0.4522  0.5982
 6960TIP3   OH245074   4.628   6.065   7.407  0.0029 -0.3367  0.1289
 6960TIP3    H145075   4.638   6.019   7.323 -2.8839  0.0402 -0.5228
 6960TIP3    H245076   4.621   5.995   7.472 -1.0902 -0.7654 -0.4263
 6961TIP3   OH245077   3.592   3.696   6.731  0.5532  0.1019  0.5424
 6961TIP3    H145078   3.567   3.740   6.650 -0.1705  1.9494  1.6983
 6961TIP3    H245079   3.649   3.624   6.703 -0.9257 -0.2974 -1.6909
 6962TIP3   OH245080   2.235   4.483   7.727  0.0879  0.4611  0.6875
 6962TIP3    H145081   2.307   4.545   7.712  0.9242 -0.9301 -1.3571
 6962TIP3    H245082   2.192   4.474   7.642 -1.0197 -0.5736  1.3195
 6963TIP3   OH245083   5.357   3.288   7.700 -0.0423 -0.2338  0.3963
 6963TIP3    H145084   5.408   3.239   7.764  1.4617  2.5519  1.5161
 6963TIP3    H245085   5.287   3.328   7.752 -0.8488 -0.6289 -0.3670
 6964TIP3   OH245086   3.536   1.535   7.648  0.0179 -0.0253  0.1819
 6964TIP3    H145087   3.499   1.492   7.570 -1.1639  0.8775  0.2098
 6964TIP3    H245088   3.459   1.558   7.701  0.7745 -0.1564  1.3816
 6965TIP3   OH245089   0.284   0.140   5.596  0.2941  0.0598 -0.9854
 6965TIP3    H145090   0.220   0.143   5.667 -0.3165 -0.6186 -1.4884
 6965TIP3    H245091   0.353   0.201   5.623 -0.9344  1.4285 -0.7985
 6966TIP3   OH245092   4.366   6.106   6.994  0.5790 -0.0259 -0.0440
 6966TIP3    H145093   4.339   6.130   6.906  0.4780  2.0417  0.5039
 6966TIP3    H245094   4.290   6.126   7.049  1.0164 -0.2383  0.6509
 6967TIP3   OH245095   4.750   6.147   5.908 -0.3828  0.1413 -0.1003
 6967TIP3    H145096   4.758   6.095   5.987 -0.3180  1.3601  0.7158
 6967TIP3    H245097   4.656   6.165   5.900 -0.4974 -0.6629 -0.7773
 6968TIP3   OH245098   3.665   4.395   8.142  0.7500 -0.6455 -0.0560
 6968TIP3    H145099   3.708   4.335   8.081 -0.9403  0.3340 -2.3275
 6968TIP3    H245100   3.716   4.476   8.136 -0.1219 -0.1605 -1.1383
 6969TIP3   OH245101   5.867   4.471   9.114 -0.2467 -0.2666  0.0158
 6969TIP3    H145102   5.865   4.403   9.047  0.2667 -0.8825  0.6122
 6969TIP3    H245103   5.961   4.486   9.130 -0.3690 -0.7104  1.1775
 6970TIP3   OH245104   5.132   1.382   8.525  0.0643 -0.4142 -0.0311
 6970TIP3    H145105   5.182   1.371   8.606  0.4888 -1.3594 -0.4061
 6970TIP3    H245106   5.175   1.454   8.479 -0.7289  0.7371  0.9800
 6971TIP3   OH245107   4.003   3.815   6.067  0.1469 -0.7708  0.0937
 6971TIP3    H145108   4.006   3.871   6.145 -3.9040  0.1632 -0.2002
 6971TIP3    H245109   3.990   3.876   5.995  1.7059 -1.7909 -1.1242
 6972TIP3   OH245110   0.758   1.573   8.229  0.0171  0.4281  0.7360
 6972TIP3    H145111   0.780   1.563   8.322  1.1707  1.4156  0.5938
 6972TIP3    H245112   0.837   1.610   8.190 -0.4133 -0.0929 -0.6716
 6973TIP3   OH245113   3.825   5.354   6.405  0.1491 -0.2053  0.1707
 6973TIP3    H145114   3.859   5.340   6.493 -1.1721  1.2494  0.9794
 6973TIP3    H245115   3.805   5.448   6.402  0.5475 -0.1366 -1.8389
 6974TIP3   OH245116   3.767   1.156   6.550 -0.6860 -0.0021 -0.2088
 6974TIP3    H145117   3.809   1.184   6.631  0.6288 -0.9862 -0.5160
 6974TIP3    H245118   3.777   1.231   6.491  0.2007 -0.0384 -0.1151
 6975TIP3   OH245119   2.524   5.039   7.797 -0.0339 -0.0048 -0.3353
 6975TIP3    H145120   2.524   5.021   7.703  1.7819 -0.4109 -0.2869
 6975TIP3    H245121   2.475   4.966   7.835  1.6151 -1.3875 -0.7410
 6976TIP3   OH245122   4.741   0.645   6.773 -0.3546  0.0343 -0.9343
 6976TIP3    H145123   4.660   0.648   6.722 -0.6522  0.5072 -0.4450
 6976TIP3    H245124   4.753   0.553   6.795  0.8400 -0.5055 -3.5349
 6977TIP3   OH245125   0.187   6.582   8.331 -0.4365 -0.2825  0.0859
 6977TIP3    H145126   0.154   6.500   8.295  0.3515 -0.4027 -0.3932
 6977TIP3    H245127   0.271   6.559   8.370  0.9402  0.6552 -2.0828
 6978TIP3   OH245128   0.542   6.058   8.837 -0.0808  0.0206 -0.5306
 6978TIP3    H145129   0.575   6.049   8.926  0.6958 -1.4229 -0.9351
 6978TIP3    H245130   0.620   6.066   8.783 -0.5533  1.2403 -1.0747
 6979TIP3   OH245131   1.062   4.726   8.695  0.2352  0.8638 -0.3538
 6979TIP3    H145132   1.093   4.816   8.707  1.9767  0.3200 -0.6509
 6979TIP3    H245133   1.141   4.673   8.692 -0.7568 -1.0829  2.7547
 6980TIP3   OH245134   0.412   3.843   6.408 -0.1072  0.0120  0.0692
 6980TIP3    H145135   0.436   3.754   6.383  0.5786 -0.1495  1.2048
 6980TIP3    H245136   0.379   3.834   6.498 -3.4740  0.3858 -0.9992
 6981TIP3   OH245137   2.837   4.280   7.972  0.0573  0.3020 -0.3054
 6981TIP3    H145138   2.830   4.373   7.995 -1.8572 -0.1305  1.1154
 6981TIP3    H245139   2.873   4.238   8.050 -1.1036 -0.4001 -0.1084
 6982TIP3   OH245140   5.860   4.226   8.153 -0.0515  0.2953  0.5941
 6982TIP3    H145141   5.886   4.193   8.239 -1.9634 -0.1915  1.0351
 6982TIP3    H245142   5.782   4.279   8.170 -1.8880 -1.6945 -1.0504
 6983TIP3   OH245143   5.981   5.830   6.081  0.8491 -0.2852 -0.6736
 6983TIP3    H145144   5.899   5.822   6.032 -0.0817  3.4823 -0.0127
 6983TIP3    H245145   5.962   5.790   6.166 -0.6994  1.3207 -0.2080
 6984TIP3   OH245146   0.778   0.123   6.617  0.5807 -0.3333  0.3357
 6984TIP3    H145147   0.745   0.074   6.692  0.6536 -1.0486 -0.0767
 6984TIP3    H245148   0.745   0.074   6.541 -0.2738  0.8934 -0.1124
 6985TIP3   OH245149   3.953   5.350   8.205  0.5380 -0.1112  0.0620
 6985TIP3    H145150   3.991   5.263   8.192  0.2915  0.0149 -1.7965
 6985TIP3    H245151   3.905   5.343   8.288  2.2087 -1.1013  1.0035
 6986TIP3   OH245152   0.341   2.366   7.204 -0.1735 -0.0277 -0.3207
 6986TIP3    H145153   0.327   2.461   7.205  4.3662  0.8527  0.3117
 6986TIP3    H245154   0.322   2.341   7.113  0.6744  1.9260 -1.0996
 6987TIP3   OH245155   1.847   0.163   7.261  0.3758 -0.0419 -0.3457
 6987TIP3    H145156   1.753   0.174   7.277  0.4903  0.5333 -0.0220
 6987TIP3    H245157   1.876   0.101   7.329  0.7743  2.0508  1.5073
 6988TIP3   OH245158   0.971   6.510   6.989  0.3210 -0.3894 -0.1511
 6988TIP3    H145159   0.877   6.529   6.987  0.6766  1.4496 -0.5825
 6988TIP3    H245160   0.994   6.515   7.082  0.2919  0.7874 -0.1979
 6989TIP3   OH245161   6.681   3.723   6.892 -0.7729  0.2679 -0.0500
 6989TIP3    H145162   6.649   3.746   6.979  0.9513 -0.5861  0.8468
 6989TIP3    H245163   6.618   3.763   6.832 -1.5198  1.5911  1.5551
 6990TIP3   OH245164   1.664   4.373   6.218  0.4181  0.1051 -0.5809
 6990TIP3    H145165   1.652   4.279   6.233 -0.1954  0.5068  1.9579
 6990TIP3    H245166   1.581   4.412   6.244  1.1892  1.4761 -0.0990
 6991TIP3   OH245167   4.089   1.750   7.252 -0.0980 -0.0020 -0.2101
 6991TIP3    H145168   4.017   1.706   7.296  0.0149 -1.2283 -1.1917
 6991TIP3    H245169   4.057   1.839   7.236 -1.0278 -0.2508  0.2077
 6992TIP3   OH245170   4.142   6.173   7.120  0.2273  0.2589 -0.1246
 6992TIP3    H145171   4.086   6.225   7.063  2.9048  2.1825 -1.2226
 6992TIP3    H245172   4.109   6.190   7.209 -0.9767  1.2067 -0.7283
 6993TIP3   OH245173   2.789   4.172   6.257 -0.7624 -0.2169 -0.5262
 6993TIP3    H145174   2.853   4.192   6.325 -1.8234 -1.8613  1.0536
 6993TIP3    H245175   2.724   4.117   6.301 -1.5012 -1.3397 -2.8717
 6994TIP3   OH245176   4.669   0.478   5.765  0.1856  0.0008  0.4070
 6994TIP3    H145177   4.718   0.396   5.758 -1.0026 -0.6459 -0.9356
 6994TIP3    H245178   4.607   0.464   5.836 -0.1468 -0.3646  0.0527
 6995TIP3   OH245179   3.621   3.765   5.546  0.2370  0.0905  0.4805
 6995TIP3    H145180   3.684   3.724   5.604  0.5471  0.6859  0.5616
 6995TIP3    H245181   3.543   3.709   5.552  0.2566  0.1578  1.4741
 6996TIP3   OH245182   3.007   1.201   6.105 -0.1951 -0.1862  0.3425
 6996TIP3    H145183   2.993   1.283   6.152  0.5210 -0.3802  0.9162
 6996TIP3    H245184   3.083   1.162   6.148 -0.5413 -1.1589  0.0920
 6997TIP3   OH245185   0.859   5.484   5.571 -0.1557 -0.8965 -0.4624
 6997TIP3    H145186   0.945   5.473   5.530 -0.9688 -1.5500 -2.1028
 6997TIP3    H245187   0.876   5.478   5.665  1.8419  0.9498 -0.6297
 6998TIP3   OH245188   1.855   3.809   6.542 -0.2317  0.4184  0.1222
 6998TIP3    H145189   1.885   3.718   6.546  0.2935  0.5776 -0.0578
 6998TIP3    H245190   1.879   3.838   6.454  1.4445  1.3366  0.8283
 6999TIP3   OH245191   1.869   1.044   7.434  0.7248  0.8367  0.1961
 6999TIP3    H145192   1.817   1.042   7.354  0.2088  4.3028  0.3162
 6999TIP3    H245193   1.929   1.117   7.422  1.8661  0.3204  2.2745
 7000TIP3   OH245194   3.166   4.598   6.613 -0.3748  0.4960  0.2036
 7000TIP3    H145195   3.079   4.638   6.619 -0.8492 -0.5081  0.2656
 7000TIP3    H245196   3.221   4.651   6.671 -0.3947  2.4795 -1.4801
 7001TIP3   OH245197   6.632   6.204   6.584 -0.3199 -0.1690  0.4806
 7001TIP3    H145198   6.687   6.161   6.650 -0.9631 -0.3539  0.9111
 7001TIP3    H245199   6.600   6.132   6.530 -0.2678 -0.0790  0.3315
 7002TIP3   OH245200   3.237   3.718   7.236 -0.4522  0.3316 -0.0917
 7002TIP3    H145201   3.206   3.650   7.177  0.7465 -0.1427 -0.1960
 7002TIP3    H245202   3.217   3.684   7.324 -0.1156 -0.0311 -0.1535
 7003TIP3   OH245203   3.531   1.439   6.237  0.0478 -0.1027  0.0695
 7003TIP3    H145204   3.532   1.515   6.178 -0.5234 -0.2994 -0.1993
 7003TIP3    H245205   3.572   1.369   6.187 -0.5115 -0.2919 -0.1310
 7004TIP3   OH245206   3.756   2.217   8.660  0.0187  0.1598 -0.1749
 7004TIP3    H145207   3.688   2.275   8.695  0.9852  1.4932 -0.4279
 7004TIP3    H245208   3.717   2.130   8.663 -1.9165  0.9493 -0.8464
 7005TIP3   OH245209   4.123   4.511   5.798 -0.0335 -0.0328  0.5017
 7005TIP3    H145210   4.100   4.563   5.720  1.2737  0.1269  0.1940
 7005TIP3    H245211   4.197   4.458   5.770 -0.8401 -1.5036  1.0583
 7006TIP3   OH245212   3.405   3.630   6.260 -0.3040 -0.0118 -0.1528
 7006TIP3    H145213   3.375   3.554   6.309 -2.1264  0.1694 -0.8952
 7006TIP3    H245214   3.332   3.650   6.201  1.2607  0.5705 -1.9829
 7007TIP3   OH245215   3.734   6.662   7.752  0.4864  0.3520  0.7475
 7007TIP3    H145216   3.680   6.627   7.681  1.7032  0.2033 -0.1403
 7007TIP3    H245217   3.786   6.587   7.782  1.5988  0.8875  0.2487
 7008TIP3   OH245218   4.796   6.023   6.767 -0.1022  0.3736 -0.1337
 7008TIP3    H145219   4.742   6.075   6.708  0.1563  2.3134  1.2325
 7008TIP3    H245220   4.750   5.939   6.775 -2.7197  1.7581  0.6018
 7009TIP3   OH245221   1.687   5.520   8.509 -0.6521  0.1189 -0.1636
 7009TIP3    H145222   1.635   5.598   8.530 -1.5010 -0.7078  0.9403
 7009TIP3    H245223   1.701   5.525   8.415 -0.6812  1.6057 -0.1088
 7010TIP3   OH245224   0.910   6.141   6.483  0.2027  0.0476  0.0396
 7010TIP3    H145225   0.901   6.047   6.469 -1.4180  0.2222 -0.2175
 7010TIP3    H245226   0.891   6.180   6.397 -0.6109  0.6713  0.4942
 7011TIP3   OH245227   2.490   1.822   7.400  0.4664 -0.1370 -0.2625
 7011TIP3    H145228   2.560   1.756   7.397  0.9631  0.3810 -0.1301
 7011TIP3    H245229   2.488   1.859   7.311  0.1458 -0.3648 -0.3543
 7012TIP3   OH245230   2.540   1.187   6.926  0.2305  0.0285 -0.3279
 7012TIP3    H145231   2.494   1.241   6.990 -1.1097  0.4467 -1.5929
 7012TIP3    H245232   2.496   1.102   6.930  0.8117 -0.2657  0.0072
 7013TIP3   OH245233   3.995   2.945   8.768  0.1379 -0.1226 -0.0547
 7013TIP3    H145234   3.940   2.889   8.823 -1.5883  0.2276 -1.3149
 7013TIP3    H245235   4.075   2.895   8.755 -1.1156 -2.0795 -0.6676
 7014TIP3   OH245236   5.457   4.109   6.239 -0.0520 -0.5279  0.1777
 7014TIP3    H145237   5.379   4.087   6.290 -0.2628 -1.9727 -0.7076
 7014TIP3    H245238   5.505   4.172   6.293 -2.4422  1.3950  0.2046
 7015TIP3   OH245239   4.989   0.364   5.735 -0.6649 -0.3879 -0.5842
 7015TIP3    H145240   5.031   0.324   5.812 -1.1499  0.4263  0.1266
 7015TIP3    H245241   5.055   0.425   5.701 -0.8679  0.1144 -0.0991
 7016TIP3   OH245242   1.586   4.853   8.783  0.0592  0.0699  0.1172
 7016TIP3    H145243   1.552   4.837   8.695 -0.0235  0.8011  0.0095
 7016TIP3    H245244   1.675   4.819   8.781  0.6897  1.6873 -0.8010
 7017TIP3   OH245245   0.063   4.968   5.672  0.2833  0.1525 -0.5153
 7017TIP3    H145246   0.068   5.055   5.631  0.5114 -0.5649 -2.0739
 7017TIP3    H245247   0.133   4.918   5.631 -1.1132 -1.3654 -1.1823
 7018TIP3   OH245248   0.455   5.825   6.045  0.2230  0.0078 -0.3425
 7018TIP3    H145249   0.478   5.901   6.100  1.6706  0.0925 -1.0035
 7018TIP3    H245250   0.527   5.763   6.060 -1.2028 -1.4878  0.5924
 7019TIP3   OH245251   0.264   6.593   8.013  0.3264 -0.4496  0.2817
 7019TIP3    H145252   0.172   6.588   8.041  0.2604 -0.3355  0.0844
 7019TIP3    H245253   0.275   6.518   7.954  1.0498 -2.0166  2.2796
 7020TIP3   OH245254   3.120   0.886   6.560 -0.3097  0.3359 -0.0550
 7020TIP3    H145255   3.204   0.922   6.533  0.1887  0.3021  1.3870
 7020TIP3    H245256   3.128   0.792   6.548 -0.3484  0.3843 -0.4611
 7021TIP3   OH245257   3.931   5.369   9.430 -0.4533  0.2514 -0.1764
 7021TIP3    H145258   3.992   5.402   9.364 -0.9099 -0.4826 -1.0023
 7021TIP3    H245259   3.918   5.442   9.490  0.6811  0.6389 -0.3900
 7022TIP3   OH245260   1.498   1.295   6.809  0.1750  0.1367 -0.3968
 7022TIP3    H145261   1.561   1.224   6.820 -0.3668 -0.1675  1.1148
 7022TIP3    H245262   1.412   1.253   6.820 -0.5611  0.0795 -4.7825
 7023TIP3   OH245263   2.809   4.827   7.939  0.3119  0.1889  0.1564
 7023TIP3    H145264   2.872   4.899   7.930 -0.8091  1.1184 -0.4199
 7023TIP3    H245265   2.724   4.866   7.919 -0.4926 -1.0045  1.0740
 7024TIP3   OH245266   0.541   0.120   9.732  0.8610 -0.4396 -0.4628
 7024TIP3    H145267   0.631   0.109   9.761  0.4999 -0.9323  0.5167
 7024TIP3    H245268   0.514   0.033   9.705  0.6658 -0.3042 -0.7052
 7025TIP3   OH245269   5.937   5.800   5.690  0.6030  0.2242  0.4529
 7025TIP3    H145270   5.974   5.888   5.686 -0.2717  0.5791 -0.0033
 7025TIP3    H245271   6.013   5.742   5.682  0.9774  0.9246 -1.8313
 7026TIP3   OH245272   5.595   1.532   8.162  0.2028  0.1997 -0.2354
 7026TIP3    H145273   5.554   1.507   8.078  1.0499 -2.2574 -0.0018
 7026TIP3    H245274   5.689   1.531   8.144  0.3465  0.9744  0.4337
 7027TIP3   OH245275   5.838   1.818   7.709  0.2413 -0.5414 -0.3091
 7027TIP3    H145276   5.912   1.759   7.694  0.3840 -0.8138  1.2360
 7027TIP3    H245277   5.864   1.900   7.666  0.3425 -1.3670 -1.8800
 7028TIP3   OH245278   1.713   4.994   8.306 -0.5035 -0.0921  0.2957
 7028TIP3    H145279   1.667   4.913   8.330  0.2559 -0.8348 -0.6652
 7028TIP3    H245280   1.692   5.007   8.214  1.3296 -0.5743 -0.2407
 7029TIP3   OH245281   6.109   4.925   6.852  0.3146  0.1788 -0.0001
 7029TIP3    H145282   6.157   4.850   6.886  0.4078  0.4764  0.5361
 7029TIP3    H245283   6.163   5.000   6.874 -0.3944  0.5182  0.6182
 7030TIP3   OH245284   5.005   5.594   6.192  0.5025  0.2991  0.1312
 7030TIP3    H145285   5.017   5.683   6.161  1.2865  0.4357  0.8010
 7030TIP3    H245286   5.092   5.566   6.221  0.1848 -0.5280  0.3231
 7031TIP3   OH245287   3.282   5.095   6.861  0.6103  0.3605 -0.4800
 7031TIP3    H145288   3.350   5.030   6.880  0.9459  0.8929  0.1911
 7031TIP3    H245289   3.217   5.081   6.930 -0.2542 -0.5255 -1.4504
 7032TIP3   OH245290   1.055   5.654   8.868 -0.0531 -0.0786 -0.4578
 7032TIP3    H145291   1.101   5.736   8.887 -0.6420  0.3131 -0.6841
 7032TIP3    H245292   1.050   5.609   8.952 -1.8084  1.1987  0.1888
 7033TIP3   OH245293   1.301   5.632   8.362  0.1443 -0.0956  0.5607
 7033TIP3    H145294   1.366   5.701   8.348  0.6675 -0.7774 -0.4617
 7033TIP3    H245295   1.267   5.649   8.450  0.6209  1.1585  0.5277
 7034TIP3   OH245296   2.223   6.125   8.535  0.7770 -0.2669  0.0791
 7034TIP3    H145297   2.317   6.118   8.522  0.4974 -0.3727 -2.3127
 7034TIP3    H245298   2.194   6.035   8.553  1.0810 -0.2822  0.4969
 7035TIP3   OH245299   4.571   4.888   5.512 -0.2778  0.2797  0.0905
 7035TIP3    H145300   4.637   4.820   5.501  1.2168  1.7490 -0.4639
 7035TIP3    H245301   4.549   4.885   5.605 -0.6338 -1.2759 -0.0187
 7036TIP3   OH245302   0.363   5.233   6.464  0.1372  0.7636  0.1519
 7036TIP3    H145303   0.407   5.192   6.539 -1.2287  0.1077  0.6323
 7036TIP3    H245304   0.346   5.161   6.404 -1.2631  0.7862  0.4848
 7037TIP3   OH245305   4.886   6.706   8.082  0.5569  0.4226 -0.5322
 7037TIP3    H145306   4.906   6.799   8.082 -0.3300  0.6263 -0.4009
 7037TIP3    H245307   4.870   6.684   7.990  0.6502  0.4314 -0.5502
 7038TIP3   OH245308   6.036   4.785  14.003  0.4832  0.0557  0.3446
 7038TIP3    H145309   6.040   4.820  14.092  3.1082 -0.4390  0.4999
 7038TIP3    H245310   6.039   4.690  14.015 -0.7464 -0.0677 -0.2450
 7039TIP3   OH245311   4.348   1.240   5.831  0.6021 -0.6369 -0.0196
 7039TIP3    H145312   4.332   1.281   5.916  0.2082 -1.3369  0.2426
 7039TIP3    H245313   4.315   1.304   5.767 -0.3625 -0.7048  0.3988
 7040TIP3   OH245314   6.229   4.492   8.615  0.1704 -0.1869 -0.0655
 7040TIP3    H145315   6.176   4.417   8.643 -0.4353  0.2739  0.0327
 7040TIP3    H245316   6.210   4.561   8.679  2.7579 -0.7374  1.4596
 7041TIP3   OH245317   2.551   2.769   8.211  0.1619  0.1881 -0.2164
 7041TIP3    H145318   2.609   2.737   8.280  0.5941  0.4712 -0.4518
 7041TIP3    H245319   2.480   2.813   8.258 -0.1992 -0.7081  0.0947
 7042TIP3   OH245320   6.644   2.515   6.394  0.0882  1.0455  0.2893
 7042TIP3    H145321   6.729   2.509   6.350 -1.0463  0.9090 -2.0017
 7042TIP3    H245322   6.645   2.601   6.436  1.1692  1.2641 -0.1366
 7043TIP3   OH245323   5.654   0.079   6.487  0.3871 -0.1465 -0.4011
 7043TIP3    H145324   5.631   0.171   6.497 -0.2646 -0.2442 -0.9382
 7043TIP3    H245325   5.680   0.051   6.575 -0.7986  0.1888  0.0816
 7044TIP3   OH245326   1.722   3.380   6.599 -0.4962  0.0400  0.6721
 7044TIP3    H145327   1.798   3.380   6.656 -0.3199 -0.6674  0.4368
 7044TIP3    H245328   1.748   3.436   6.525 -0.5479  0.5484  1.0283
 7045TIP3   OH245329   6.220   0.203   7.544 -0.3611 -0.6858  0.1142
 7045TIP3    H145330   6.250   0.151   7.618 -0.5312 -0.5106  0.3088
 7045TIP3    H245331   6.125   0.206   7.554 -0.3815 -0.6319 -0.0908
 7046TIP3   OH245332   6.386   0.727   9.611  0.1727 -0.2710 -0.2193
 7046TIP3    H145333   6.436   0.784   9.553 -0.1924 -0.4028 -0.6716
 7046TIP3    H245334   6.446   0.657   9.635  1.2128  1.1927  1.7572
 7047TIP3   OH245335   2.924   3.211   7.014  0.4494 -0.3067  0.7642
 7047TIP3    H145336   2.979   3.191   7.090  0.7109 -0.8716  0.4274
 7047TIP3    H245337   2.837   3.222   7.051  0.5481 -0.7238  1.1331
 7048TIP3   OH245338   4.380   1.696   7.490  0.0017 -0.0188  0.1932
 7048TIP3    H145339   4.310   1.700   7.556 -0.9302  1.5783 -0.8372
 7048TIP3    H245340   4.419   1.609   7.502 -2.1454 -0.9518  0.7953
 7049TIP3   OH245341   0.950   5.875   9.503  0.6607  0.1501  0.5582
 7049TIP3    H145342   0.866   5.842   9.535 -0.6067  0.9495 -1.7152
 7049TIP3    H245343   0.966   5.825   9.422  1.0974  1.7102 -0.3545
 7050TIP3   OH245344   1.888   2.844   7.925 -0.4081  0.4393  0.2105
 7050TIP3    H145345   1.963   2.787   7.907 -1.9625 -0.9898 -2.3490
 7050TIP3    H245346   1.846   2.805   8.001 -0.4838 -0.8469 -0.4703
 7051TIP3   OH245347   2.609   1.555   7.344 -0.8062  0.2347 -0.5443
 7051TIP3    H145348   2.513   1.553   7.339 -0.9733  0.3829  1.7219
 7051TIP3    H245349   2.631   1.492   7.412  0.7935 -0.3833 -1.5891
 7052TIP3   OH245350   5.566   0.647   8.404  0.0747 -0.1640 -0.1415
 7052TIP3    H145351   5.501   0.615   8.467 -0.9694  1.1985 -0.4701
 7052TIP3    H245352   5.640   0.675   8.459 -0.3702 -0.0309  0.4070
 7053TIP3   OH245353   1.191   4.448   6.570 -0.4296  0.0600  0.2137
 7053TIP3    H145354   1.279   4.450   6.533 -1.1561 -2.2580 -1.9144
 7053TIP3    H245355   1.133   4.468   6.496 -1.8253 -2.2462  0.5750
 7054TIP3   OH245356   5.526   4.493   7.997  0.2220  0.1672 -0.0160
 7054TIP3    H145357   5.477   4.573   7.980  0.2469  0.5788  1.6874
 7054TIP3    H245358   5.596   4.519   8.056  0.3196 -1.0772  0.4542
 7055TIP3   OH245359   2.808   4.113   8.514  0.3532 -0.1740 -0.3197
 7055TIP3    H145360   2.836   4.101   8.604 -1.9164 -2.0636  0.2479
 7055TIP3    H245361   2.801   4.024   8.479 -1.5249  0.3445 -1.4273
 7056TIP3   OH245362   3.031   0.335   7.962  0.4100  0.3246 -0.1898
 7056TIP3    H145363   2.987   0.414   7.992 -0.9011 -0.6524  0.5762
 7056TIP3    H245364   3.066   0.295   8.042  1.7583  0.5130 -0.6571
 7057TIP3   OH245365   1.032   6.512   7.850 -0.0250  0.3943 -0.2925
 7057TIP3    H145366   1.113   6.488   7.894  0.7962  1.3840 -1.2174
 7057TIP3    H245367   0.980   6.556   7.917  1.4646  2.4579 -0.4096
 7058TIP3   OH245368   6.029   5.153   5.567 -0.4151 -0.4477  0.2173
 7058TIP3    H145369   6.032   5.239   5.527 -1.1743 -0.0462  0.9999
 7058TIP3    H245370   6.073   5.164   5.652 -1.1930 -0.6364  0.6529
 7059TIP3   OH245371   1.716   3.253   6.059  0.5391 -0.0315  0.3033
 7059TIP3    H145372   1.690   3.248   6.151  1.9602  1.4380  0.8288
 7059TIP3    H245373   1.799   3.300   6.060 -0.0828  1.2699 -1.8488
 7060TIP3   OH245374   6.174   1.245   5.891  0.1297  0.1548  0.8623
 7060TIP3    H145375   6.151   1.321   5.838 -0.9147 -0.5522  0.2601
 7060TIP3    H245376   6.245   1.203   5.844 -0.2911 -0.0562  0.4078
 7061TIP3   OH245377   0.053   6.054   8.638  0.1083 -0.1669 -0.1946
 7061TIP3    H145378   0.116   6.107   8.590 -0.4532  1.4400  0.7576
 7061TIP3    H245379   0.095   6.037   8.722 -0.6600  0.8416  0.4130
 7062TIP3   OH245380   4.348   1.250   8.398  0.0806 -0.1425  0.1401
 7062TIP3    H145381   4.377   1.336   8.430 -0.0333 -0.2861  0.6414
 7062TIP3    H245382   4.422   1.192   8.414  0.9184  0.2437 -2.0000
 7063TIP3   OH245383   1.848   6.319   6.733 -0.2723 -0.2039  0.3856
 7063TIP3    H145384   1.903   6.309   6.656  0.2848 -2.3946  1.0023
 7063TIP3    H245385   1.769   6.363   6.701  1.2767  1.9806 -0.7268
 7064TIP3   OH245386   2.691   0.833   8.257  0.6961  0.0557 -0.1676
 7064TIP3    H145387   2.596   0.842   8.255  0.6929  0.1691  0.2932
 7064TIP3    H245388   2.720   0.899   8.320  0.9925 -0.7040  0.5102
 7065TIP3   OH245389   3.325   0.819   5.964 -0.1032 -0.1174  0.1349
 7065TIP3    H145390   3.288   0.878   5.899 -0.1049 -1.2761 -0.9545
 7065TIP3    H245391   3.419   0.839   5.965 -0.3532  1.1892  1.1836
 7066TIP3   OH245392   1.074   4.697   6.270  0.7150  0.6767 -0.4696
 7066TIP3    H145393   1.083   4.758   6.197 -0.2905  1.8523  0.3376
 7066TIP3    H245394   1.141   4.725   6.332  0.8527  0.3739 -0.4828
 7067TIP3   OH245395   2.115   1.379   5.952 -0.0845  0.1973 -0.3051
 7067TIP3    H145396   2.035   1.380   6.005  0.1717 -0.4387  0.1089
 7067TIP3    H245397   2.185   1.363   6.016  0.5182  1.9288 -0.4901
 7068TIP3   OH245398   0.337   2.950   6.981 -0.1934  0.0968 -0.2034
 7068TIP3    H145399   0.269   2.949   7.048  0.4461  0.8997  0.4764
 7068TIP3    H245400   0.294   2.990   6.905 -0.5532  0.3516  0.1299
 7069TIP3   OH245401   1.611   4.414   8.650 -0.2217  0.1415 -0.0968
 7069TIP3    H145402   1.551   4.411   8.576 -0.6353 -2.6033  0.2176
 7069TIP3    H245403   1.559   4.381   8.724  0.8924  0.3483  0.8113
 7070TIP3   OH245404   2.300   0.341   6.800  0.1251 -0.2302 -0.4308
 7070TIP3    H145405   2.324   0.278   6.732 -0.0423 -0.9617  0.1869
 7070TIP3    H245406   2.264   0.289   6.871 -0.2661  0.5833 -0.0126
 7071TIP3   OH245407   2.235   0.038   8.342  0.3151  0.6566  0.2804
 7071TIP3    H145408   2.322   0.032   8.303  0.1561  1.4583 -0.2146
 7071TIP3    H245409   2.212   0.131   8.336  0.1016  0.7277  1.8968
 7072TIP3   OH245410   1.660   6.607   8.805  0.2004  0.5885  0.2293
 7072TIP3    H145411   1.573   6.640   8.830 -0.3324  0.6605 -1.5306
 7072TIP3    H245412   1.651   6.588   8.711  1.1205 -2.5399  0.6654
 7073TIP3   OH245413   5.786   3.095   5.832  0.0315 -0.7118 -0.2141
 7073TIP3    H145414   5.743   3.010   5.835 -0.5689 -0.4198 -0.3603
 7073TIP3    H245415   5.780   3.121   5.740 -1.0791  0.1328  0.0801
 7074TIP3   OH245416   1.344   3.776   8.377 -0.0158  0.2012 -0.1506
 7074TIP3    H145417   1.415   3.713   8.395 -0.5309 -0.7963 -1.4448
 7074TIP3    H245418   1.382   3.837   8.313 -0.0891  0.0842 -0.3083
 7075TIP3   OH245419   4.615   0.028   7.761 -0.1922  0.2647  0.1816
 7075TIP3    H145420   4.556   0.017   7.836  0.2360 -0.0949  0.4675
 7075TIP3    H245421   4.693   0.070   7.798 -0.4592  1.1977 -0.2833
 7076TIP3   OH245422   4.230   4.655   6.889 -0.2689  0.0077  0.1071
 7076TIP3    H145423   4.258   4.741   6.859  1.3402 -0.7796 -0.7414
 7076TIP3    H245424   4.246   4.656   6.983 -0.8069  0.8154  0.2026
 7077TIP3   OH245425   6.228   2.162   6.199 -0.4109 -0.0425  1.0075
 7077TIP3    H145426   6.280   2.242   6.209 -0.3556 -0.0921  1.1143
 7077TIP3    H245427   6.282   2.094   6.239  0.3331 -0.4542 -0.6008
 7078TIP3   OH245428   0.320   4.107   7.659 -0.2666 -0.0688 -0.5164
 7078TIP3    H145429   0.349   4.162   7.733  2.0305  0.6651 -1.8309
 7078TIP3    H245430   0.256   4.161   7.613 -0.2816  0.2565 -0.1219
 7079TIP3   OH245431   2.505   3.950   6.606 -0.0993 -0.0351 -0.1460
 7079TIP3    H145432   2.433   4.010   6.625  1.2958  1.6099  0.2364
 7079TIP3    H245433   2.531   3.915   6.691 -0.1611 -0.3012 -0.2343
 7080TIP3   OH245434   3.688   5.200   6.953  0.3637 -0.2459  0.1177
 7080TIP3    H145435   3.697   5.285   6.911  2.5194 -0.9834 -1.0824
 7080TIP3    H245436   3.746   5.204   7.029  2.7462 -1.4758 -1.5126
 7081TIP3   OH245437   1.934   1.522   5.830 -0.4389 -0.2438 -0.4384
 7081TIP3    H145438   2.005   1.464   5.859 -1.5193 -1.4942 -0.1831
 7081TIP3    H245439   1.971   1.569   5.755  0.1253 -2.1322 -1.4176
 7082TIP3   OH245440   4.745   6.341   7.520 -0.0867  0.2633 -0.0813
 7082TIP3    H145441   4.710   6.261   7.482 -0.8312  0.0014  1.1050
 7082TIP3    H245442   4.692   6.411   7.481 -0.8960 -0.0076  0.4919
 7083TIP3   OH245443   2.713   0.925   5.570 -0.9075 -0.2967 -0.3227
 7083TIP3    H145444   2.709   0.960   5.481 -0.4699 -0.4803 -0.4191
 7083TIP3    H245445   2.622   0.919   5.598 -0.9941  1.5855 -0.0296
 7084TIP3   OH245446   5.130   3.304   7.354 -0.0039  0.8872  0.2015
 7084TIP3    H145447   5.195   3.243   7.387 -1.7298 -1.0806  0.1619
 7084TIP3    H245448   5.141   3.302   7.259 -0.5477  0.0364  0.1517
 7085TIP3   OH245449   2.882   4.599   5.481 -0.0583  0.2462 -0.1320
 7085TIP3    H145450   2.792   4.589   5.450 -0.5811  0.5656  1.2090
 7085TIP3    H245451   2.888   4.691   5.506  0.9551  0.4601 -1.0964
 7086TIP3   OH245452   1.949   4.270   6.122  0.2392  0.3428 -0.4338
 7086TIP3    H145453   1.894   4.205   6.167  1.4658 -0.2486  0.2829
 7086TIP3    H245454   1.891   4.345   6.108 -0.2570  0.5224  2.0950
 7087TIP3   OH245455   6.440   1.823   6.005 -0.5883  0.2236 -0.0552
 7087TIP3    H145456   6.376   1.866   6.062 -0.1194  1.4701 -0.4263
 7087TIP3    H245457   6.394   1.812   5.921 -0.4122  0.8930 -0.2466
 7088TIP3   OH245458   0.038   4.920   7.923  0.4781  0.5202  0.4775
 7088TIP3    H145459   0.127   4.914   7.887  0.7770 -0.5178  1.3589
 7088TIP3    H245460   0.037   5.001   7.972  0.4100  1.3868 -0.8913
 7089TIP3   OH245461   2.126   4.918   7.315 -0.1036 -0.7412  0.0729
 7089TIP3    H145462   2.175   4.840   7.289 -0.1046 -0.8187  0.3021
 7089TIP3    H245463   2.181   4.961   7.380  0.1366 -0.2692 -0.4351
 7090TIP3   OH245464   1.598   3.804   7.960 -0.1035  0.1347 -0.4647
 7090TIP3    H145465   1.545   3.883   7.951  0.1584  0.2919 -0.6238
 7090TIP3    H245466   1.682   3.835   7.994  0.0047 -0.0721 -0.5428
 7091TIP3   OH245467   0.933   3.588   8.853 -0.2047  0.1738 -0.1142
 7091TIP3    H145468   0.872   3.657   8.828  0.8808  1.1743 -0.0906
 7091TIP3    H245469   1.015   3.634   8.873  0.9285 -1.2086 -1.3087
 7092TIP3   OH245470   5.499   2.913   7.883 -0.5619 -0.3401  0.1537
 7092TIP3    H145471   5.516   2.836   7.938  0.1773 -0.2047  0.1227
 7092TIP3    H245472   5.479   2.876   7.797 -1.3507 -0.5378  0.4092
 7093TIP3   OH245473   5.161   2.783   7.651  0.2732 -0.2227 -0.3747
 7093TIP3    H145474   5.121   2.813   7.569 -2.7485 -1.0455  0.6698
 7093TIP3    H245475   5.221   2.854   7.676 -1.5782  1.8232 -1.3801
 7094TIP3   OH245476   1.623   1.277   8.519 -0.3728 -0.6795 -0.1435
 7094TIP3    H145477   1.642   1.198   8.569  1.0159  0.0029  0.4619
 7094TIP3    H245478   1.531   1.267   8.493 -1.2736 -0.9832  2.7541
 7095TIP3   OH245479   3.370   5.417   6.979 -0.3066  0.3550 -0.1689
 7095TIP3    H145480   3.399   5.465   6.901 -0.9519  2.4842  0.8531
 7095TIP3    H245481   3.281   5.390   6.958 -0.0444 -0.1856 -0.6298
 7096TIP3   OH245482   3.870   1.169   7.190  0.5062  0.4189  0.5290
 7096TIP3    H145483   3.888   1.258   7.221  0.0346  0.6291  0.2112
 7096TIP3    H245484   3.908   1.165   7.103  1.0481  0.1128  0.7754
 7097TIP3   OH245485   6.482   6.507   8.863  0.0312 -0.1606  0.5819
 7097TIP3    H145486   6.444   6.575   8.919 -1.3762 -1.1657  0.9298
 7097TIP3    H245487   6.563   6.482   8.907  0.2225  0.8126  0.8052
 7098TIP3   OH245488   3.095   4.979   8.852 -0.2381  0.0820  0.4735
 7098TIP3    H145489   3.159   4.909   8.841  0.0385  0.4142 -0.1229
 7098TIP3    H245490   3.011   4.937   8.840 -0.0751 -0.1625  0.1803
 7099TIP3   OH245491   6.587   6.431   7.669 -0.1734  0.4674  0.3863
 7099TIP3    H145492   6.596   6.512   7.720  0.0764  0.4811  0.3198
 7099TIP3    H245493   6.640   6.446   7.590  3.1533 -1.2172  2.0909
 7100TIP3   OH245494   3.101   3.168   5.733  0.3941  0.4891 -0.1446
 7100TIP3    H145495   3.121   3.074   5.737 -0.9912  0.1308 -0.9365
 7100TIP3    H245496   3.119   3.199   5.822  0.9425 -0.5103  0.1143
 7101TIP3   OH245497   0.557   1.120   8.433 -0.7435  0.0251 -0.1586
 7101TIP3    H145498   0.650   1.100   8.440 -0.0927  1.7928 -2.3852
 7101TIP3    H245499   0.551   1.213   8.456 -1.8999  0.0240 -0.4023
 7102TIP3   OH245500   6.447   1.007   6.014  0.3054 -0.0218 -0.1445
 7102TIP3    H145501   6.408   0.974   6.096 -1.4963  1.5973 -0.2727
 7102TIP3    H245502   6.391   0.971   5.945  0.2720  0.6566 -0.4797
 7103TIP3   OH245503   5.771   2.057   6.743  0.5091  0.2983  0.2237
 7103TIP3    H145504   5.691   2.006   6.735  0.3981  0.5604 -0.4057
 7103TIP3    H245505   5.741   2.147   6.756  0.7000  0.4384 -0.2974
 7104TIP3   OH245506   3.242   5.764   7.228 -0.3856  0.1912  0.2394
 7104TIP3    H145507   3.254   5.682   7.275 -1.9942  1.8418  3.8671
 7104TIP3    H245508   3.152   5.791   7.247  0.5113  3.5003  0.4669
 7105TIP3   OH245509   3.483   4.157   7.664 -0.2497 -0.2356 -0.4083
 7105TIP3    H145510   3.565   4.194   7.697 -1.3961  1.5781  0.6296
 7105TIP3    H245511   3.472   4.076   7.713  0.1726  0.3001  0.6209
 7106TIP3   OH245512   6.352   0.812   7.926  0.0975  0.0990  0.0284
 7106TIP3    H145513   6.332   0.741   7.987 -0.0856 -1.1538 -1.4380
 7106TIP3    H245514   6.447   0.814   7.921  0.0861 -0.4618 -0.4026
 7107TIP3   OH245515   3.630   4.707   7.170  0.4607 -0.2591  0.2269
 7107TIP3    H145516   3.561   4.714   7.105  1.0226  2.5133 -0.1910
 7107TIP3    H245517   3.709   4.736   7.124  0.9985  1.1198  1.9186
 7108TIP3   OH245518   6.464   2.695   7.082 -0.2538  0.7797  0.5347
 7108TIP3    H145519   6.420   2.618   7.118  0.7308  0.0983  0.3167
 7108TIP3    H245520   6.393   2.748   7.045 -0.9565  0.0426  0.7965
 7109TIP3   OH245521   2.032   3.087   8.222 -0.6314 -0.3350  0.2887
 7109TIP3    H145522   2.062   3.014   8.169 -2.4671 -1.0364  0.1332
 7109TIP3    H245523   2.101   3.100   8.287  1.7885  0.6869 -2.2868
 7110TIP3   OH245524   1.805   6.111   7.081  0.4886 -0.3228  0.3949
 7110TIP3    H145525   1.774   6.197   7.053  0.7306 -0.3636 -0.0119
 7110TIP3    H245526   1.740   6.081   7.144  0.4308  0.1821  0.5812
 7111TIP3   OH245527   0.790   0.038   5.535 -0.1571 -0.2493  0.4213
 7111TIP3    H145528   0.754   0.089   5.608  0.1493  0.0459  0.3667
 7111TIP3    H245529   0.862   0.091   5.502  1.2381 -1.4629  1.3991
 7112TIP3   OH245530   4.036   5.636   8.439 -0.3326  0.6411  0.1953
 7112TIP3    H145531   4.035   5.719   8.487 -0.0766  0.4240  0.5841
 7112TIP3    H245532   4.128   5.610   8.439 -0.5665 -0.2569  1.1551
 7113TIP3   OH245533   5.932   3.940   6.476  0.3181  0.1626  0.1931
 7113TIP3    H145534   5.947   4.026   6.515 -2.4947  0.9731 -0.2917
 7113TIP3    H245535   5.910   3.884   6.550  0.1306  0.3908  0.3120
 7114TIP3   OH245536   4.158   4.186   7.737 -0.4829 -0.1110  0.1259
 7114TIP3    H145537   4.140   4.135   7.817 -1.3860  0.3328  0.2210
 7114TIP3    H245538   4.128   4.129   7.666 -1.3883  0.2126  0.2265
 7115TIP3   OH245539   5.169   3.021   6.560  0.1335 -0.0423 -0.2426
 7115TIP3    H145540   5.120   2.955   6.608 -0.7219  0.3573 -0.5412
 7115TIP3    H245541   5.193   2.978   6.478 -1.6797  0.4270 -1.0734
 7116TIP3   OH245542   5.839   2.653   7.196  0.0162  0.7634 -0.5734
 7116TIP3    H145543   5.843   2.616   7.284  1.0017 -1.1061 -1.3414
 7116TIP3    H245544   5.752   2.629   7.164  0.2077  0.0952 -0.6239
 7117TIP3   OH245545   2.697   4.088   7.852 -0.1036  0.0267 -0.3424
 7117TIP3    H145546   2.745   4.147   7.910 -1.2259  0.2338  0.4182
 7117TIP3    H245547   2.757   4.015   7.837  1.7146  1.7827 -2.1321
 7118TIP3   OH245548   4.935   4.044   6.309  0.0025 -0.4040  0.0873
 7118TIP3    H145549   4.902   3.980   6.245 -0.6373  0.8658 -0.8973
 7118TIP3    H245550   4.860   4.064   6.365  0.2524 -0.6400  0.5148
 7119TIP3   OH245551   6.232   1.952   6.837 -0.2156  0.0897 -0.6704
 7119TIP3    H145552   6.233   1.857   6.825 -0.9888  0.1177 -1.0174
 7119TIP3    H245553   6.170   1.966   6.909  1.9095  0.1620  1.2316
 7120TIP3   OH245554   1.958   4.164   7.667 -0.4880 -0.2484 -0.5481
 7120TIP3    H145555   1.939   4.215   7.746  0.2282 -1.8725  0.7230
 7120TIP3    H245556   2.053   4.152   7.668 -0.7089 -2.1891 -0.4225
 7121TIP3   OH245557   0.959   2.395   6.611 -0.3654 -0.1506 -0.0882
 7121TIP3    H145558   0.882   2.448   6.592  0.4207  0.1948 -2.6173
 7121TIP3    H245559   0.950   2.317   6.556  1.8776  0.7243 -1.8659
 7122TIP3   OH245560   3.707   0.027   7.410 -0.2164 -0.2041  0.7377
 7122TIP3    H145561   3.770  -0.018   7.353 -1.6067 -0.2416 -0.8394
 7122TIP3    H245562   3.647  -0.042   7.438 -0.2591  0.0417  1.2562
 7123TIP3   OH245563   5.186   4.302   8.253 -0.0621  0.0216 -0.0868
 7123TIP3    H145564   5.161   4.320   8.343  1.7754 -0.0699  0.4669
 7123TIP3    H245565   5.241   4.375   8.228 -1.3118  0.5459 -1.5025
 7124TIP3   OH245566   3.491   0.357   7.772  0.0982 -0.3820 -0.3361
 7124TIP3    H145567   3.527   0.284   7.722  1.4796 -0.0330  0.0902
 7124TIP3    H245568   3.441   0.408   7.708 -1.7488 -2.2055 -0.4270
 7125TIP3   OH245569   1.929   5.012   8.478  0.3791 -0.2320 -0.7531
 7125TIP3    H145570   1.972   4.939   8.434 -0.0377 -0.3587 -0.9577
 7125TIP3    H245571   1.859   5.039   8.418 -0.8724 -1.0788  0.2698
 7126TIP3   OH245572   5.501   5.132   5.810  0.1496 -0.1083  0.1184
 7126TIP3    H145573   5.595   5.154   5.812 -0.0901  0.8593  1.5278
 7126TIP3    H245574   5.464   5.175   5.887 -1.3338 -1.1173  0.0079
 7127TIP3   OH245575   3.977   5.146   5.744  0.2868 -0.1961 -0.4319
 7127TIP3    H145576   3.965   5.051   5.735 -5.5439  0.3154 -1.6318
 7127TIP3    H245577   4.001   5.176   5.657  1.4833 -0.4061 -0.1984
 7128TIP3   OH245578   0.755   5.988   6.036  0.3229 -0.4711 -0.0086
 7128TIP3    H145579   0.681   5.976   6.095  0.5000 -1.4835  0.0313
 7128TIP3    H245580   0.832   5.965   6.088  0.6020 -0.0806 -0.2424
 7129TIP3   OH245581   5.380   6.579   6.132  0.6435 -0.0657  0.2883
 7129TIP3    H145582   5.369   6.638   6.058  0.1398 -1.9254 -1.2102
 7129TIP3    H245583   5.448   6.620   6.186  0.6890  1.5741 -0.9517
 7130TIP3   OH245584   2.960   6.371   6.487  0.5405  0.0954  0.2055
 7130TIP3    H145585   2.983   6.350   6.578 -1.1321 -1.4811  0.3170
 7130TIP3    H245586   2.936   6.287   6.449  0.6280  0.8335 -1.5424
 7131TIP3   OH245587   3.598   0.837   5.948 -0.4419 -0.0521  0.2676
 7131TIP3    H145588   3.623   0.748   5.926 -0.1341  0.1850 -0.3734
 7131TIP3    H245589   3.607   0.886   5.866  1.1355  0.9464  0.9780
 7132TIP3   OH245590   2.460   3.208   7.775  0.1064  0.3092 -0.4837
 7132TIP3    H145591   2.430   3.188   7.687  0.0337  0.2383 -0.4427
 7132TIP3    H245592   2.446   3.127   7.824  0.6044  0.1927 -0.5278
 7133TIP3   OH245593   0.281   2.470   6.614 -0.4792 -0.0569  0.1643
 7133TIP3    H145594   0.317   2.440   6.531  1.0248  0.3298  0.6480
 7133TIP3    H245595   0.252   2.390   6.658  0.9829 -0.5418  0.2927
 7134TIP3   OH245596   0.162   1.600   6.444 -0.1613 -0.5170 -0.0519
 7134TIP3    H145597   0.183   1.692   6.462  0.3292 -0.8445  1.2250
 7134TIP3    H245598   0.067   1.596   6.444 -0.1832 -0.0233 -0.0008
 7135TIP3   OH245599   6.218   6.147   8.760  0.1061  0.2012  0.1761
 7135TIP3    H145600   6.247   6.065   8.800  0.9038  0.5969  0.4417
 7135TIP3    H245601   6.166   6.121   8.685  2.1634 -0.5584 -1.0485
 7136TIP3   OH245602   0.961   0.328   6.849 -0.2637 -0.4268 -0.1383
 7136TIP3    H145603   0.992   0.268   6.917  1.2737  0.9592  0.4557
 7136TIP3    H245604   0.891   0.378   6.890 -0.0576 -0.3265  0.0933
 7137TIP3   OH245605   6.178   6.546   6.622 -0.5804 -0.1267 -0.1996
 7137TIP3    H145606   6.144   6.469   6.576  0.1847 -0.2525 -0.5725
 7137TIP3    H245607   6.149   6.621   6.569  0.2393 -0.2667 -0.8722
 7138TIP3   OH245608   5.273   0.482   6.174 -0.4191  0.6715  0.3869
 7138TIP3    H145609   5.301   0.407   6.226 -2.2189 -1.7476 -1.8446
 7138TIP3    H245610   5.205   0.525   6.226 -1.2866 -0.9227  0.6314
 7139TIP3   OH245611   4.148   1.844   8.350  0.4016  0.0274  0.5394
 7139TIP3    H145612   4.192   1.877   8.428  0.0761 -1.4243  1.3825
 7139TIP3    H245613   4.198   1.766   8.325 -1.6245 -1.7201  1.5638
 7140TIP3   OH245614   5.547   5.981   9.138 -0.0651  0.3764 -0.3034
 7140TIP3    H145615   5.565   5.972   9.045  1.6764  1.8773 -0.1549
 7140TIP3    H245616   5.472   6.041   9.142 -0.5529 -0.1904 -0.7263
 7141TIP3   OH245617   1.930   0.131   6.330  0.5734  0.0865  0.1241
 7141TIP3    H145618   1.913   0.050   6.379  0.2460 -0.6941 -1.2409
 7141TIP3    H245619   1.947   0.102   6.241 -0.2430  1.5738 -0.5421
 7142TIP3   OH245620   5.463   5.822   5.313  0.4918 -0.0384  0.3257
 7142TIP3    H145621   5.522   5.781   5.375  2.1960  0.9773 -0.5561
 7142TIP3    H245622   5.520   5.873   5.255 -1.2938  1.5014 -0.1848
 7143TIP3   OH245623   1.440   0.143   8.057  0.4193 -0.6614  0.5368
 7143TIP3    H145624   1.462   0.232   8.030  0.9223 -0.8753  0.2278
 7143TIP3    H245625   1.445   0.091   7.977 -1.7111 -0.6533  0.3318
 7144TIP3   OH245626   5.522   0.584   6.039 -0.0850  0.2926  0.9751
 7144TIP3    H145627   5.436   0.547   6.058  0.4150 -2.4855 -1.4726
 7144TIP3    H245628   5.582   0.535   6.095  0.1815  0.1830  0.5992
 7145TIP3   OH245629   1.009   2.935   7.395 -0.0570  0.1559 -0.1010
 7145TIP3    H145630   1.021   2.993   7.471 -0.6686  0.3774 -0.1679
 7145TIP3    H245631   1.041   2.987   7.321  3.3842 -1.1297  0.3165
 7146TIP3   OH245632   3.279   6.479   7.680  0.6636  0.2532 -0.3652
 7146TIP3    H145633   3.298   6.551   7.740  0.8895 -0.1756  0.0838
 7146TIP3    H245634   3.286   6.517   7.593  0.1134  0.9363 -0.1161
 7147TIP3   OH245635   0.180   2.241   6.727  0.1554  0.2447 -0.8322
 7147TIP3    H145636   0.096   2.266   6.764  1.6171  1.8452  1.6872
 7147TIP3    H245637   0.163   2.159   6.681 -2.1654 -1.2963  2.4394
 7148TIP3   OH245638   3.533   1.343   7.044  0.5097 -0.4093 -0.3609
 7148TIP3    H145639   3.567   1.428   7.074 -0.9520 -0.2324  0.8902
 7148TIP3    H245640   3.577   1.329   6.960  2.7590  0.3371  0.5981
 7149TIP3   OH245641   2.249   3.110   5.906  0.2028  0.3536  0.2284
 7149TIP3    H145642   2.322   3.134   5.849 -0.2768 -0.1259 -0.6007
 7149TIP3    H245643   2.264   3.018   5.927 -1.0430 -0.2397 -1.3244
 7150TIP3   OH245644   6.059   6.611   7.747 -0.6902  0.1868 -0.6440
 7150TIP3    H145645   6.065   6.521   7.715  0.4012  0.1173 -0.2649
 7150TIP3    H245646   6.146   6.647   7.735 -0.9500  0.9972 -0.1850
 7151TIP3   OH245647   5.832   4.578   6.640  0.2318  0.6454  0.6426
 7151TIP3    H145648   5.857   4.661   6.600 -0.7167  1.0097  0.7897
 7151TIP3    H245649   5.787   4.602   6.721 -2.0499  0.1158 -0.3870
 7152TIP3   OH245650   0.147   4.117   7.411 -0.8480 -0.0707  0.5175
 7152TIP3    H145651   0.227   4.134   7.361 -0.8434 -0.8219  0.2707
 7152TIP3    H245652   0.129   4.201   7.455 -0.3147  0.3058  0.0336
 7153TIP3   OH245653   4.368   3.668   7.191  0.3495 -0.0439 -0.1020
 7153TIP3    H145654   4.347   3.578   7.217 -1.3762  1.0360  2.7466
 7153TIP3    H245655   4.297   3.693   7.132 -0.3325  0.0602  0.7367
 7154TIP3   OH245656   5.673   6.541   5.613 -0.4446  0.2068 -0.1088
 7154TIP3    H145657   5.628   6.517   5.694 -1.0624  0.2357 -0.4372
 7154TIP3    H245658   5.766   6.526   5.631 -0.2731  2.5939  1.4671
 7155TIP3   OH245659   5.747   4.801   5.468  0.0476  0.0275 -0.3898
 7155TIP3    H145660   5.673   4.811   5.528  0.1573 -1.5641  0.0591
 7155TIP3    H245661   5.715   4.835   5.385 -0.8271  0.3240  0.0524
 7156TIP3   OH245662   0.426   3.765   7.225  0.5820  0.1698 -0.1038
 7156TIP3    H145663   0.515   3.754   7.258  0.6509 -0.7922 -0.5794
 7156TIP3    H245664   0.379   3.808   7.297  1.1994 -0.1431  0.5008
 7157TIP3   OH245665   5.249   6.547   7.836 -0.2580 -0.1254  0.3568
 7157TIP3    H145666   5.314   6.613   7.814  0.1039 -0.8472 -0.8469
 7157TIP3    H245667   5.168   6.596   7.849 -0.4695  0.4509 -2.4379
 7158TIP3   OH245668   5.219   2.682   7.889  0.4678  0.0923 -0.5595
 7158TIP3    H145669   5.220   2.719   7.801 -1.8023 -0.8222 -1.0366
 7158TIP3    H245670   5.154   2.613   7.886  0.4573 -0.1017  1.7972
 7159TIP3   OH245671   5.913   6.296   8.452 -0.3481  0.2144 -0.4641
 7159TIP3    H145672   5.976   6.367   8.442  0.7392 -0.6786 -0.0195
 7159TIP3    H245673   5.841   6.335   8.501  0.2010  1.0273 -0.2855
 7160TIP3   OH245674   2.967   2.416   6.204  0.3290  0.0818  0.4351
 7160TIP3    H145675   2.910   2.476   6.253  0.5365  0.3975  0.2896
 7160TIP3    H245676   2.987   2.346   6.267  1.1740  0.8440  1.0387
 7161TIP3   OH245677   4.768   1.151   8.223  0.0616 -0.2473  0.3318
 7161TIP3    H145678   4.717   1.123   8.147  0.5531 -2.3998  0.7310
 7161TIP3    H245679   4.783   1.244   8.209 -2.4086  0.0521 -0.6902
 7162TIP3   OH245680   1.747   1.069   9.010  0.1779  0.3263  0.3484
 7162TIP3    H145681   1.743   1.023   9.094  1.7299  0.8639  0.7549
 7162TIP3    H245682   1.662   1.053   8.970  0.4895 -2.5789  0.6154
 7163TIP3   OH245683   3.249   3.462   6.449 -0.4523 -0.1860 -0.0430
 7163TIP3    H145684   3.245   3.390   6.387  0.0087 -0.0374 -0.2514
 7163TIP3    H245685   3.299   3.428   6.523  0.1139  0.0355 -0.3133
 7164TIP3   OH245686   0.855   3.788   6.815 -0.2597  0.2373  0.1415
 7164TIP3    H145687   0.894   3.701   6.804 -0.2163  0.2473  0.2102
 7164TIP3    H245688   0.782   3.774   6.875  0.5904  0.4711  1.2617
 7165TIP3   OH245689   0.928   6.581   8.156 -0.0985 -0.0293 -0.2271
 7165TIP3    H145690   0.996   6.648   8.145 -0.7698  0.6236 -0.4773
 7165TIP3    H245691   0.903   6.588   8.248  1.0553 -1.1504  0.2014
 7166TIP3   OH245692   4.665   3.817   8.309 -0.0846 -0.3131 -0.2112
 7166TIP3    H145693   4.748   3.777   8.283 -0.0506  0.4674 -1.3667
 7166TIP3    H245694   4.605   3.743   8.319  0.6952 -0.8681  0.4669
 7167TIP3   OH245695   4.253   1.389   5.604 -0.4757  0.6435 -0.8619
 7167TIP3    H145696   4.182   1.422   5.548  0.9628  1.5755 -2.2149
 7167TIP3    H245697   4.306   1.334   5.547  0.5241  0.8735 -0.1944
 7168TIP3   OH245698   1.437   1.482   6.168  0.1686  0.2796  0.5172
 7168TIP3    H145699   1.496   1.538   6.218 -0.7726  0.9431  0.9236
 7168TIP3    H245700   1.490   1.407   6.142  1.4092  1.2431  0.1645
 7169TIP3   OH245701   3.247   3.745   5.571  0.5260 -0.1258 -0.3302
 7169TIP3    H145702   3.297   3.822   5.545  0.2533  0.4256  0.7379
 7169TIP3    H245703   3.156   3.767   5.552  0.4904 -0.4075 -0.5140
 7170TIP3   OH245704   1.712   3.067   6.949 -0.2091 -0.1789 -0.2808
 7170TIP3    H145705   1.768   3.051   6.873  1.0734  0.6945  0.4307
 7170TIP3    H245706   1.719   3.161   6.964 -0.2430 -0.3722  1.0494
 7171TIP3   OH245707   0.688   0.477   8.570  0.0525  0.4048 -0.2551
 7171TIP3    H145708   0.668   0.412   8.503  1.1076 -0.0651 -0.1370
 7171TIP3    H245709   0.778   0.502   8.552 -0.0033  1.0614  0.3492
 7172TIP3   OH245710   5.346   4.056   8.425 -0.1571 -0.0080 -0.2588
 7172TIP3    H145711   5.373   4.142   8.393  0.2783  0.2818  0.8444
 7172TIP3    H245712   5.421   4.026   8.477 -0.3864 -0.9625 -0.4728
 7173TIP3   OH245713   4.461   6.266   7.443 -0.0279 -0.3689 -0.9367
 7173TIP3    H145714   4.433   6.241   7.531  1.4616 -0.4465 -0.4593
 7173TIP3    H245715   4.488   6.184   7.402  1.1690 -0.0815 -0.7497
 7174TIP3   OH245716   4.527   3.001   8.173  0.5874 -0.7853 -0.3780
 7174TIP3    H145717   4.467   2.954   8.115  0.4962  0.3875 -1.2597
 7174TIP3    H245718   4.536   3.087   8.133 -0.8553  0.7016  2.2742
 7175TIP3   OH245719   4.441   4.145   8.911 -0.3427 -0.1453  0.1167
 7175TIP3    H145720   4.519   4.093   8.891  0.0409  0.5086 -0.1454
 7175TIP3    H245721   4.387   4.138   8.833 -0.4691 -0.4608  0.2313
 7176TIP3   OH245722   4.467   1.321   6.542  0.0582 -0.0095 -0.2537
 7176TIP3    H145723   4.440   1.390   6.602  0.9066  2.2669 -2.3018
 7176TIP3    H245724   4.385   1.284   6.509 -0.4051 -0.6760  1.5629
 7177TIP3   OH245725   5.815   1.682   6.159 -0.0769  0.7691  0.0870
 7177TIP3    H145726   5.820   1.606   6.218 -2.0602 -0.3934 -1.1402
 7177TIP3    H245727   5.860   1.751   6.206  1.3607 -1.0142  1.4959
 7178TIP3   OH245728   0.589   5.215   8.446 -0.2364 -0.1244  0.4701
 7178TIP3    H145729   0.583   5.227   8.351 -3.3932  2.5625  0.8619
 7178TIP3    H245730   0.515   5.158   8.467  0.4680 -0.7346  1.3513
 7179TIP3   OH245731   3.138   6.743   7.377  0.6916  0.0242 -0.5441
 7179TIP3    H145732   3.044   6.741   7.391  0.3080  1.6230 -2.4326
 7179TIP3    H245733   3.167   6.825   7.416  0.7230  1.0694 -2.5934
 7180TIP3   OH245734   3.163   3.075   7.918 -0.0401  0.2731 -0.5129
 7180TIP3    H145735   3.163   3.142   7.986  0.3291 -1.1912  1.0203
 7180TIP3    H245736   3.212   3.114   7.846 -0.6967  1.9927 -0.0800
 7181TIP3   OH245737   1.482   1.894   6.550 -0.5086  0.7257 -0.2508
 7181TIP3    H145738   1.496   1.945   6.470 -1.6538  1.2002 -0.1760
 7181TIP3    H245739   1.390   1.868   6.545 -0.1468 -0.7133  0.0857
 7182TIP3   OH245740   1.101   4.342   9.230  0.1576 -0.1440  0.0240
 7182TIP3    H145741   1.050   4.382   9.300 -1.0824 -1.1314 -0.2610
 7182TIP3    H245742   1.161   4.282   9.274  1.4553  1.3568  0.3941
 7183TIP3   OH245743   0.536   1.376   8.518  0.0573 -0.1409  0.1531
 7183TIP3    H145744   0.479   1.450   8.540 -0.0649 -1.1208  3.7032
 7183TIP3    H245745   0.623   1.414   8.510 -0.2243  0.5868  0.4619
 7184TIP3   OH245746   2.966   6.248   7.276  0.3404 -0.0408 -0.3008
 7184TIP3    H145747   3.000   6.209   7.195  1.1598 -1.4869  0.7170
 7184TIP3    H245748   2.921   6.328   7.246  2.9639  0.9638 -1.9264
 7185TIP3   OH245749   6.415   0.493   5.697  0.1090  1.1137 -0.4212
 7185TIP3    H145750   6.460   0.414   5.665 -1.0637 -0.1638  0.9528
 7185TIP3    H245751   6.486   0.549   5.729  0.8772 -0.1933  0.2657
 7186TIP3   OH245752   5.973   0.367   6.874  0.2798 -0.9053  0.2450
 7186TIP3    H145753   5.988   0.377   6.780  0.5283  0.8501  0.4417
 7186TIP3    H245754   6.018   0.441   6.914 -1.6740 -0.3288  1.5528
 7187TIP3   OH245755   0.068   5.506   9.498 -0.2283  0.2162  0.2260
 7187TIP3    H145756   0.136   5.572   9.511 -0.1523  0.2781 -0.4808
 7187TIP3    H245757   0.017   5.538   9.424  0.9861 -1.4379 -1.4474
 7188TIP3   OH245758   2.805   4.565   8.031  0.1202 -0.1782 -0.1814
 7188TIP3    H145759   2.828   4.656   8.015  0.4709 -0.2098  0.1340
 7188TIP3    H245760   2.709   4.564   8.028  0.0852  0.3487  0.6229
 7189TIP3   OH245761   0.903   0.617   8.157  0.0490  0.3904  0.4979
 7189TIP3    H145762   0.991   0.615   8.119  0.3117 -0.6999  1.1305
 7189TIP3    H245763   0.886   0.710   8.172  1.6620  0.5573  1.6235
 7190TIP3   OH245764   1.404   4.686   6.872 -0.1957 -0.1203 -0.5201
 7190TIP3    H145765   1.330   4.639   6.910  0.4478 -3.4718 -3.0385
 7190TIP3    H245766   1.365   4.763   6.830 -1.7186 -0.0307  0.9346
 7191TIP3   OH245767   5.940   6.215   7.236  0.0561  0.7620 -0.1061
 7191TIP3    H145768   6.017   6.178   7.192 -0.5175 -0.9170  0.2499
 7191TIP3    H245769   5.976   6.271   7.304  0.9564  0.8472 -0.6355
 7192TIP3   OH245770   0.423   3.257   7.007  0.2394 -0.1224  0.4864
 7192TIP3    H145771   0.468   3.317   7.067  0.2451  1.3885 -0.9649
 7192TIP3    H245772   0.340   3.300   6.989  0.7007  0.0469 -1.4433
 7193TIP3   OH245773   5.507   0.175   8.164 -0.6306 -0.0183  0.4115
 7193TIP3    H145774   5.455   0.250   8.192  2.4576  2.0865  1.0666
 7193TIP3    H245775   5.564   0.210   8.095  0.6057 -1.8828  0.4261
 7194TIP3   OH245776   4.700   5.138   6.524  0.1116 -0.2358  0.0397
 7194TIP3    H145777   4.776   5.196   6.511 -0.3497  0.2724 -0.4167
 7194TIP3    H245778   4.652   5.179   6.596 -0.0607 -0.2119 -0.0897
 7195TIP3   OH245779   5.914   5.751   8.265  0.0201  0.1505  0.2350
 7195TIP3    H145780   5.887   5.833   8.306  1.3184 -0.1258  1.7499
 7195TIP3    H245781   5.880   5.755   8.176 -1.1986  1.6705  0.7456
 7196TIP3   OH245782   4.047   3.711   8.140  0.1869  0.0748  1.4442
 7196TIP3    H145783   4.135   3.730   8.171  1.3546  1.9027 -2.3460
 7196TIP3    H245784   4.050   3.619   8.113  1.7731  0.6811 -0.7119
 7197TIP3   OH245785   1.727   5.311   6.419 -0.7308 -0.2336  0.6090
 7197TIP3    H145786   1.738   5.321   6.324  1.3530  2.0894  1.0094
 7197TIP3    H245787   1.699   5.220   6.430 -1.3614 -0.4838 -2.2245
 7198TIP3   OH245788   3.612   2.243   6.427  0.0168  0.0195 -0.1723
 7198TIP3    H145789   3.698   2.207   6.448  0.9928  1.6751 -1.1258
 7198TIP3    H245790   3.560   2.168   6.400  1.3479 -0.9325 -0.1527
 7199TIP3   OH245791   1.557   0.911   8.399  0.1093 -0.7522 -0.2840
 7199TIP3    H145792   1.605   0.929   8.479  0.8182  1.7339 -1.1705
 7199TIP3    H245793   1.494   0.843   8.423  2.0008 -1.9417  1.6767
 7200TIP3   OH245794   0.984   2.738   7.983 -0.1287  0.3339  0.0961
 7200TIP3    H145795   1.013   2.781   7.902 -0.1919 -0.1702 -0.2020
 7200TIP3    H245796   0.894   2.767   7.994 -0.5781 -0.6503 -0.7680
 7201TIP3   OH245797   6.252   4.845   7.638 -0.0401 -0.1532  1.0676
 7201TIP3    H145798   6.221   4.855   7.548 -0.2753 -2.5640  0.8227
 7201TIP3    H245799   6.338   4.804   7.630  0.8368  1.4023  1.9360
 7202TIP3   OH245800   3.552   0.414   8.041 -0.9032  0.3678  0.2765
 7202TIP3    H145801   3.512   0.396   7.956  0.0482 -0.7060  0.0225
 7202TIP3    H245802   3.644   0.434   8.020 -0.4815 -0.6277  1.0824
 7203TIP3   OH245803   3.556   2.722   7.547  0.0749  0.0969  0.4764
 7203TIP3    H145804   3.650   2.710   7.558 -0.0677  1.1351  4.1322
 7203TIP3    H245805   3.519   2.634   7.555  0.6629 -0.3065 -0.9333
 7204TIP3   OH245806   6.269   0.891   6.205  0.3172 -0.0250 -0.2408
 7204TIP3    H145807   6.272   0.853   6.293 -3.5163  0.3527  0.2212
 7204TIP3    H245808   6.210   0.835   6.156  0.9649  0.7996 -2.0642
 7205TIP3   OH245809   4.612   5.565   6.275 -0.0170  0.0977  0.2945
 7205TIP3    H145810   4.623   5.510   6.197  1.1963  0.8471 -0.0788
 7205TIP3    H245811   4.519   5.556   6.297  0.4430 -3.5525  1.3515
 7206TIP3   OH245812   1.151   3.979   7.072  0.0810 -0.5186  0.3901
 7206TIP3    H145813   1.197   4.053   7.114  1.5486 -1.7551  1.0582
 7206TIP3    H245814   1.122   3.924   7.144  0.0315 -1.1909 -0.1304
 7207TIP3   OH245815   3.334   6.456   8.892  0.2231 -0.0636  0.1971
 7207TIP3    H145816   3.307   6.453   8.984 -1.3203  0.7965 -0.1790
 7207TIP3    H245817   3.426   6.481   8.895 -0.2510  1.7533  1.4886
 7208TIP3   OH245818   1.848   2.570   5.880 -0.2847 -0.2613 -0.6000
 7208TIP3    H145819   1.804   2.489   5.907 -0.3066 -0.0868 -0.0942
 7208TIP3    H245820   1.874   2.554   5.790  0.7434 -1.2650 -0.1431
 7209TIP3   OH245821   3.236   2.807   8.400 -0.1076  0.2418 -0.1678
 7209TIP3    H145822   3.262   2.716   8.387 -2.5883 -0.5882  0.1573
 7209TIP3    H245823   3.245   2.847   8.314  1.0411 -0.2815 -0.3051
 7210TIP3   OH245824   0.428   3.055   6.693  0.7609  0.1286  0.5196
 7210TIP3    H145825   0.417   3.147   6.673  1.1239  0.0087 -0.2433
 7210TIP3    H245826   0.507   3.052   6.748  3.6580 -0.1565 -3.2784
 7211TIP3   OH245827   5.851   4.760   6.892  0.1004 -0.3380  0.0618
 7211TIP3    H145828   5.803   4.799   6.965 -0.5372 -0.4290 -0.3004
 7211TIP3    H245829   5.930   4.813   6.883  0.2805 -0.4466  0.9425
 7212TIP3   OH245830   5.743   6.570   7.623 -0.1220 -0.3747 -0.4011
 7212TIP3    H145831   5.746   6.641   7.559  3.4829 -0.1226 -0.1599
 7212TIP3    H245832   5.760   6.612   7.707  2.5668 -1.4435 -0.3128
 7213TIP3   OH245833   1.852   2.972   7.669  0.2911  0.6833 -0.6713
 7213TIP3    H145834   1.849   2.908   7.740 -0.9937  0.6798 -0.6999
 7213TIP3    H245835   1.803   2.931   7.597 -0.3184  1.5664 -0.7794
 7214TIP3   OH245836   5.815   2.474   6.224 -0.0557 -0.6808 -0.4914
 7214TIP3    H145837   5.861   2.390   6.215  0.6978 -0.5546  1.5978
 7214TIP3    H245838   5.826   2.516   6.139  0.9183 -2.0343 -1.0787
 7215TIP3   OH245839   3.309   4.336   7.568  0.1679 -0.0623  0.5074
 7215TIP3    H145840   3.366   4.271   7.609  0.5336  0.3400  0.6440
 7215TIP3    H245841   3.336   4.419   7.606 -0.4093  0.1552  0.4601
 7216TIP3   OH245842   2.610   4.988   9.101 -0.2233  0.1305 -1.0845
 7216TIP3    H145843   2.587   4.903   9.064  0.4203 -0.5679  0.0646
 7216TIP3    H245844   2.615   5.046   9.025  0.5555 -1.1360 -2.0556
 7217TIP3   OH245845   4.508   5.426   8.617  0.2073  0.2873 -0.3146
 7217TIP3    H145846   4.598   5.449   8.642  0.4722 -1.7183  0.7145
 7217TIP3    H245847   4.459   5.425   8.699  0.0115 -1.7497 -0.4005
 7218TIP3   OH245848   4.657   0.815   5.957  0.1616  0.1929 -0.1286
 7218TIP3    H145849   4.655   0.881   6.026  1.6330  1.1044 -0.9103
 7218TIP3    H245850   4.734   0.762   5.977 -0.6197 -0.8823  0.1041
 7219TIP3   OH245851   0.867   5.197   5.808 -0.2148 -0.5985 -0.1043
 7219TIP3    H145852   0.942   5.235   5.855  0.0301 -0.0382 -0.9295
 7219TIP3    H245853   0.865   5.106   5.837 -0.1451 -0.2404  1.0872
 7220TIP3   OH245854   5.383   1.316   7.923 -0.2347 -0.1278 -0.3342
 7220TIP3    H145855   5.340   1.231   7.913 -2.1753  0.7837  0.0041
 7220TIP3    H245856   5.442   1.321   7.847 -0.5224 -1.5028 -0.6818
 7221TIP3   OH245857   1.284   6.407   8.294 -0.5936  0.5941 -0.2201
 7221TIP3    H145858   1.272   6.491   8.337 -0.4846  0.5400 -0.0808
 7221TIP3    H245859   1.376   6.385   8.309 -1.0576 -0.4267  1.3665
 7222TIP3   OH245860   3.106   1.794   5.965  0.1981  0.1885 -0.2052
 7222TIP3    H145861   3.141   1.718   6.011 -1.1855 -2.4576 -3.1776
 7222TIP3    H245862   3.018   1.804   6.000  0.3857  0.4648  0.1977
 7223TIP3   OH245863   4.304   4.079   8.617 -0.6336 -0.2451  0.1016
 7223TIP3    H145864   4.272   4.160   8.579 -0.1969 -0.4284 -0.6941
 7223TIP3    H245865   4.376   4.053   8.559  0.1174 -0.4900  1.1169
 7224TIP3   OH245866   2.293   2.122   9.144 -0.5875  0.4688  0.2828
 7224TIP3    H145867   2.265   2.179   9.073  1.0544  0.3804 -0.4594
 7224TIP3    H245868   2.375   2.159   9.175 -0.9080  0.0891  1.6570
 7225TIP3   OH245869   4.394   0.282   7.541  0.1613  0.2735  0.3014
 7225TIP3    H145870   4.377   0.375   7.529 -1.8257 -0.2252 -1.4120
 7225TIP3    H245871   4.390   0.269   7.636  1.7319  2.0904  0.6779
 7226TIP3   OH245872   0.128   4.302   7.674 -0.5903 -0.5399 -0.6590
 7226TIP3    H145873   0.126   4.302   7.770  1.0349 -0.2725 -0.6018
 7226TIP3    H245874   0.053   4.355   7.649 -0.1006  0.7751  0.5216
 7227TIP3   OH245875   4.450   5.679   9.051  0.5053 -0.4833  0.2829
 7227TIP3    H145876   4.508   5.728   8.993 -0.5006  2.0826  1.3079
 7227TIP3    H245877   4.448   5.730   9.132 -2.3032 -1.0480  0.6713
 7228TIP3   OH245878   5.323   2.624   5.903 -0.0721 -0.2124 -0.0968
 7228TIP3    H145879   5.259   2.694   5.892 -1.5589 -1.5875 -0.7201
 7228TIP3    H245880   5.276   2.545   5.875  1.6889 -1.3839  0.1142
 7229TIP3   OH245881   5.088   4.893   5.831 -0.1653 -0.4758  0.2645
 7229TIP3    H145882   5.146   4.957   5.872  0.1319  1.0266 -2.3242
 7229TIP3    H245883   5.099   4.906   5.737 -0.8536 -3.7048 -0.3840
 7230TIP3   OH245884   1.202   5.170   7.477  0.0079 -0.2448  0.0647
 7230TIP3    H145885   1.169   5.250   7.517  1.9415  0.4245  0.4213
 7230TIP3    H245886   1.297   5.182   7.472  0.4497 -2.7361  0.6617
 7231TIP3   OH245887   1.989   6.503   7.270 -0.4827  0.0095 -0.1432
 7231TIP3    H145888   2.038   6.522   7.190 -0.8001 -0.0740 -0.3579
 7231TIP3    H245889   1.900   6.482   7.240 -0.4613 -0.5816  0.1861
 7232TIP3   OH245890   4.592   4.736   9.431 -0.9270 -0.0409  0.5962
 7232TIP3    H145891   4.522   4.733   9.496  0.3400 -2.5282  2.0063
 7232TIP3    H245892   4.571   4.665   9.369 -1.1782  1.1469 -0.7305
 7233TIP3   OH245893   4.739   2.309   7.758 -0.1497  0.2694  0.2953
 7233TIP3    H145894   4.821   2.263   7.773 -0.0325  0.3084 -0.2056
 7233TIP3    H245895   4.702   2.267   7.680 -0.1296  0.9003 -0.0566
 7234TIP3   OH245896   5.411   1.025   7.541  0.6385 -0.7975  0.1095
 7234TIP3    H145897   5.461   1.100   7.509 -1.2833  0.2431 -0.6254
 7234TIP3    H245898   5.353   1.002   7.468 -2.4409  0.3381  2.0323
 7235TIP3   OH245899   2.566   4.387   7.547  0.1441  0.2682  0.9181
 7235TIP3    H145900   2.608   4.460   7.593  0.6643  0.4122  0.2268
 7235TIP3    H245901   2.528   4.334   7.617 -0.2624  1.2092  1.4350
 7236TIP3   OH245902   5.328   4.795   6.113 -0.1224 -0.4217 -0.0597
 7236TIP3    H145903   5.301   4.744   6.037 -2.5880  0.1056  0.3885
 7236TIP3    H245904   5.283   4.879   6.104  0.6616  0.1904  1.2676
 7237TIP3   OH245905   2.095   2.582   5.999  0.1374  0.0326 -0.8224
 7237TIP3    H145906   2.156   2.543   5.937 -0.3726 -2.8454  0.3360
 7237TIP3    H245907   2.016   2.598   5.948  0.0600 -1.3639 -1.1800
 7238TIP3   OH245908   4.084   2.954   6.531 -0.0291 -0.2798  0.1490
 7238TIP3    H145909   3.996   2.982   6.556  0.1649  0.4218  0.0548
 7238TIP3    H245910   4.103   3.003   6.451  1.7146  2.0844  1.8703
 7239TIP3   OH245911   0.539   0.047   9.035 -0.3693 -0.2945 -0.2644
 7239TIP3    H145912   0.457  -0.001   9.046 -0.7491  0.2165 -0.7876
 7239TIP3    H245913   0.544   0.105   9.111 -1.0562  0.4626 -0.7693
 7240TIP3   OH245914   1.691   2.378   7.869  0.0429  0.4731 -0.2378
 7240TIP3    H145915   1.744   2.328   7.931  0.0554  1.0672  0.2407
 7240TIP3    H245916   1.600   2.355   7.891 -0.0717  2.0888  1.3014
 7241TIP3   OH245917   1.744   4.168   6.921  0.0426  0.4215  0.3470
 7241TIP3    H145918   1.651   4.193   6.920 -1.1428 -3.2108  2.0973
 7241TIP3    H245919   1.746   4.083   6.878  2.4820  0.0966  0.9733
 7242TIP3   OH245920   3.841   1.643   8.543  0.5910  0.3457 -0.0085
 7242TIP3    H145921   3.787   1.589   8.602  0.1153 -0.1317 -0.8608
 7242TIP3    H245922   3.892   1.699   8.602  1.7050 -1.5892  0.9656
 7243TIP3   OH245923   0.491   4.548   7.290  0.2172  0.0723  0.2298
 7243TIP3    H145924   0.425   4.497   7.338 -1.1868  0.1074 -1.5625
 7243TIP3    H245925   0.502   4.501   7.207 -0.6228  2.2578 -1.2143
 7244TIP3   OH245926   4.135   5.828   5.967  0.2255 -0.1100  0.4008
 7244TIP3    H145927   4.161   5.813   5.876 -1.8720  0.8670 -0.4251
 7244TIP3    H245928   4.103   5.743   5.998 -0.8629 -0.0310 -0.4452
 7245TIP3   OH245929   2.865   1.859   7.080 -0.2398 -0.0867 -0.3511
 7245TIP3    H145930   2.895   1.914   7.007  0.8552  1.2350  1.0294
 7245TIP3    H245931   2.780   1.826   7.051  1.2169 -1.7417 -3.2753
 7246TIP3   OH245932   6.051   3.368   5.858 -0.3853 -0.2029  0.1074
 7246TIP3    H145933   5.981   3.407   5.911  0.5533 -0.1433  1.3463
 7246TIP3    H245934   6.047   3.416   5.775 -0.1551  1.5989  1.0838
 7247TIP3   OH245935   6.526   4.838   7.065 -0.3921 -0.0575  0.2263
 7247TIP3    H145936   6.491   4.788   6.992 -0.1282 -0.6002  0.4642
 7247TIP3    H245937   6.450   4.856   7.120 -0.8026  1.3978 -0.7721
 7248TIP3   OH245938   0.313   0.503   8.338  0.1519 -0.1746 -0.0230
 7248TIP3    H145939   0.318   0.428   8.397  0.7038 -0.5018 -0.4822
 7248TIP3    H245940   0.225   0.497   8.300 -0.4790  0.4537  1.2937
 7249TIP3   OH245941   1.099   4.788   6.661 -0.2658 -0.0109  1.0250
 7249TIP3    H145942   1.133   4.792   6.750 -0.7803  0.6740  1.1970
 7249TIP3    H245943   1.177   4.792   6.605  0.1612 -1.7365  1.4322
 7250TIP3   OH245944   0.214   3.305   8.734 -0.1936 -0.3817 -0.1758
 7250TIP3    H145945   0.165   3.244   8.789 -1.6201  2.3463  1.8389
 7250TIP3    H245946   0.259   3.362   8.797  0.4267  1.1445 -1.9281
 7251TIP3   OH245947   3.044   0.882   8.670 -0.4222  0.3568  0.5848
 7251TIP3    H145948   3.110   0.947   8.696  0.1146 -0.3036  0.8992
 7251TIP3    H245949   2.961   0.929   8.675  0.1017  1.5233 -0.8689
 7252TIP3   OH245950   6.700   0.189   8.219 -0.1947 -0.1434  0.1756
 7252TIP3    H145951   6.613   0.222   8.243  0.2796  1.2169  0.1097
 7252TIP3    H245952   6.727   0.137   8.295 -0.7066  0.1522  0.5744
 7253TIP3   OH245953   5.357   3.353   8.678 -1.0099 -0.7479  0.6053
 7253TIP3    H145954   5.311   3.401   8.610 -0.5082 -0.8380  0.2005
 7253TIP3    H245955   5.357   3.262   8.648 -0.3026 -0.7047  0.4409
 7254TIP3   OH245956   0.582   4.701   6.293 -0.2539 -0.0169 -0.3110
 7254TIP3    H145957   0.562   4.773   6.353  0.1634 -1.5385  1.7503
 7254TIP3    H245958   0.617   4.632   6.349  0.9100 -1.2551 -2.4260
 7255TIP3   OH245959   1.847   2.547   7.125 -0.1282 -0.2676 -0.4290
 7255TIP3    H145960   1.767   2.497   7.138 -0.2152 -0.8501 -2.8136
 7255TIP3    H245961   1.900   2.494   7.066  0.8422  1.3234 -1.0686
 7256TIP3   OH245962   5.172   6.570   6.937  0.2799 -0.1926  0.3095
 7256TIP3    H145963   5.106   6.615   6.989  0.4440 -0.1018  0.4418
 7256TIP3    H245964   5.123   6.527   6.867 -0.0080 -0.7916  0.8736
 7257TIP3   OH245965   2.006   5.148   7.849  0.0912 -0.4942 -0.2136
 7257TIP3    H145966   1.971   5.137   7.937  0.1038 -1.6411 -0.3398
 7257TIP3    H245967   2.095   5.181   7.862  0.6936 -2.2530  0.2754
 7258TIP3   OH245968   6.533   4.722   5.611 -0.9153 -0.3972  0.4992
 7258TIP3    H145969   6.579   4.646   5.647 -0.6766 -0.8960 -0.8123
 7258TIP3    H245970   6.597   4.792   5.614 -0.1472 -0.9998 -0.9878
 7259TIP3   OH245971   3.417   3.539   5.676  0.1438  0.2638  0.2331
 7259TIP3    H145972   3.423   3.571   5.766  0.6148 -0.3307  0.4186
 7259TIP3    H245973   3.342   3.586   5.639  0.5182  1.2023  0.6429
 7260TIP3   OH245974   3.947   3.298   5.430  0.2870  0.2063 -0.8047
 7260TIP3    H145975   3.964   3.392   5.423 -0.2178  0.3609 -0.0397
 7260TIP3    H245976   3.862   3.286   5.388  0.3745  0.0811 -0.9467
 7261TIP3   OH245977   4.770   5.304   7.242  0.6591  0.5136 -0.4411
 7261TIP3    H145978   4.774   5.399   7.256  1.3283  0.5655 -0.9550
 7261TIP3    H245979   4.834   5.269   7.305 -1.4534  0.1628  1.6588
 7262TIP3   OH245980   1.443   2.479   6.060  0.3396  0.1780 -0.3619
 7262TIP3    H145981   1.412   2.558   6.015 -1.2917 -0.8668 -1.1745
 7262TIP3    H245982   1.473   2.421   5.990 -0.6860 -0.8220 -0.0127
 7263TIP3   OH245983   3.709   4.661   9.280  0.3483 -0.1291 -0.4350
 7263TIP3    H145984   3.681   4.730   9.340  0.1930  0.2376 -0.9198
 7263TIP3    H245985   3.771   4.609   9.330  0.4202  0.3283 -0.0424
 7264TIP3   OH245986   6.347   6.347   9.104  0.2288 -0.2944 -0.3145
 7264TIP3    H145987   6.426   6.319   9.150  0.6788  1.7093  0.2625
 7264TIP3    H245988   6.281   6.357   9.173  0.2564  0.5629 -0.3954
 7265TIP3   OH245989   2.232   4.330  16.203 -0.1373  0.1818  0.4138
 7265TIP3    H145990   2.243   4.278  16.282  2.2258  1.1003  0.7742
 7265TIP3    H245991   2.280   4.411  16.220 -0.6778  0.9585 -1.4624
 7266TIP3   OH245992   4.301   3.880   7.749 -0.3419 -0.2053  0.3463
 7266TIP3    H145993   4.391   3.856   7.769 -0.1517  0.9255  0.9303
 7266TIP3    H245994   4.308   3.927   7.665 -0.4494 -0.4926  0.1755
 7267TIP3   OH245995   6.094   5.231   7.083 -0.2377 -0.0967 -0.3639
 7267TIP3    H145996   6.174   5.194   7.045 -0.9616 -1.2232 -0.8759
 7267TIP3    H245997   6.054   5.280   7.011  0.6042  1.5728  0.2522
 7268TIP3   OH245998   5.098   2.059   6.086  0.2468  0.4830 -0.0927
 7268TIP3    H145999   5.131   2.040   5.999 -1.0897 -0.5145 -0.4159
 7268TIP3    H246000   5.014   2.103   6.071  0.3998  1.0803  0.6956
 7269TIP3   OH246001   1.531   4.504   6.565 -0.4999 -0.2019  0.0180
 7269TIP3    H146002   1.484   4.581   6.531  0.1507 -0.4912 -1.6051
 7269TIP3    H246003   1.480   4.429   6.534 -1.5260 -0.4963  2.1717
 7270TIP3   OH246004   3.798   3.265   8.968 -0.0103  0.2021  0.1631
 7270TIP3    H146005   3.840   3.346   8.941  0.2855 -0.8077 -2.7812
 7270TIP3    H246006   3.712   3.267   8.924 -0.3492 -0.6728  0.7619
 7271TIP3   OH246007   5.774   3.897   5.769 -0.6451  0.0602 -0.1955
 7271TIP3    H146008   5.758   3.837   5.696  0.7331  0.9473 -1.2835
 7271TIP3    H246009   5.771   3.984   5.728 -3.3553  0.8854  1.4461
 7272TIP3   OH246010   2.690   1.358   7.527  0.0427  0.0170  0.4519
 7272TIP3    H146011   2.722   1.305   7.599  1.8535  0.2929 -0.1091
 7272TIP3    H246012   2.720   1.311   7.448 -1.0912  0.2098 -0.1169
 7273TIP3   OH246013   2.017   5.322   7.425 -0.1953  0.2312 -0.4162
 7273TIP3    H146014   2.041   5.275   7.345 -0.9522 -1.3663  0.2573
 7273TIP3    H246015   2.100   5.334   7.472 -0.1106 -1.6474 -0.0023
 7274TIP3   OH246016   1.744   3.670   7.597  1.0547  0.2693 -0.4684
 7274TIP3    H146017   1.824   3.633   7.631  0.9078  0.9058  0.6226
 7274TIP3    H246018   1.750   3.764   7.618 -0.3260  0.1976  0.3998
 7275TIP3   OH246019   2.011   6.700   7.739  0.0854  0.0332 -0.3830
 7275TIP3    H146020   2.020   6.703   7.834 -0.3040 -2.5301 -0.1832
 7275TIP3    H246021   2.017   6.791   7.711 -0.5790  0.9355  2.1532
 7276TIP3   OH246022   5.883   6.030   7.717  0.2783  0.5657  0.2205
 7276TIP3    H146023   5.789   6.022   7.735 -0.0874  1.5901 -1.0920
 7276TIP3    H246024   5.889   6.036   7.621  1.6965  0.4403  0.2767
 7277TIP3   OH246025   5.714   1.350   7.971 -0.6372  0.3612  0.1918
 7277TIP3    H146026   5.793   1.384   7.930  1.0233 -3.0342  0.2460
 7277TIP3    H246027   5.661   1.317   7.898  0.1446 -1.4181  0.3830
 7278TIP3   OH246028   0.485   2.913   5.993  0.0553  0.1128  0.8695
 7278TIP3    H146029   0.502   2.829   5.949  0.7758  0.6576  0.0675
 7278TIP3    H246030   0.390   2.919   5.998 -0.0497 -0.0033 -0.5743
 7279TIP3   OH246031   6.652   5.617   6.757  1.0794 -0.2789  0.2874
 7279TIP3    H146032   6.645   5.692   6.698  1.4841 -0.3692  0.1251
 7279TIP3    H246033   6.631   5.653   6.843 -0.0460 -0.2549  0.0190
 7280TIP3   OH246034   5.070   5.567   6.964 -1.2008  0.2996 -0.2295
 7280TIP3    H146035   5.162   5.584   6.947 -1.0098 -0.4388  0.0355
 7280TIP3    H246036   5.055   5.601   7.052 -0.9869 -0.2520  0.0277
 7281TIP3   OH246037   5.373   0.004   5.889 -0.2383  0.0112  0.2037
 7281TIP3    H146038   5.304  -0.047   5.846  0.5166  0.2419 -1.3751
 7281TIP3    H246039   5.339   0.093   5.890 -0.1074  0.0742 -0.3112
 7282TIP3   OH246040   2.294   4.138   6.703 -0.1694 -0.3138 -0.4132
 7282TIP3    H146041   2.315   4.210   6.643  2.9427 -0.8025 -0.1159
 7282TIP3    H246042   2.220   4.169   6.754  1.7607  3.2709  0.5388
 7283TIP3   OH246043   3.832   4.200   5.756  0.1816  0.1730  0.3145
 7283TIP3    H146044   3.742   4.185   5.783 -1.0166 -0.7271 -3.5196
 7283TIP3    H246045   3.874   4.115   5.764  0.1901  0.1883  0.4377
 7284TIP3   OH246046   0.348   2.387   6.935 -0.5494 -0.4799  0.6451
 7284TIP3    H146047   0.322   2.352   6.849  0.5788 -0.9658  0.4719
 7284TIP3    H246048   0.366   2.479   6.919 -0.6979 -0.4848  0.4415
 7285TIP3   OH246049   1.164   1.534   6.109  0.0498  0.8481 -0.6834
 7285TIP3    H146050   1.259   1.521   6.114  0.2971  2.8129  1.6108
 7285TIP3    H246051   1.133   1.464   6.051  2.9131  0.4031 -1.8332
 7286TIP3   OH246052   2.958   3.853   7.043  0.3241 -0.1925 -0.0120
 7286TIP3    H146053   2.993   3.786   7.102  0.5475 -0.7616 -0.7731
 7286TIP3    H246054   2.880   3.885   7.087  1.8810  1.2875  1.8410
 7287TIP3   OH246055   1.532   4.185   5.951  0.1572 -0.1011  0.3187
 7287TIP3    H146056   1.462   4.184   5.886  2.0335 -1.1064 -1.8683
 7287TIP3    H246057   1.564   4.275   5.951 -0.9342  0.3099  1.1728
 7288TIP3   OH246058   4.954   6.235   8.330  0.2513 -0.0098  0.5542
 7288TIP3    H146059   4.937   6.314   8.279 -0.9555 -0.8118 -0.3564
 7288TIP3    H246060   4.896   6.169   8.291  0.0718 -0.9341  2.3088
 7289TIP3   OH246061   4.568   3.865   5.946  0.0765  0.1972  1.0790
 7289TIP3    H146062   4.501   3.923   5.909 -0.7562 -0.9517  0.7198
 7289TIP3    H246063   4.599   3.814   5.871 -0.0849 -0.6617  1.5841
 7290TIP3   OH246064   0.700   2.644   6.816  0.3413  0.2875  0.1447
 7290TIP3    H146065   0.769   2.655   6.882  0.7012 -0.5535 -0.0828
 7290TIP3    H246066   0.623   2.687   6.855  1.4405  2.9346 -0.4014
 7291TIP3   OH246067   2.873   5.584   6.625 -0.4946 -0.3310  0.3803
 7291TIP3    H146068   2.797   5.529   6.644 -0.0814 -1.3145 -0.7340
 7291TIP3    H246069   2.902   5.557   6.538  1.1864 -0.0293  0.8115
 7292TIP3   OH246070   5.747   6.032   7.144  0.0807  0.1051  0.5746
 7292TIP3    H146071   5.803   6.104   7.175  0.0950  1.0747 -1.4922
 7292TIP3    H246072   5.808   5.967   7.110  0.0338  0.6811 -0.6839
 7293TIP3   OH246073   4.139   0.709   5.710 -0.3197  0.5138 -1.3113
 7293TIP3    H146074   4.217   0.670   5.750 -1.3903  0.8571  1.3447
 7293TIP3    H246075   4.152   0.698   5.616  3.0403  0.8016 -1.0085
 7294TIP3   OH246076   4.335   5.159   6.255  0.6945  0.4454  0.3085
 7294TIP3    H146077   4.428   5.141   6.266  1.1902  1.4604 -1.7412
 7294TIP3    H246078   4.301   5.169   6.344  2.4349 -0.3643  1.0956
 7295TIP3   OH246079   4.284   4.907   8.194  0.2315 -0.1098 -0.6344
 7295TIP3    H146080   4.326   4.981   8.238 -0.3314 -0.1031 -0.1029
 7295TIP3    H246081   4.290   4.929   8.101 -0.5587  0.9604 -0.4560
 7296TIP3   OH246082   0.555   6.036   7.369  0.1083  0.6572 -0.2260
 7296TIP3    H146083   0.483   6.042   7.305 -0.5916 -0.7321  0.3848
 7296TIP3    H246084   0.615   5.972   7.332  1.1938  1.9848 -0.8433
 7297TIP3   OH246085   6.539   5.977   8.637 -0.0937 -0.2182 -0.2237
 7297TIP3    H146086   6.633   5.991   8.628 -0.4234  2.0454 -0.6872
 7297TIP3    H246087   6.516   5.919   8.564  0.8840 -0.6369 -0.2143
 7298TIP3   OH246088   4.296   6.335   8.249  0.5515  0.2445 -0.0665
 7298TIP3    H146089   4.222   6.396   8.251  0.1523 -0.2221 -0.2881
 7298TIP3    H246090   4.264   6.261   8.197  0.7924 -0.4538  0.7642
 7299TIP3   OH246091   4.702   1.432   9.054  0.0455 -0.3015  0.8502
 7299TIP3    H146092   4.715   1.339   9.072 -0.1636 -0.6998 -0.9010
 7299TIP3    H246093   4.783   1.460   9.012 -0.9211 -0.4102 -1.1933
 7300TIP3   OH246094   5.342   3.148   7.365  0.1969 -0.1485 -0.1401
 7300TIP3    H146095   5.292   3.075   7.331 -1.3818  0.5835  0.5193
 7300TIP3    H246096   5.411   3.108   7.418  0.0137 -1.1665 -0.6576
 7301TIP3   OH246097   0.102   4.598   6.283  0.2086 -0.2913  0.5555
 7301TIP3    H146098   0.171   4.649   6.242  0.9765 -0.5999  1.4306
 7301TIP3    H246099   0.036   4.662   6.310 -0.4821 -0.1113 -1.4095
 7302TIP3   OH246100   2.730   2.026   6.852 -0.4587 -0.5009  0.0062
 7302TIP3    H146101   2.787   2.099   6.829  0.2293 -1.1051 -0.2353
 7302TIP3    H246102   2.663   2.065   6.909  0.2230  0.2054  0.3422
 7303TIP3   OH246103   2.305   4.204   8.306  0.1995 -0.4814 -0.5561
 7303TIP3    H146104   2.353   4.190   8.388 -0.5914  1.5131  0.2929
 7303TIP3    H246105   2.337   4.288   8.273 -0.9184 -0.3051 -1.2500
 7304TIP3   OH246106   4.573   4.056   6.954 -0.2600 -0.3158  0.5179
 7304TIP3    H146107   4.494   4.006   6.972 -0.9610  0.0950 -1.2018
 7304TIP3    H246108   4.542   4.145   6.938  0.2865 -0.4632 -1.7691
 7305TIP3   OH246109   5.225   3.824   8.307 -0.0646 -0.1455  0.1566
 7305TIP3    H146110   5.283   3.877   8.363  0.5232 -0.7700  0.1538
 7305TIP3    H246111   5.210   3.744   8.357  0.5969 -0.7830 -0.6305
 7306TIP3   OH246112   3.854   3.259   6.870 -0.7879  0.0154  0.0025
 7306TIP3    H146113   3.927   3.319   6.880 -1.6970  1.7892 -2.8632
 7306TIP3    H246114   3.791   3.287   6.937 -0.1601  0.5273  0.3992
 7307TIP3   OH246115   5.014   1.707   7.091 -0.8216 -0.2422 -0.1631
 7307TIP3    H146116   5.063   1.771   7.143 -1.0424 -1.1877  1.2619
 7307TIP3    H246117   4.968   1.760   7.026  1.1599  0.7822 -0.8330
 7308TIP3   OH246118   6.276   5.633   5.774 -0.7893 -0.0533  0.1877
 7308TIP3    H146119   6.243   5.615   5.686 -2.1083  2.2420  0.1324
 7308TIP3    H246120   6.357   5.583   5.780 -1.2590 -1.1703 -1.9053
 7309TIP3   OH246121   2.930   2.238   6.410  0.1642 -0.7598 -0.3400
 7309TIP3    H146122   2.957   2.231   6.502 -0.2314  0.0063 -0.1554
 7309TIP3    H246123   2.856   2.299   6.412 -0.8929 -1.9813 -0.9582
 7310TIP3   OH246124   1.429   4.697   8.122 -0.0926  0.0973 -0.1618
 7310TIP3    H146125   1.485   4.701   8.199 -0.4954 -0.0689  0.1430
 7310TIP3    H246126   1.489   4.685   8.049  0.3684  1.1363  0.0246
 7311TIP3   OH246127   3.571   0.979   7.901 -0.1009  0.3140  0.1906
 7311TIP3    H146128   3.539   1.048   7.843 -2.1822 -0.1486  0.7114
 7311TIP3    H246129   3.645   0.940   7.854 -0.7598  0.9558 -1.4308
 7312TIP3   OH246130   6.707   6.710   6.595 -0.0909  0.3104 -0.3470
 7312TIP3    H146131   6.705   6.669   6.509  2.5709 -0.0675 -0.3054
 7312TIP3    H246132   6.618   6.697   6.630 -0.7877 -0.8594 -2.3902
 7313TIP3   OH246133   0.131   4.081   9.055 -0.4184  0.1730 -0.0112
 7313TIP3    H146134   0.161   4.037   8.975 -1.0075  1.5128 -0.9986
 7313TIP3    H246135   0.121   4.173   9.030 -2.0143  0.3763  1.2105
 7314TIP3   OH246136   2.066   1.663   6.166  0.3043  0.8178  0.3030
 7314TIP3    H146137   2.056   1.642   6.259 -2.1274  0.7080  0.0896
 7314TIP3    H246138   2.045   1.581   6.121  1.0231  0.9909 -0.3638
 7315TIP3   OH246139   1.253   2.190   8.519 -0.3733  0.5536 -0.0570
 7315TIP3    H146140   1.330   2.163   8.569 -0.0279 -0.6338 -1.1842
 7315TIP3    H246141   1.228   2.112   8.470 -1.8636  1.1371 -0.2718
 7316TIP3   OH246142   3.711   2.131   9.009  0.2531  0.0206  1.0115
 7316TIP3    H146143   3.643   2.068   8.987  1.8215 -1.2528 -0.4988
 7316TIP3    H246144   3.793   2.086   8.989  1.5528  1.6483  2.3106
 7317TIP3   OH246145   5.447   6.241   7.579 -0.4964 -0.0271 -0.0431
 7317TIP3    H146146   5.472   6.286   7.499 -0.1825 -0.5491 -0.2420
 7317TIP3    H246147   5.503   6.164   7.582 -0.1992  0.2089  0.9052
 7318TIP3   OH246148   0.813   1.802   7.952  0.4298 -0.0159 -0.1245
 7318TIP3    H146149   0.822   1.857   8.029  0.1464  0.1169 -0.1857
 7318TIP3    H246150   0.869   1.843   7.886 -0.0241  0.3820 -0.2680
 7319TIP3   OH246151   3.630   4.864   9.459  0.6628  0.1597 -0.0057
 7319TIP3    H146152   3.633   4.960   9.459  1.0148  0.1516 -0.2284
 7319TIP3    H246153   3.631   4.840   9.551  0.0360  0.3817  0.0664
 7320TIP3   OH246154   5.917   4.530   8.049 -0.0385  0.1527  0.0635
 7320TIP3    H146155   5.965   4.612   8.041 -2.0209  1.3896  0.0037
 7320TIP3    H246156   5.922   4.491   7.961  0.9274  0.1838  0.0948
 7321TIP3   OH246157   0.769   4.292   5.796 -0.3527 -0.0916  0.2813
 7321TIP3    H146158   0.714   4.268   5.871  0.0932  0.5766  0.8363
 7321TIP3    H246159   0.759   4.219   5.735 -2.2517  0.2169  0.1497
 7322TIP3   OH246160   4.768   3.529   6.199 -0.2997  0.4009 -0.8655
 7322TIP3    H146161   4.859   3.559   6.198 -0.4731  1.1842  1.0520
 7322TIP3    H246162   4.717   3.607   6.174 -0.5625  0.8791  0.9726
 7323TIP3   OH246163   4.965   1.986   6.487  0.1381  0.6360 -0.5166
 7323TIP3    H146164   5.045   1.957   6.442  0.9591  0.9227  0.6787
 7323TIP3    H246165   4.970   1.943   6.573 -1.8041 -0.5883 -0.9459
 7324TIP3   OH246166   0.397   3.353   7.716 -0.2918  0.1139  0.3419
 7324TIP3    H146167   0.457   3.280   7.706  0.1048  0.5930 -0.9447
 7324TIP3    H246168   0.396   3.371   7.810 -0.0348 -1.2286  0.6130
 7325TIP3   OH246169   2.030   3.331   7.011 -0.2009 -0.2133  0.2002
 7325TIP3    H146170   1.998   3.333   7.101 -0.9599  2.6647 -0.0205
 7325TIP3    H246171   2.067   3.419   6.997  2.2998 -1.4215 -1.5094
 7326TIP3   OH246172   6.125   5.306   5.774 -0.0703 -0.3642  0.1229
 7326TIP3    H146173   6.064   5.276   5.841  0.0038  0.5684  0.6153
 7326TIP3    H246174   6.209   5.313   5.820 -0.0611  0.4695 -0.0157
 7327TIP3   OH246175   1.424   0.943   6.867 -0.1570 -0.3993 -0.1332
 7327TIP3    H146176   1.375   0.892   6.802 -0.1657  0.2980 -0.6890
 7327TIP3    H246177   1.491   0.988   6.816  1.6053 -1.9299  0.7247
 7328TIP3   OH246178   2.029   0.778   7.126  0.4206 -0.0567 -0.1095
 7328TIP3    H146179   1.942   0.754   7.094  0.7044 -2.1760  0.5415
 7328TIP3    H246180   2.090   0.740   7.062  0.8966 -0.2209  0.4318
 7329TIP3   OH246181   3.655   1.865   6.665 -0.6682  0.4159  0.2573
 7329TIP3    H146182   3.693   1.940   6.620 -0.2494  0.3720  0.5358
 7329TIP3    H246183   3.728   1.825   6.711 -0.3028 -1.6695 -1.9097
 7330TIP3   OH246184   3.212   5.863   6.751  0.4924 -0.3244  0.5705
 7330TIP3    H146185   3.276   5.792   6.754  1.3347  0.3817 -0.1404
 7330TIP3    H246186   3.129   5.820   6.770  1.0269 -1.4386  0.5199
 7331TIP3   OH246187   5.791   4.491   8.696  0.7245  0.0009  0.4020
 7331TIP3    H146188   5.696   4.477   8.707  0.8363 -1.1381  0.0876
 7331TIP3    H246189   5.831   4.429   8.757  1.2701 -0.6119 -0.5482
 7332TIP3   OH246190   0.388   5.512   8.193  0.4970 -0.1539  0.3675
 7332TIP3    H146191   0.349   5.502   8.106  0.3643  1.0282  0.2724
 7332TIP3    H246192   0.470   5.463   8.188 -0.1560 -1.2429  0.0254
 7333TIP3   OH246193   0.280   3.830   8.220  0.1177 -0.0886 -0.1468
 7333TIP3    H146194   0.209   3.789   8.269 -0.4077 -0.7794 -1.4426
 7333TIP3    H246195   0.237   3.886   8.156  0.7688  0.2706 -0.2860
 7334TIP3   OH246196   0.939   5.739   9.250  0.4927 -0.1364 -0.2123
 7334TIP3    H146197   0.976   5.679   9.185  0.4271 -1.2657  0.7645
 7334TIP3    H246198   0.886   5.799   9.199  4.4397  2.3422 -1.8837
 7335TIP3   OH246199   2.396   4.977   6.430 -0.3635 -0.1591 -0.4487
 7335TIP3    H146200   2.473   5.028   6.403  0.1389 -0.7957 -0.2299
 7335TIP3    H246201   2.368   4.932   6.350 -0.8495  0.5004 -0.6584
 7336TIP3   OH246202   1.710   0.792   8.197 -0.5186  0.2471 -0.0800
 7336TIP3    H146203   1.655   0.820   8.270 -0.6416 -1.8685  0.7073
 7336TIP3    H246204   1.648   0.750   8.136  0.0293 -1.1824  0.3087
 7337TIP3   OH246205   2.917   2.127   7.640 -0.1493 -0.1997 -0.0582
 7337TIP3    H146206   2.849   2.061   7.631  1.4056 -1.7890 -0.9875
 7337TIP3    H246207   2.938   2.153   7.550 -0.3692  1.1984  0.2694
 7338TIP3   OH246208   0.088   3.084   7.722 -0.6280 -0.5449  0.0672
 7338TIP3    H146209   0.088   3.037   7.639 -1.2398 -0.5130  0.0424
 7338TIP3    H246210   0.007   3.135   7.721 -0.5625 -0.4194  0.6129
 7339TIP3   OH246211   4.549   5.566   5.662  0.0051 -0.4772  0.2324
 7339TIP3    H146212   4.573   5.475   5.643 -2.7166 -1.2646  0.0928
 7339TIP3    H246213   4.459   5.560   5.696 -0.3483  2.1924 -0.0129
 7340TIP3   OH246214   3.281   6.698   8.271 -0.2962  0.2995 -0.3412
 7340TIP3    H146215   3.326   6.674   8.190 -0.2435  0.1887 -0.2793
 7340TIP3    H246216   3.201   6.741   8.242 -0.0251  0.7320 -0.4521
 7341TIP3   OH246217   5.550   1.767   7.218  0.3199  0.2443 -0.3666
 7341TIP3    H146218   5.519   1.857   7.211 -0.2485  0.3520  2.4241
 7341TIP3    H246219   5.644   1.773   7.197 -0.3562  0.7535 -3.8711
 7342TIP3   OH246220   2.632   1.068   5.883  0.1612  0.0799  0.4378
 7342TIP3    H146221   2.661   1.158   5.866  1.1888 -0.2270  0.5019
 7342TIP3    H246222   2.581   1.045   5.805  2.2503 -0.2427 -0.9089
 7343TIP3   OH246223   4.306   6.006   9.178  0.2760 -0.1363  0.5576
 7343TIP3    H146224   4.301   6.072   9.248  0.8524 -0.0003  0.4768
 7343TIP3    H246225   4.356   5.934   9.217 -1.0708 -0.8927  0.9230
 7344TIP3   OH246226   4.343   2.436   8.125 -0.4720 -0.0237  0.0371
 7344TIP3    H146227   4.368   2.511   8.071  2.4769 -1.2579 -0.4842
 7344TIP3    H246228   4.320   2.474   8.210 -0.1664  1.5340 -0.5459
 7345TIP3   OH246229   6.482   5.034   7.765 -0.0250  0.0334 -0.0672
 7345TIP3    H146230   6.455   4.970   7.699  0.9732  0.7120 -1.1631
 7345TIP3    H246231   6.500   4.982   7.843 -1.8788 -0.7160 -0.0850
 7346TIP3   OH246232   5.263   5.847   6.655 -0.3391  0.4362  0.0479
 7346TIP3    H146233   5.185   5.856   6.709  0.6223 -1.5404  1.9044
 7346TIP3    H246234   5.302   5.934   6.655 -1.6210  1.0489  0.4893
 7347TIP3   OH246235   0.949   0.368   7.627 -0.2273 -0.0635  0.1288
 7347TIP3    H146236   1.009   0.428   7.582  0.2760 -1.1989 -0.7819
 7347TIP3    H246237   0.862   0.395   7.598  0.0362 -0.1866 -0.8250
 7348TIP3   OH246238   4.962   2.029   8.066  0.2601 -0.1509  0.1858
 7348TIP3    H146239   4.882   2.081   8.057 -0.2323 -0.4658  2.1869
 7348TIP3    H246240   5.014   2.076   8.131  0.3358 -1.5180  1.1487
 7349TIP3   OH246241   5.232   4.613   7.156 -0.0798  0.5258  0.5686
 7349TIP3    H146242   5.327   4.612   7.154 -0.0891  0.4450 -1.5083
 7349TIP3    H246243   5.207   4.698   7.120 -0.7706 -0.3664 -1.1965
 7350TIP3   OH246244   3.092   2.582   5.722 -0.6395 -0.3269 -0.2472
 7350TIP3    H146245   3.083   2.566   5.816 -2.0783  2.8908  0.3148
 7350TIP3    H246246   3.028   2.524   5.681 -1.0892 -0.6710  0.9076
 7351TIP3   OH246247   0.820   3.817   8.723  0.0716 -0.0888  0.5468
 7351TIP3    H146248   0.766   3.892   8.747  0.4433  0.5741 -0.5930
 7351TIP3    H246249   0.853   3.838   8.636  0.1655 -1.5945  0.1796
 7352TIP3   OH246250   5.142   6.000   7.671 -0.3696 -0.3912  0.0396
 7352TIP3    H146251   5.070   6.000   7.734  0.2169  0.7384  0.7368
 7352TIP3    H246252   5.170   6.091   7.666  1.7307 -0.9547  0.6277
 7353TIP3   OH246253   6.660   2.983   6.339 -0.4919  0.2569  0.2042
 7353TIP3    H146254   6.578   2.987   6.388 -0.6433 -0.5432  0.0409
 7353TIP3    H246255   6.721   3.037   6.388 -1.1072  0.8212  0.3514
 7354TIP3   OH246256   2.536   5.784   5.490  0.9268  0.3061 -0.4580
 7354TIP3    H146257   2.537   5.694   5.524 -0.4595  0.1173 -0.8403
 7354TIP3    H246258   2.597   5.782   5.416  0.6798 -0.4169 -0.6549
 7355TIP3   OH246259   1.733   1.612   5.981 -0.0554 -0.5593 -0.5772
 7355TIP3    H146260   1.809   1.587   5.929 -1.2459 -1.4449 -1.9585
 7355TIP3    H246261   1.667   1.638   5.917 -0.8186  0.5325  0.6065
 7356TIP3   OH246262   4.372   5.099   8.523 -0.6555 -0.1130 -0.2193
 7356TIP3    H146263   4.371   5.150   8.442 -2.1741 -0.3843 -0.3992
 7356TIP3    H246264   4.416   5.017   8.499  1.5900  0.9423  0.0147
 7357TIP3   OH246265   0.190   3.988   6.354  0.4695 -0.1063 -0.2316
 7357TIP3    H146266   0.168   3.954   6.441  0.7423 -0.7006 -0.3895
 7357TIP3    H246267   0.280   3.958   6.339  0.7084  0.6672 -0.3910
 7358TIP3   OH246268   2.132   1.037   7.089 -0.0279  0.3850 -0.3079
 7358TIP3    H146269   2.222   1.010   7.105  0.5659  2.2546 -0.3095
 7358TIP3    H246270   2.079   0.963   7.122  1.3666  0.7813  3.2709
 7359TIP3   OH246271   6.667   0.693   8.093  0.0464 -0.2166  0.0177
 7359TIP3    H146272   6.665   0.754   8.019 -1.6838  1.5153  1.3752
 7359TIP3    H246273   6.712   0.741   8.162 -1.4926 -0.3378  1.1773
 7360TIP3   OH246274   2.421   1.190   7.477  0.1655 -0.3532 -0.0529
 7360TIP3    H146275   2.329   1.192   7.449  0.2681  0.6121 -0.3751
 7360TIP3    H246276   2.466   1.141   7.409 -0.2502 -1.6628  0.5877
 7361TIP3   OH246277   4.978   6.629   6.569  0.1977  0.9121  0.0263
 7361TIP3    H146278   5.026   6.665   6.495  1.9365  1.7169  1.4663
 7361TIP3    H246279   4.907   6.692   6.585  0.5435  1.3647 -0.2103
 7362TIP3   OH246280   1.628   2.010   8.435  0.4790 -0.3188 -0.2336
 7362TIP3    H146281   1.634   2.056   8.519 -0.5618 -0.6868  0.0605
 7362TIP3    H246282   1.714   1.970   8.423  1.5162  1.8733 -0.6198
 7363TIP3   OH246283   4.609   6.438   7.804 -0.0945 -0.0229  0.8408
 7363TIP3    H146284   4.650   6.419   7.719 -0.2375  0.9894  0.5390
 7363TIP3    H246285   4.551   6.511   7.786 -0.2827  0.0592  1.7786
 7364TIP3   OH246286   0.282   1.726   7.077  0.3601 -0.3979  0.1834
 7364TIP3    H146287   0.204   1.716   7.023 -0.1013 -2.7317  1.1580
 7364TIP3    H246288   0.258   1.793   7.142 -0.2948 -0.0754 -0.3864
 7365TIP3   OH246289   0.461   0.436   7.235 -0.3512 -0.0827 -0.2494
 7365TIP3    H146290   0.468   0.445   7.140 -0.5881 -1.4617 -0.4251
 7365TIP3    H246291   0.539   0.386   7.260 -0.6219 -0.3016  0.1812
 7366TIP3   OH246292   1.554   1.254   7.293 -0.5064  0.2239  0.5010
 7366TIP3    H146293   1.561   1.334   7.242  1.5006  0.5389  1.1675
 7366TIP3    H246294   1.532   1.186   7.229  2.7171  0.4519 -1.0424
 7367TIP3   OH246295   4.051   6.469   8.243 -0.5657  0.0651  0.1796
 7367TIP3    H146296   4.076   6.529   8.172 -1.3590  0.2811  0.0639
 7367TIP3    H246297   3.964   6.437   8.217  0.4474 -2.2909 -0.4910
 7368TIP3   OH246298   2.299   2.814   7.518  0.0697 -0.2062 -0.1462
 7368TIP3    H146299   2.255   2.738   7.558  1.7290 -1.0264  0.2310
 7368TIP3    H246300   2.369   2.836   7.580  1.2464 -0.0254 -1.4922
 7369TIP3   OH246301   5.120   4.381   8.544 -0.3005 -0.6540 -0.4752
 7369TIP3    H146302   5.039   4.430   8.525  1.2444  1.9096 -0.9294
 7369TIP3    H246303   5.140   4.402   8.635  0.5928 -0.0736 -0.7935
 7370TIP3   OH246304   0.480   0.856   7.218 -0.2275 -0.4654  0.5450
 7370TIP3    H146305   0.410   0.885   7.160 -0.1106 -1.0585  0.0967
 7370TIP3    H246306   0.484   0.923   7.286 -0.4259  0.2008 -0.0847
 7371TIP3   OH246307   2.621   6.408   6.934  0.4388 -0.9283  0.1719
 7371TIP3    H146308   2.665   6.444   6.856  1.9817  1.5284  2.0255
 7371TIP3    H246309   2.536   6.452   6.936  0.6239 -0.5655  0.1677
 7372TIP3   OH246310   6.040   3.033   7.783  0.3284 -0.6136 -0.1583
 7372TIP3    H146311   6.087   3.052   7.701 -1.5295 -0.6226 -1.2747
 7372TIP3    H246312   6.024   3.118   7.822  0.4161 -0.5474 -0.2654
 7373TIP3   OH246313   2.838   0.667   7.242  0.2698  0.0159 -0.0868
 7373TIP3    H146314   2.902   0.682   7.173 -1.2265  3.0587 -1.0307
 7373TIP3    H246315   2.799   0.582   7.222  0.5276  0.4053 -2.4867
 7374TIP3   OH246316   6.253   4.024   7.543 -0.0486  0.2786 -0.7720
 7374TIP3    H146317   6.283   3.936   7.566 -2.3440 -0.3997 -0.1874
 7374TIP3    H246318   6.326   4.081   7.568  1.5667 -1.4379 -1.3244
 7375TIP3   OH246319   5.529   4.729   6.688  0.1900  0.1016 -0.6400
 7375TIP3    H146320   5.546   4.822   6.696  2.1752 -0.1708 -1.1838
 7375TIP3    H246321   5.526   4.697   6.779  1.0251  0.4559 -0.4807
 7376TIP3   OH246322   1.124   0.863   7.906  0.3567 -0.1527 -0.3988
 7376TIP3    H146323   1.058   0.921   7.942 -0.5324 -1.3106 -0.0923
 7376TIP3    H246324   1.185   0.920   7.860 -1.6211  0.8385 -1.9291
 7377TIP3   OH246325   4.640   1.579   8.422  1.3765 -0.2474  0.1739
 7377TIP3    H146326   4.682   1.519   8.360  1.7027 -0.9095  1.0192
 7377TIP3    H246327   4.551   1.546   8.431  1.1916  0.1127 -0.2636
 7378TIP3   OH246328   1.486   5.901   7.042  0.1400 -0.4488 -0.5116
 7378TIP3    H146329   1.566   5.936   7.004 -0.3456  0.7279 -0.4910
 7378TIP3    H246330   1.516   5.834   7.104  1.1082  0.1204 -0.3475
 7379TIP3   OH246331   1.145   0.239   8.977 -0.8047 -0.2335  0.3272
 7379TIP3    H146332   1.155   0.165   9.037  0.6207  0.0194  0.4478
 7379TIP3    H246333   1.071   0.289   9.012 -0.5263 -0.5429  1.3951
 7380TIP3   OH246334   5.963   1.781   5.703  0.1243 -0.0706  0.2157
 7380TIP3    H146335   5.902   1.830   5.648  0.3362  0.5412  0.5108
 7380TIP3    H246336   5.908   1.748   5.775  0.1359  0.5065  0.4988
 7381TIP3   OH246337   6.155   5.282   6.408  0.1200  0.0087  0.4242
 7381TIP3    H146338   6.062   5.302   6.411  0.2747  0.8263  0.2915
 7381TIP3    H246339   6.187   5.330   6.331  0.8892  0.8520  1.2381
 7382TIP3   OH246340   3.025   5.550   6.367  0.7777 -0.4093  0.1926
 7382TIP3    H146341   3.051   5.464   6.399  1.5130 -0.7283 -1.1919
 7382TIP3    H246342   3.106   5.602   6.369  0.7302 -0.2862 -0.6052
 7383TIP3   OH246343   1.637   1.944   8.064 -0.1785 -0.2962  0.1192
 7383TIP3    H146344   1.662   1.965   7.974 -0.9058  1.1107  0.2200
 7383TIP3    H246345   1.716   1.905   8.102  0.3043 -0.4297 -0.9607
 7384TIP3   OH246346   1.410   2.080   8.947  0.3739  0.2187 -0.2452
 7384TIP3    H146347   1.450   1.995   8.963  1.2005  0.4573 -0.9438
 7384TIP3    H246348   1.398   2.118   9.034  0.1157 -0.5537  0.0635
 7385TIP3   OH246349   2.763   5.616   8.447 -0.3731  0.1477 -0.2936
 7385TIP3    H146350   2.793   5.563   8.520  0.1132  0.3673 -0.3275
 7385TIP3    H246351   2.738   5.700   8.486 -0.4488  0.1431 -0.3319
 7386TIP3   OH246352   6.605   0.602   6.492 -0.3663  0.3651  0.7254
 7386TIP3    H146353   6.686   0.554   6.479  1.4866  2.7681  2.5218
 7386TIP3    H246354   6.599   0.613   6.587 -1.3850  2.4749  0.4636
 7387TIP3   OH246355   4.256   1.651   5.705  0.3692  0.7551 -1.0120
 7387TIP3    H146356   4.255   1.556   5.693 -0.4103  0.9370 -2.7868
 7387TIP3    H246357   4.175   1.681   5.664 -0.7441  1.9995  1.8428
 7388TIP3   OH246358   4.372   5.806   6.406 -0.3344  0.4766  0.3670
 7388TIP3    H146359   4.453   5.809   6.458  0.7703 -2.1604 -1.0047
 7388TIP3    H246360   4.380   5.879   6.345  1.5343 -0.2317 -0.3357
 7389TIP3   OH246361   0.440   6.206   9.621  0.1339 -0.5689 -0.5587
 7389TIP3    H146362   0.527   6.167   9.632  0.0797 -1.1412 -1.9987
 7389TIP3    H246363   0.391   6.143   9.568 -1.0127 -0.0315 -0.1818
 7390TIP3   OH246364   0.098   3.333   7.949  0.2046  0.0920  0.1002
 7390TIP3    H146365   0.148   3.415   7.949  1.2501 -0.5179 -0.9073
 7390TIP3    H246366   0.006   3.361   7.948  0.4558  1.2376  2.3334
 7391TIP3   OH246367   6.375   1.059   6.446  0.5826  0.2079  0.4738
 7391TIP3    H146368   6.345   1.127   6.386 -0.9384 -1.7784 -1.1533
 7391TIP3    H246369   6.295   1.015   6.476  1.5607 -2.4063 -0.4824
 7392TIP3   OH246370   5.939   0.719   6.771  0.2305 -0.1714 -0.1194
 7392TIP3    H146371   6.021   0.704   6.724  0.2153  0.3816 -0.3234
 7392TIP3    H246372   5.887   0.775   6.713 -0.1882 -0.3057  0.1210
 7393TIP3   OH246373   5.830   4.541   5.612 -0.4573  0.1072  0.5117
 7393TIP3    H146374   5.799   4.604   5.547 -0.7807  1.6467  2.0713
 7393TIP3    H246375   5.754   4.526   5.668  0.1182 -0.3220  1.1795
 7394TIP3   OH246376   1.374   4.343   8.490  0.3712  1.0766  0.3634
 7394TIP3    H146377   1.419   4.364   8.408 -0.7401  0.0605 -0.5569
 7394TIP3    H246378   1.294   4.297   8.462 -0.8602  2.1387  1.9542
 7395TIP3   OH246379   6.584   4.356   6.739  0.3785  0.0959 -0.3383
 7395TIP3    H146380   6.557   4.276   6.783  1.0843 -1.0502 -1.8861
 7395TIP3    H246381   6.623   4.410   6.808 -1.1092 -0.3807  0.9311
 7396TIP3   OH246382   4.203   2.596   8.330  0.5965 -0.2417  0.2935
 7396TIP3    H146383   4.163   2.530   8.386  1.2850 -0.0423  1.0571
 7396TIP3    H246384   4.147   2.673   8.339  0.5373 -0.3063  0.4730
 7397TIP3   OH246385   1.488   3.032   7.128 -0.0752  0.2679  0.3148
 7397TIP3    H146386   1.577   2.997   7.117  0.0468  0.4607  0.6603
 7397TIP3    H246387   1.498   3.101   7.194 -0.4952  0.2414  0.4073
 7398TIP3   OH246388   6.356   6.484   8.263 -0.0359  0.6356 -0.0899
 7398TIP3    H146389   6.404   6.452   8.187  2.0640 -1.2685  1.8685
 7398TIP3    H246390   6.418   6.541   8.309 -0.6416  0.4507  1.0076
 7399TIP3   OH246391   0.999   6.019   7.480 -0.2129 -0.8883 -0.3708
 7399TIP3    H146392   0.934   6.085   7.454 -0.1869 -0.8830 -0.4231
 7399TIP3    H246393   1.074   6.036   7.423  0.1872 -0.3015  0.3239
 7400TIP3   OH246394   3.076   5.113   6.694 -0.6166 -0.4327 -0.7247
 7400TIP3    H146395   3.156   5.091   6.743 -0.1273  0.2913 -1.1741
 7400TIP3    H246396   3.005   5.101   6.757 -0.0385  0.0632  0.0454
 7401TIP3   OH246397   0.152   2.240   8.270  0.2291  0.2114  0.3366
 7401TIP3    H146398   0.093   2.306   8.233 -0.3373 -0.5463 -0.1637
 7401TIP3    H246399   0.122   2.229   8.360 -0.7287 -0.4879 -0.0366
 7402TIP3   OH246400   2.704   0.377   7.537  0.1608  0.2100 -0.0870
 7402TIP3    H146401   2.710   0.295   7.586  1.5503  0.2177 -0.1845
 7402TIP3    H246402   2.748   0.441   7.593 -0.0722  0.6800 -0.4359
 7403TIP3   OH246403   4.904   3.987   5.601  0.0429 -0.2554 -0.2468
 7403TIP3    H146404   4.932   3.902   5.566 -0.8056  0.0994 -1.8645
 7403TIP3    H246405   4.967   4.005   5.671  0.4147 -2.0777 -0.0518
 7404TIP3   OH246406   1.474   1.763   7.123  0.7887  0.2242 -0.8421
 7404TIP3    H146407   1.491   1.743   7.031  1.3042 -0.2815 -0.6432
 7404TIP3    H246408   1.463   1.678   7.165 -0.8092  0.4873 -0.6737
 7405TIP3   OH246409   0.623   0.684   7.359  0.3509  0.2622  0.6732
 7405TIP3    H146410   0.684   0.757   7.373  0.7035  0.6809 -2.3045
 7405TIP3    H246411   0.563   0.716   7.292  1.3687 -2.5515 -1.7914
 7406TIP3   OH246412   4.393   2.273   7.458  0.0266  0.1846  0.1203
 7406TIP3    H146413   4.431   2.317   7.535 -0.8290  1.5770 -0.2119
 7406TIP3    H246414   4.374   2.184   7.488  0.0088  0.6014  1.4178
 7407TIP3   OH246415   1.996   3.532   7.564  0.1773 -0.1854 -0.6245
 7407TIP3    H146416   2.044   3.599   7.515 -1.7846  2.4693  0.8482
 7407TIP3    H246417   2.062   3.496   7.624  0.5162  3.5168  1.5179
 7408TIP3   OH246418   3.413   4.033   6.913 -0.1796 -0.1409 -0.2550
 7408TIP3    H146419   3.380   3.946   6.935 -0.1945  0.2679  1.4737
 7408TIP3    H246420   3.507   4.029   6.932 -0.3406  0.4677  0.7819
 7409TIP3   OH246421   3.759   6.538   8.099  0.4294  0.5429  0.9295
 7409TIP3    H146422   3.757   6.449   8.134 -0.7165  0.3162  0.3517
 7409TIP3    H246423   3.789   6.528   8.009  0.1035  0.7151  0.7993
 7410TIP3   OH246424   4.945   3.424   8.036  0.8203 -0.2145  0.1752
 7410TIP3    H146425   4.934   3.442   8.129 -0.8696 -1.0221  0.1615
 7410TIP3    H246426   4.952   3.511   7.995  0.5575  0.1726  0.9393
 7411TIP3   OH246427   1.603   4.489   7.528  0.7653 -0.2056 -0.5124
 7411TIP3    H146428   1.641   4.409   7.492  2.1884  0.3999 -0.4019
 7411TIP3    H246429   1.575   4.539   7.451 -0.6151 -1.0153 -0.5638
 7412TIP3   OH246430   1.514   2.117   8.223 -0.4832 -0.0439 -0.0216
 7412TIP3    H146431   1.556   2.081   8.301 -0.1196  2.8213  1.2204
 7412TIP3    H246432   1.563   2.078   8.150  1.2902 -0.3739  1.2711
 7413TIP3   OH246433   5.475   6.663   7.763  0.6526 -0.7909  0.8854
 7413TIP3    H146434   5.479   6.759   7.761 -0.4344 -0.7136  1.4679
 7413TIP3    H246435   5.562   6.635   7.735  0.8077  0.3574  0.1189
 7414TIP3   OH246436   0.277   6.184   6.533  0.2342  0.0261  0.5317
 7414TIP3    H146437   0.226   6.165   6.454 -1.2375  0.9925  1.2190
 7414TIP3    H246438   0.292   6.279   6.529 -1.6366  0.4530  2.4111
 7415TIP3   OH246439   4.961   4.070   7.129  0.5866 -0.0500 -0.8090
 7415TIP3    H146440   4.981   4.135   7.196 -0.3511  1.5977 -2.0414
 7415TIP3    H246441   4.992   4.110   7.047  0.9886 -1.6476 -1.4824
 7416TIP3   OH246442   0.072   5.967   7.500  0.4899  0.2030  0.4791
 7416TIP3    H146443  -0.003   5.910   7.486 -1.0031  2.2606 -0.3313
 7416TIP3    H246444   0.140   5.932   7.442 -0.0752 -1.2003  0.6210
 7417TIP3   OH246445   2.536   4.484   8.031 -0.4139 -0.1014 -1.2157
 7417TIP3    H146446   2.579   4.399   8.043 -0.2105 -0.0963 -1.8674
 7417TIP3    H246447   2.450   4.473   8.072 -0.0002 -0.2778 -0.3635
 7418TIP3   OH246448   5.196   1.881   6.333  0.6275  0.0655 -0.1275
 7418TIP3    H146449   5.273   1.906   6.280 -0.9389  2.9166 -1.2736
 7418TIP3    H246450   5.132   1.850   6.268 -0.1505  0.3906  0.4731
 7419TIP3   OH246451   3.656   5.651   5.471  0.1059 -0.1380 -0.3086
 7419TIP3    H146452   3.622   5.576   5.422  1.5695 -0.6306 -0.6164
 7419TIP3    H246453   3.617   5.727   5.429 -0.8802 -0.6911 -0.4199
 7420TIP3   OH246454   2.421   1.318   8.018 -0.0426 -0.8756  0.0060
 7420TIP3    H146455   2.382   1.354   7.938  0.9012  1.7699  0.6175
 7420TIP3    H246456   2.513   1.302   7.996  0.6332  1.3734  0.8737
 7421TIP3   OH246457   4.154   2.268   7.932 -0.1758 -0.0251 -0.3764
 7421TIP3    H146458   4.203   2.341   7.969 -1.8065 -0.0864  2.1698
 7421TIP3    H246459   4.179   2.192   7.986 -0.2042 -0.8820 -1.5235
 7422TIP3   OH246460   6.168   3.694   6.931  0.6410  0.2962  0.4383
 7422TIP3    H146461   6.133   3.765   6.983  0.5799  0.9456 -0.4620
 7422TIP3    H246462   6.095   3.668   6.874  1.6851  2.0863 -1.9082
 7423TIP3   OH246463   1.025   5.965   7.734 -0.0571 -0.3091  0.1026
 7423TIP3    H146464   1.014   5.975   7.639 -2.7042  0.3846  0.4034
 7423TIP3    H246465   1.014   6.053   7.769 -1.9500 -0.9181  1.2026
 7424TIP3   OH246466   3.201   1.537   7.145 -0.5332 -0.2307  0.0177
 7424TIP3    H146467   3.292   1.557   7.168 -0.8497  0.0560  1.1138
 7424TIP3    H246468   3.200   1.533   7.050 -0.0134  2.9750 -0.2241
 7425TIP3   OH246469   4.823   5.418   6.906  0.3179  0.9941  0.0752
 7425TIP3    H146470   4.816   5.334   6.953 -0.6979  0.5432 -0.8397
 7425TIP3    H246471   4.912   5.449   6.925  0.2545  0.3657  1.5056
 7426TIP3   OH246472   4.557   3.682   6.143  0.1015  0.1046 -0.2038
 7426TIP3    H146473   4.542   3.745   6.073 -1.6100  0.9622  0.8648
 7426TIP3    H246474   4.512   3.603   6.115  1.9367 -0.5995 -1.3737
 7427TIP3   OH246475   3.356   6.271   5.487  0.0826  0.1525  0.5045
 7427TIP3    H146476   3.269   6.234   5.473  0.1444 -0.0474  0.6504
 7427TIP3    H246477   3.417   6.200   5.470  0.1922  0.1259  0.9751
 7428TIP3   OH246478   6.663   2.152   6.187  0.6378 -0.0578 -0.4879
 7428TIP3    H146479   6.659   2.155   6.283  0.3194 -0.7085 -0.4707
 7428TIP3    H246480   6.744   2.197   6.165  2.2207 -2.3403  0.2603
 7429TIP3   OH246481   1.826   0.370   6.233 -0.0082 -0.2754  0.1118
 7429TIP3    H146482   1.733   0.348   6.241  0.0936 -1.8168 -2.0041
 7429TIP3    H246483   1.871   0.304   6.286 -0.0799  0.0895  0.6323
 7430TIP3   OH246484   0.856   0.839   6.696 -0.1486 -0.3064 -0.1586
 7430TIP3    H146485   0.826   0.885   6.774  0.0018 -1.2482  0.4706
 7430TIP3    H246486   0.800   0.762   6.690  1.0495 -1.2306  0.1086
 7431TIP3   OH246487   6.006   0.353   6.353 -0.1885 -0.0895  0.8871
 7431TIP3    H146488   6.011   0.367   6.447  0.1774 -0.6877  0.9593
 7431TIP3    H246489   5.913   0.341   6.335 -0.5388  2.2309  0.8392
 7432TIP3   OH246490   3.960   4.081   8.419 -0.4187  0.2229  0.1496
 7432TIP3    H146491   3.878   4.073   8.370  0.9095  0.1977 -2.2118
 7432TIP3    H246492   3.997   4.165   8.391 -0.5763  1.2934  2.8178
 7433TIP3   OH246493   6.499   5.942   8.006 -0.0421 -0.1992  0.2887
 7433TIP3    H146494   6.451   5.879   7.953 -2.5553  1.4200  0.4872
 7433TIP3    H246495   6.564   5.979   7.946  0.6965 -2.0977 -0.1371
 7434TIP3   OH246496   1.494   2.148   7.647 -0.1193 -0.6996 -0.0102
 7434TIP3    H146497   1.421   2.207   7.628 -0.0403  0.2964  2.3369
 7434TIP3    H246498   1.571   2.194   7.612 -0.3065 -0.4195 -0.0605
 7435TIP3   OH246499   2.920   2.919   5.879 -0.0037 -0.0697  0.4877
 7435TIP3    H146500   2.901   2.905   5.786  0.2623 -0.0044  0.4240
 7435TIP3    H246501   2.844   2.968   5.911 -1.6517 -2.7687  1.0394
 7436TIP3   OH246502   6.523   3.591   8.204 -0.1421  0.4663 -0.0689
 7436TIP3    H146503   6.527   3.664   8.267 -0.1820 -0.7190  1.3579
 7436TIP3    H246504   6.611   3.555   8.205 -0.4560 -0.3125  0.2535
 7437TIP3   OH246505   4.690   6.162   6.580 -0.3090 -0.6775  0.2727
 7437TIP3    H146506   4.679   6.221   6.655  0.5932 -0.7046  0.4390
 7437TIP3    H246507   4.749   6.209   6.521 -1.4148 -0.4462 -0.6649
 7438TIP3   OH246508   1.697   5.512   7.257  0.0750  0.4007 -0.9856
 7438TIP3    H146509   1.683   5.491   7.350 -0.3620  0.9591 -0.9216
 7438TIP3    H246510   1.779   5.560   7.255  0.8517 -0.8952 -1.0763
 7439TIP3   OH246511   1.639   4.097   6.520  0.6052  0.1667 -0.3894
 7439TIP3    H146512   1.571   4.158   6.547  0.1642 -0.5758  0.2097
 7439TIP3    H246513   1.602   4.011   6.536  0.8323 -0.2996 -2.1719
 7440TIP3   OH246514   0.721   3.890   5.966 -0.4095  0.0055 -0.3774
 7440TIP3    H146515   0.757   3.884   6.055 -1.1923  1.2545  0.0524
 7440TIP3    H246516   0.759   3.815   5.920  0.0413 -0.6586  0.9983
 7441TIP3   OH246517   0.673   4.063   8.784  0.2410  0.8190 -0.0838
 7441TIP3    H146518   0.640   4.150   8.805 -1.6628 -0.1056  1.0130
 7441TIP3    H246519   0.638   4.046   8.696 -1.2563  0.3544  0.5634
 7442TIP3   OH246520   5.075   5.610   7.529 -0.0893 -0.3391  0.1787
 7442TIP3    H146521   5.104   5.697   7.502 -0.9647  0.1035  0.6133
 7442TIP3    H246522   5.113   5.550   7.464  2.5290  0.0694  1.2326
 7443TIP3   OH246523   1.008   6.320   8.512 -0.5466  0.0389 -0.3163
 7443TIP3    H146524   1.012   6.309   8.417 -1.0231 -0.3744 -0.2902
 7443TIP3    H246525   0.917   6.346   8.530 -0.2128  1.1037 -0.0703
 7444TIP3   OH246526   3.725   4.847   9.072 -0.4600 -0.0122 -0.1623
 7444TIP3    H146527   3.817   4.835   9.098  0.3552 -1.2707 -3.1755
 7444TIP3    H246528   3.677   4.783   9.126  0.6237 -0.2958  0.5024
 7445TIP3   OH246529   2.296   0.861   8.489  0.0811 -0.1070 -0.1810
 7445TIP3    H146530   2.262   0.861   8.399  0.1818  1.3491 -0.2342
 7445TIP3    H246531   2.234   0.915   8.538  0.2579 -0.5566  0.5557
 7446TIP3   OH246532   6.586   3.789   7.151  0.5267  0.3795 -0.0133
 7446TIP3    H146533   6.499   3.830   7.154  0.5860  0.6107 -1.1063
 7446TIP3    H246534   6.647   3.859   7.174  0.4729  0.3410  0.2591
 7447TIP3   OH246535   0.111   2.767   8.125 -0.0662 -0.5303 -0.0851
 7447TIP3    H146536   0.068   2.825   8.062  0.2232 -1.6251 -1.3369
 7447TIP3    H246537   0.064   2.782   8.207 -0.4390  0.9506 -0.5333
 7448TIP3   OH246538   4.387   3.101   6.382  0.3524  0.2233  0.7749
 7448TIP3    H146539   4.479   3.076   6.367 -0.2109 -0.4240 -2.3625
 7448TIP3    H246540   4.348   3.024   6.423  1.4138  0.9552  3.2931
 7449TIP3   OH246541   3.113   3.505   7.054  0.6096  0.8532 -0.0896
 7449TIP3    H146542   3.140   3.414   7.041  1.5816  0.9208  1.2969
 7449TIP3    H246543   3.086   3.535   6.967  1.8319 -0.2589 -0.8787
 7450TIP3   OH246544   4.637   6.656   6.396  0.0325  0.5137 -0.7132
 7450TIP3    H146545   4.718   6.605   6.401 -0.5978 -0.5481 -1.1341
 7450TIP3    H246546   4.644   6.717   6.470  2.1783  1.9237 -1.9618
 7451TIP3   OH246547   1.967   0.961   8.861  0.2315  0.1328  0.1927
 7451TIP3    H146548   2.021   0.907   8.918 -0.8039 -1.0629  0.0921
 7451TIP3    H246549   1.893   0.987   8.915 -0.3338 -0.3157 -0.3462
 7452TIP3   OH246550   0.083   4.348   6.885  0.1675  0.1194 -0.2228
 7452TIP3    H146551   0.074   4.348   6.980 -2.4660  1.0697 -0.3854
 7452TIP3    H246552   0.058   4.259   6.858  2.2750 -0.5990 -0.0173
 7453TIP3   OH246553   1.455   2.208   7.266  0.0579 -0.6840 -0.3379
 7453TIP3    H146554   1.475   2.301   7.256 -0.4812 -0.2232  2.2925
 7453TIP3    H246555   1.535   2.164   7.237  1.5132  0.7529  1.2723
 7454TIP3   OH246556   2.034   3.935   6.971 -0.0477 -0.1221 -0.0992
 7454TIP3    H146557   1.990   3.974   6.896  0.6780 -1.5768 -1.3335
 7454TIP3    H246558   2.120   3.911   6.939  0.9842  0.8962  1.7409
 7455TIP3   OH246559   2.610   6.351   6.525  0.1639  0.2170  0.5166
 7455TIP3    H146560   2.537   6.289   6.532  0.5343 -0.0343  3.2122
 7455TIP3    H246561   2.650   6.331   6.440 -1.8506 -0.7885 -0.2740
 7456TIP3   OH246562   6.284   5.691   9.029 -0.2148 -0.3900  0.1200
 7456TIP3    H146563   6.228   5.730   9.096 -0.4168  1.1752 -0.9028
 7456TIP3    H246564   6.371   5.688   9.069 -0.2215  1.0585  0.2800
 7457TIP3   OH246565   0.041   2.988   7.977  0.1804  0.1845 -0.0469
 7457TIP3    H146566   0.042   2.994   7.881  0.5113  0.3913 -0.0339
 7457TIP3    H246567   0.065   3.075   8.006 -0.7478  0.3545  0.2425
 7458TIP3   OH246568   3.609   4.128   5.946  0.1533  0.2871  0.0768
 7458TIP3    H146569   3.585   4.055   5.890  1.4686  0.3868 -0.6468
 7458TIP3    H246570   3.669   4.091   6.011 -2.2520 -0.0953  2.2733
 7459TIP3   OH246571   5.620   0.643   7.298  0.0120 -0.3736  0.0129
 7459TIP3    H146572   5.632   0.555   7.333  0.7341 -0.2334  0.1239
 7459TIP3    H246573   5.687   0.653   7.231 -0.3761 -0.0777 -0.3441
 7460TIP3   OH246574   3.813   2.628   8.546 -0.1609  0.6776 -0.1248
 7460TIP3    H146575   3.790   2.718   8.568 -0.7005 -0.1221  3.1808
 7460TIP3    H246576   3.836   2.588   8.630  1.8248 -1.8225 -1.6996
 7461TIP3   OH246577   1.284   5.387   8.673 -0.0012 -0.2890 -0.4520
 7461TIP3    H146578   1.299   5.293   8.662 -0.4543 -0.4050 -0.1011
 7461TIP3    H246579   1.191   5.399   8.652  0.0313  0.0640 -0.3940
 7462TIP3   OH246580   6.613   2.276   8.159 -0.2009 -0.7220  0.0586
 7462TIP3    H146581   6.648   2.218   8.226 -0.3051 -0.4483  0.3540
 7462TIP3    H246582   6.599   2.359   8.204 -0.0998 -0.4816 -0.3454
 7463TIP3   OH246583   4.461   1.222   7.545 -0.4092 -0.2923 -0.6368
 7463TIP3    H146584   4.387   1.213   7.485 -0.6058 -1.3416 -0.2517
 7463TIP3    H246585   4.529   1.165   7.509  0.4281  1.0355 -1.2643
 7464TIP3   OH246586   6.270   0.034   8.337 -0.1635 -0.3666 -0.0562
 7464TIP3    H146587   6.257  -0.045   8.285  1.3783 -0.7807  0.1341
 7464TIP3    H246588   6.282   0.002   8.427  0.2935  0.0757  0.0465
 7465TIP3   OH246589   5.818   6.371   7.995 -0.1289 -0.2498 -0.1516
 7465TIP3    H146590   5.740   6.426   8.005  1.1468  1.5061  0.8260
 7465TIP3    H246591   5.815   6.341   7.904 -0.6199  1.9498 -0.9309
 7466TIP3   OH246592   2.692   2.753   5.856  0.3406  0.1880 -0.3904
 7466TIP3    H146593   2.729   2.768   5.769  1.1836  0.6296  0.0281
 7466TIP3    H246594   2.765   2.717   5.906  0.0616  0.5927  0.3178
 7467TIP3   OH246595   0.374   1.157   6.442  0.4773  0.7554 -0.1340
 7467TIP3    H146596   0.389   1.063   6.454  0.1627  0.8305  0.8987
 7467TIP3    H246597   0.318   1.162   6.365 -0.9184 -0.0314  0.7831
 7468TIP3   OH246598   0.227   1.583   7.532 -0.2481  0.0015 -0.0571
 7468TIP3    H146599   0.299   1.524   7.510  0.6007  1.1086 -0.3787
 7468TIP3    H246600   0.269   1.655   7.579 -0.7521  1.7301 -2.0607
 7469TIP3   OH246601   6.312   6.225   7.359  0.2021 -0.1024 -0.1506
 7469TIP3    H146602   6.308   6.235   7.454 -1.2989 -2.4283  0.1196
 7469TIP3    H246603   6.288   6.311   7.325  0.9060  0.8256  1.5537
 7470TIP3   OH246604   6.384   1.401   9.045 -0.0685 -0.5358  0.0915
 7470TIP3    H146605   6.395   1.486   9.088 -0.3053 -0.5907  0.2656
 7470TIP3    H246606   6.403   1.418   8.953 -0.4143 -0.2267  0.0750
 7471TIP3   OH246607   3.723   0.266   6.857  0.4889 -0.6520  0.3046
 7471TIP3    H146608   3.688   0.342   6.903  0.5606 -0.2222 -0.3437
 7471TIP3    H246609   3.776   0.220   6.923 -0.5207 -0.8022  1.0281
 7472TIP3   OH246610   2.762   2.457   6.413 -0.1124  0.1975 -0.2051
 7472TIP3    H146611   2.666   2.458   6.409 -0.0843  0.3242 -1.4139
 7472TIP3    H246612   2.784   2.514   6.486 -0.9208  2.3915 -1.5773
 7473TIP3   OH246613   6.116   2.625   7.181  0.6117  0.4968 -0.3636
 7473TIP3    H146614   6.112   2.559   7.250 -0.6468  1.9259  1.0077
 7473TIP3    H246615   6.026   2.630   7.147  0.6539  1.5748 -0.3458
 7474TIP3   OH246616   3.368   5.232   8.590 -0.0751 -0.3382 -0.2192
 7474TIP3    H146617   3.409   5.160   8.543 -1.4478 -1.0847 -0.3232
 7474TIP3    H246618   3.380   5.211   8.682  0.1285 -0.3400 -0.2454
 7475TIP3   OH246619   0.639   5.647   6.120  0.4963 -0.0093 -0.9021
 7475TIP3    H146620   0.592   5.593   6.183  1.9556 -1.3379 -0.8993
 7475TIP3    H246621   0.726   5.658   6.158  0.0035  3.2526 -0.3941
 7476TIP3   OH246622   3.180   3.828   6.661 -0.2390  0.2310 -0.5405
 7476TIP3    H146623   3.140   3.915   6.658  0.5412  0.6479  0.6342
 7476TIP3    H246624   3.274   3.845   6.661 -0.0710 -0.6451 -0.8579
 7477TIP3   OH246625   2.957   1.625   8.118 -0.7526  0.5296 -0.1368
 7477TIP3    H146626   2.947   1.555   8.183 -1.1714  1.2995  0.6710
 7477TIP3    H246627   2.945   1.706   8.169  0.0953  1.2023 -0.9699
 7478TIP3   OH246628   2.148   3.921   7.206  0.5739  0.3318 -0.7552
 7478TIP3    H146629   2.098   3.946   7.128 -0.2632 -1.1499 -0.7198
 7478TIP3    H246630   2.240   3.935   7.181  0.4039 -1.2249 -2.4503
 7479TIP3   OH246631   3.345   0.933  13.956 -0.6977  0.2936 -0.1375
 7479TIP3    H146632   3.360   0.975  13.871 -1.1854  0.9585  0.0947
 7479TIP3    H246633   3.268   0.978  13.992  0.4955  1.1738  1.4112
 7480TIP3   OH246634   1.992   6.039   7.961  0.0454  0.0838 -0.3303
 7480TIP3    H146635   2.036   6.091   8.028  0.2302  0.6872 -0.9174
 7480TIP3    H246636   2.061   5.987   7.921 -0.1329 -0.6127  0.2315
 7481TIP3   OH246637   2.587   6.736   6.921  0.2524 -0.0721 -0.2795
 7481TIP3    H146638   2.607   6.698   6.835 -0.4917  1.1535 -1.0183
 7481TIP3    H246639   2.523   6.805   6.903 -0.2289 -0.0557  1.3166
 7482TIP3   OH246640   3.814   6.140   7.189  0.2691 -0.3306  0.1529
 7482TIP3    H146641   3.760   6.215   7.165 -0.3218 -1.0801 -0.9355
 7482TIP3    H246642   3.757   6.064   7.177  1.4419 -1.1149 -0.7001
 7483TIP3   OH246643   0.157   6.253   6.985 -0.1428  0.5086  0.3337
 7483TIP3    H146644   0.173   6.329   7.041 -0.9431  1.4042 -0.6152
 7483TIP3    H246645   0.073   6.218   7.016 -0.7027  1.1429 -0.4175
 7484TIP3   OH246646   4.523   5.878   5.645 -0.0285 -0.2151  0.2592
 7484TIP3    H146647   4.550   5.790   5.620  0.1212  0.2367 -1.2520
 7484TIP3    H246648   4.602   5.931   5.637 -0.5316  0.4168 -0.7266
 7485TIP3   OH246649   3.514   5.464   8.796  0.7443 -0.2530  0.1640
 7485TIP3    H146650   3.524   5.472   8.701  0.8004 -1.6673  0.0265
 7485TIP3    H246651   3.474   5.378   8.808 -1.2127  0.7604  1.3221
 7486TIP3   OH246652   5.417   0.331   6.727  0.1917 -0.0683 -0.5557
 7486TIP3    H146653   5.368   0.395   6.675  1.2327 -1.3097 -3.2020
 7486TIP3    H246654   5.355   0.259   6.741  0.1849 -0.1159 -0.8326
 7487TIP3   OH246655   4.411   1.779   6.613 -0.5319 -0.0361 -0.3240
 7487TIP3    H146656   4.475   1.825   6.558 -0.8124  0.5481 -0.1691
 7487TIP3    H246657   4.382   1.844   6.676  0.0885 -0.8159  0.7938
 7488TIP3   OH246658   1.002   4.163   7.877  0.6116 -0.0381  0.1969
 7488TIP3    H146659   1.013   4.109   7.799  0.5077 -0.0672  0.2022
 7488TIP3    H246660   1.080   4.219   7.880  0.4918  0.1409 -0.0648
 7489TIP3   OH246661   1.323   0.056   5.907  0.6186  0.4135  0.1805
 7489TIP3    H146662   1.277   0.126   5.953 -1.0026  1.0897 -2.3106
 7489TIP3    H246663   1.267  -0.021   5.920 -0.3511  0.8219 -1.3416
 7490TIP3   OH246664   1.254   2.522   5.770  0.0631  0.0445 -0.2204
 7490TIP3    H146665   1.273   2.597   5.826  2.1396  0.2969 -1.1843
 7490TIP3    H246666   1.171   2.543   5.728  1.3546  2.5796 -1.6859
 7491TIP3   OH246667   0.042   6.400   8.726  0.1237  0.2104 -0.1900
 7491TIP3    H146668   0.024   6.368   8.814 -0.3257  0.4250 -0.1983
 7491TIP3    H246669   0.030   6.495   8.732 -0.3043  0.1847 -0.5703
 7492TIP3   OH246670   4.827   5.257   8.773  0.3601  0.1059 -0.5824
 7492TIP3    H146671   4.808   5.351   8.764  1.4814  0.4857  0.7002
 7492TIP3    H246672   4.744   5.214   8.752  0.2496  1.2742 -2.8296
 7493TIP3   OH246673   2.961   0.724   7.496  0.2688  0.5775  0.3218
 7493TIP3    H146674   2.961   0.710   7.402 -0.6963  0.4888  0.3195
 7493TIP3    H246675   2.887   0.783   7.511 -0.8698 -0.9782  1.2155
 7494TIP3   OH246676   5.938   1.051   7.321  0.0425 -0.1273  0.0551
 7494TIP3    H146677   5.865   0.991   7.336  0.2054 -0.3517 -0.0440
 7494TIP3    H246678   5.934   1.070   7.227  0.2687 -0.3465  0.0005
 7495TIP3   OH246679   6.752   0.666   8.836  0.4601  0.0820  0.0345
 7495TIP3    H146680   6.668   0.661   8.790 -0.8586 -1.3819  2.4020
 7495TIP3    H246681   6.792   0.580   8.822  0.1789 -0.2724  1.2941
 7496TIP3   OH246682   0.633   1.894   6.628 -0.1508 -0.2056 -0.2302
 7496TIP3    H146683   0.666   1.804   6.627 -0.0088 -0.1547 -1.6827
 7496TIP3    H246684   0.711   1.949   6.620 -0.3774 -0.0252 -1.3869
 7497TIP3   OH246685   4.453   2.215   8.368  0.7157  0.4344  0.2062
 7497TIP3    H146686   4.480   2.283   8.430 -0.0960 -1.6441  3.0494
 7497TIP3    H246687   4.371   2.249   8.330  0.5029  1.1999  1.3070
 7498TIP3   OH246688   4.956   0.444   6.193 -0.5512 -0.0920 -0.1578
 7498TIP3    H146689   5.008   0.496   6.254 -1.8856  2.0175 -0.6739
 7498TIP3    H246690   4.891   0.401   6.248  1.3038 -2.3250  0.4240
 7499TIP3   OH246691   1.918   1.661   8.513  0.4242 -0.4406  0.6118
 7499TIP3    H146692   1.883   1.579   8.477  2.2957 -0.3655 -1.5559
 7499TIP3    H246693   1.899   1.655   8.607  0.2010 -3.1877  0.4823
 7500TIP3   OH246694   1.078   6.049   6.945 -0.0052  0.3088 -0.3587
 7500TIP3    H146695   1.160   6.037   6.993 -0.5030 -0.4479  0.3420
 7500TIP3    H246696   1.011   6.016   7.005 -0.6458 -0.7219 -1.5901
 7501TIP3   OH246697   2.745   5.751   7.457  0.0257 -0.0851 -0.0974
 7501TIP3    H146698   2.734   5.730   7.365 -1.3748 -0.0373  0.0273
 7501TIP3    H246699   2.671   5.809   7.477 -0.1971 -0.7834  1.2499
 7502TIP3   OH246700   3.904   5.620   8.718  0.4398 -0.7549 -0.1638
 7502TIP3    H146701   3.999   5.633   8.717  0.4661 -0.9031 -1.8984
 7502TIP3    H246702   3.878   5.620   8.626 -1.4193  0.4079  0.2974
 7503TIP3   OH246703   5.589   2.665   6.459 -0.2182 -0.0754  0.1191
 7503TIP3    H146704   5.566   2.718   6.534  2.1564  0.4459  0.5711
 7503TIP3    H246705   5.583   2.574   6.490 -2.6995 -0.0954 -0.1890
 7504TIP3   OH246706   4.482   0.517   7.709 -0.2928  0.1589  0.1357
 7504TIP3    H146707   4.389   0.526   7.689  0.1162  0.6791 -1.7625
 7504TIP3    H246708   4.485   0.510   7.805 -2.4003 -1.8169  0.1560
 7505TIP3   OH246709   5.567   2.156   7.445  0.3674 -0.1289  0.2324
 7505TIP3    H146710   5.542   2.216   7.375 -2.0009 -0.3237  0.8204
 7505TIP3    H246711   5.566   2.070   7.403 -0.5036 -0.1839  0.3353
 7506TIP3   OH246712   3.708   3.475   6.623  0.1711 -0.2565  0.3307
 7506TIP3    H146713   3.737   3.423   6.548  0.5992 -1.1167  1.0873
 7506TIP3    H246714   3.661   3.413   6.679  1.2085  0.0165  1.5455
 7507TIP3   OH246715   4.764   1.849   7.306  0.6383  0.1746  0.2115
 7507TIP3    H146716   4.774   1.943   7.321  1.0571  0.5712 -2.1991
 7507TIP3    H246717   4.849   1.812   7.331 -0.0700  0.1181  2.8327
 7508TIP3   OH246718   5.783   4.075   6.067  0.6246  0.5791  0.4444
 7508TIP3    H146719   5.845   4.125   6.120 -0.0029  1.0394  0.7550
 7508TIP3    H246720   5.730   4.141   6.022  1.3246  0.2102 -1.0044
 7509TIP3   OH246721   0.534   2.600   6.191  0.1417  0.1184  0.4996
 7509TIP3    H146722   0.469   2.596   6.261 -1.8526 -2.4056 -1.3104
 7509TIP3    H246723   0.557   2.508   6.174  0.5168  0.6071 -2.1190
 7510TIP3   OH246724   0.068   5.649   8.299  0.0502 -0.0233 -0.3135
 7510TIP3    H146725   0.137   5.619   8.359 -0.8009 -2.1524 -0.3156
 7510TIP3    H246726   0.014   5.571   8.284 -0.9625  0.9813 -2.2246
 7511TIP3   OH246727   5.854   2.693   6.011 -0.0590 -0.4842 -0.5541
 7511TIP3    H146728   5.786   2.760   6.005  2.0127  1.9264  0.6907
 7511TIP3    H246729   5.872   2.669   5.921 -2.7407 -1.4719 -0.8940
 7512TIP3   OH246730   2.908   4.764   5.800 -0.0415  0.5054 -0.4382
 7512TIP3    H146731   2.915   4.679   5.844 -1.3068  1.1108  0.9825
 7512TIP3    H246732   2.998   4.797   5.799  0.1781  0.0176  0.7927
 7513TIP3   OH246733   0.979   2.872   6.061 -0.6011  0.6684 -0.3212
 7513TIP3    H146734   1.064   2.887   6.020 -0.0364 -0.0675  0.5434
 7513TIP3    H246735   0.938   2.959   6.064 -0.1750  0.9275 -1.3392
 7514TIP3   OH246736   6.157   0.707   6.019  0.1671 -0.5378 -0.0444
 7514TIP3    H146737   6.131   0.641   5.955 -0.5571  0.0889 -0.4296
 7514TIP3    H246738   6.166   0.659   6.101 -0.7136 -1.0565 -0.2356
 7515TIP3   OH246739   0.879   3.779   6.518  0.0281  0.6053 -0.4117
 7515TIP3    H146740   0.967   3.768   6.555  0.3386  1.1615 -0.9746
 7515TIP3    H246741   0.842   3.853   6.566  0.2038  0.9394 -0.7866
 7516TIP3   OH246742   1.203   2.083   7.354 -0.0767  0.4512  0.2039
 7516TIP3    H146743   1.220   2.176   7.336  0.3457  0.2664 -0.3740
 7516TIP3    H246744   1.135   2.084   7.422 -0.7838  1.1800 -0.4918
 7517TIP3   OH246745   5.318   0.271   5.912  0.3037 -0.5445 -0.0845
 7517TIP3    H146746   5.245   0.319   5.952  0.4317 -0.8296  0.5120
 7517TIP3    H246747   5.336   0.318   5.831  0.8254  0.8085  0.7633
 7518TIP3   OH246748   3.089   5.478   8.730  0.2039  0.0265  0.2663
 7518TIP3    H146749   3.150   5.537   8.684  0.1595 -0.1896 -0.0761
 7518TIP3    H246750   3.016   5.534   8.756  0.6011  0.3107  0.7740
 7519TIP3   OH246751   0.882   4.005   7.626 -0.0885  0.6345 -0.3999
 7519TIP3    H146752   0.795   4.045   7.624 -0.8370 -0.8566  0.3020
 7519TIP3    H246753   0.869   3.922   7.673  1.3657 -0.4319 -1.7657
 7520TIP3   OH246754   0.147   0.075   6.431 -0.1917 -0.0276 -0.3068
 7520TIP3    H146755   0.222   0.127   6.463 -2.1343  2.1886  1.0369
 7520TIP3    H246756   0.135   0.008   6.498  0.4354 -0.2656 -0.4220
 7521TIP3   OH246757   5.842   6.042   5.428  0.8326 -0.1151 -0.0007
 7521TIP3    H146758   5.798   6.126   5.445  2.3315  0.9969 -1.2803
 7521TIP3    H246759   5.918   6.043   5.486  1.1145 -0.3626 -0.3601
 7522TIP3   OH246760   4.060   3.028   7.236  0.3405  0.2243 -0.2217
 7522TIP3    H146761   4.139   3.073   7.206  0.3886 -0.2802 -0.8993
 7522TIP3    H246762   4.088   2.937   7.248  0.6365  0.5860  2.5876
 7523TIP3   OH246763   0.335   4.889   7.822  0.1509  0.3911 -0.1068
 7523TIP3    H146764   0.385   4.970   7.811  1.7004 -0.3866  1.0379
 7523TIP3    H246765   0.359   4.836   7.746  0.4766  0.3098  0.0550
 7524TIP3   OH246766   5.767   4.951   7.042 -0.3686  0.0308  0.2433
 7524TIP3    H146767   5.740   5.002   6.965 -0.9238  0.0640  0.4539
 7524TIP3    H246768   5.722   4.993   7.115 -2.6545 -2.0789  0.1495
 7525TIP3   OH246769   3.353   3.931   7.749  0.5350  0.2654  0.0840
 7525TIP3    H146770   3.288   3.993   7.715  0.3722  0.8375  1.3797
 7525TIP3    H246771   3.309   3.888   7.822  1.4568  0.3138  0.6758
 7526TIP3   OH246772   2.200   4.734   5.795 -0.6385  0.2806  0.0036
 7526TIP3    H146773   2.276   4.740   5.853 -1.0794 -0.2357  0.6392
 7526TIP3    H246774   2.126   4.718   5.853 -1.0326 -0.6706 -0.7281
 7527TIP3   OH246775   6.233   4.659   6.689 -0.6501  0.0216  0.5657
 7527TIP3    H146776   6.155   4.650   6.745 -0.8276 -0.3748  0.2591
 7527TIP3    H246777   6.218   4.740   6.641 -0.9168 -0.0994  0.4436
 7528TIP3   OH246778   4.378   4.410   6.800  0.0141  0.0425  0.1384
 7528TIP3    H146779   4.304   4.470   6.806  0.8576  0.9910  1.6402
 7528TIP3    H246780   4.412   4.423   6.711 -1.2345  0.0171 -0.3675
 7529TIP3   OH246781   4.242   6.245   8.013 -0.2640 -0.1391  0.2833
 7529TIP3    H146782   4.184   6.303   7.964 -1.8905 -0.4308  1.7510
 7529TIP3    H246783   4.225   6.158   7.978  1.1807  0.0504 -0.9888
 7530TIP3   OH246784   0.312   4.134   7.186 -0.5060  0.1466  0.4858
 7530TIP3    H146785   0.300   4.214   7.134  0.7423 -0.0882 -0.2083
 7530TIP3    H246786   0.365   4.077   7.130  1.5642  0.1802  2.2571
 7531TIP3   OH246787   1.243   2.947   8.354  0.0586 -0.2311  0.8294
 7531TIP3    H146788   1.160   2.922   8.394 -0.4584  0.1889  0.0503
 7531TIP3    H246789   1.235   3.042   8.340  0.5007 -0.2561  0.3665
 7532TIP3   OH246790   6.262   0.761   6.454  0.2595  0.0399  0.5536
 7532TIP3    H146791   6.279   0.682   6.506 -1.6312  0.1353  1.4085
 7532TIP3    H246792   6.217   0.820   6.514  1.6457  1.8327 -0.0578
 7533TIP3   OH246793   0.578   4.301   8.191 -0.1817 -0.6498  0.1132
 7533TIP3    H146794   0.626   4.236   8.242 -1.4041 -3.9426 -2.5794
 7533TIP3    H246795   0.642   4.335   8.128 -0.3585 -2.1046 -0.8937
 7534TIP3   OH246796   4.542   4.698   6.040  0.3407 -0.2336 -0.3987
 7534TIP3    H146797   4.466   4.707   6.097  0.9075 -0.9547  0.4912
 7534TIP3    H246798   4.549   4.604   6.023  1.4837 -0.2741  0.1773
 7535TIP3   OH246799   3.499   5.091   5.869 -0.0889  0.5873  0.0582
 7535TIP3    H146800   3.499   4.995   5.866  2.2663  0.5432 -1.8714
 7535TIP3    H246801   3.431   5.116   5.807 -1.9602  0.2636  1.8718
 7536TIP3   OH246802   2.203   4.792   9.705  0.0664  0.1196  0.0131
 7536TIP3    H146803   2.143   4.718   9.712  0.3282 -0.3552 -2.0696
 7536TIP3    H246804   2.146   4.868   9.692 -0.1583 -0.2526 -1.3957
 7537TIP3   OH246805   2.691   2.290   7.350  0.0078  0.2582  0.1658
 7537TIP3    H146806   2.661   2.255   7.266  0.8548  0.2235 -0.1348
 7537TIP3    H246807   2.663   2.225   7.415  0.3884 -0.3093 -0.2312
 7538TIP3   OH246808   4.226   3.362   7.813 -0.2113  0.1819 -1.1097
 7538TIP3    H146809   4.196   3.272   7.829 -1.0590  0.3084 -1.8801
 7538TIP3    H246810   4.296   3.352   7.748  1.4718 -0.1117  0.6641
 7539TIP3   OH246811   6.360   3.376   5.884  0.6207 -0.1552 -0.7848
 7539TIP3    H146812   6.411   3.456   5.874 -0.2297  0.6208  0.7382
 7539TIP3    H246813   6.370   3.331   5.800  2.5357  0.6842 -1.0656
 7540TIP3   OH246814   1.505   2.099   6.036  0.3113  0.6021  0.2599
 7540TIP3    H146815   1.463   2.013   6.044  0.4650  0.6257  1.4395
 7540TIP3    H246816   1.451   2.146   5.972  1.0872 -0.8674 -1.5678
 7541TIP3   OH246817   3.446   1.935   5.966 -0.2676 -0.4712 -0.4302
 7541TIP3    H146818   3.473   1.902   6.052  0.1227  0.8616 -0.0137
 7541TIP3    H246819   3.519   1.991   5.938 -0.8360 -0.0816 -1.1623
 7542TIP3   OH246820   0.563   1.471   8.987 -0.0721  0.0122 -0.6794
 7542TIP3    H146821   0.598   1.391   8.948  1.5026 -0.3853  1.3843
 7542TIP3    H246822   0.628   1.538   8.964 -0.6341  0.4039 -1.1581
 7543TIP3   OH246823   3.735   0.671   8.856  0.3082 -0.4303  0.0637
 7543TIP3    H146824   3.824   0.680   8.889  0.4768 -1.3858 -0.1014
 7543TIP3    H246825   3.745   0.654   8.763  0.0842 -2.5926  0.3803
 7544TIP3   OH246826   2.331   5.970   6.491  0.2973  0.0105 -0.8921
 7544TIP3    H146827   2.403   5.935   6.438  1.9200  1.7803 -0.0065
 7544TIP3    H246828   2.351   6.063   6.499 -0.6438  0.0622  1.6555
 7545TIP3   OH246829   0.694   3.781   8.051 -0.7736 -0.2209 -0.2418
 7545TIP3    H146830   0.646   3.863   8.062 -0.5182 -0.0629 -0.3023
 7545TIP3    H246831   0.723   3.758   8.139 -0.0031  0.2685 -0.3600
 7546TIP3   OH246832   1.143   0.621   8.053 -0.1396  0.0058  0.3406
 7546TIP3    H146833   1.127   0.555   7.986  0.3840  0.3981 -0.1752
 7546TIP3    H246834   1.149   0.704   8.006  3.5149 -0.0753  0.3681
 7547TIP3   OH246835   3.440   5.876   7.058 -0.0735 -1.3106  0.2829
 7547TIP3    H146836   3.528   5.891   7.092  0.5851 -1.7151 -1.1602
 7547TIP3    H246837   3.393   5.835   7.130  0.3983  0.3908  1.6422
 7548TIP3   OH246838   3.606   5.119   7.308 -0.2488 -0.2635 -0.1658
 7548TIP3    H146839   3.562   5.118   7.393  3.0999 -0.0978  1.7408
 7548TIP3    H246840   3.614   5.212   7.286 -0.4177 -0.2742 -0.2756
 7549TIP3   OH246841   2.864   2.416   7.963  0.3788 -0.5792 -0.9549
 7549TIP3    H146842   2.788   2.472   7.983 -0.8032 -1.9006 -1.5302
 7549TIP3    H246843   2.828   2.349   7.904  1.4643 -2.5957  0.5600
 7550TIP3   OH246844   3.356   3.882   5.945 -0.3996  0.0115 -0.2013
 7550TIP3    H146845   3.420   3.885   5.874  1.1267  1.1932  1.1463
 7550TIP3    H246846   3.306   3.802   5.929 -1.1102  0.9498 -3.3951
 7551TIP3   OH246847   4.871   1.679   7.570 -0.3302  0.7900 -0.7287
 7551TIP3    H146848   4.855   1.641   7.656  1.1659  0.1365 -0.6987
 7551TIP3    H246849   4.883   1.773   7.587  0.4403  0.5963 -0.1409
 7552TIP3   OH246850   0.563   4.835   8.206 -0.1338  0.6368  0.0497
 7552TIP3    H146851   0.568   4.876   8.292 -2.2557 -1.2685  1.2063
 7552TIP3    H246852   0.473   4.850   8.177 -0.2577 -1.0197 -0.5624
 7553TIP3   OH246853   4.054   2.199   7.577  0.2379 -0.8520 -0.2554
 7553TIP3    H146854   3.981   2.153   7.534  0.5986  1.5390 -3.8933
 7553TIP3    H246855   4.121   2.132   7.589 -1.6001 -2.5945  0.9461
 7554TIP3   OH246856   3.877   1.419   8.237  0.1684  0.1411 -0.0428
 7554TIP3    H146857   3.899   1.473   8.162 -1.4422  0.6128 -0.1960
 7554TIP3    H246858   3.955   1.365   8.251  1.2349  1.4427 -0.7989
 7555TIP3   OH246859   0.926   5.116   8.160 -0.0874  0.0711  0.2132
 7555TIP3    H146860   0.857   5.051   8.144  0.6858 -1.0564  1.2258
 7555TIP3    H246861   0.908   5.186   8.098 -1.6226 -0.5966 -0.1469
 7556TIP3   OH246862   5.797   5.276   7.641 -0.4487  0.3676  0.0802
 7556TIP3    H146863   5.833   5.361   7.666 -0.0670  1.1533 -2.8276
 7556TIP3    H246864   5.863   5.213   7.670  0.2906  1.2351  0.3254
 7557TIP3   OH246865   5.933   6.458   5.621  0.0871  0.3735 -0.1053
 7557TIP3    H146866   6.006   6.398   5.634  0.4389  1.0019  0.8739
 7557TIP3    H246867   5.964   6.519   5.554  0.4837  0.6745  0.3509
 7558TIP3   OH246868   5.148   0.132   7.419 -0.7315  0.7355  0.5113
 7558TIP3    H146869   5.058   0.123   7.450 -0.2655  2.1413  2.5349
 7558TIP3    H246870   5.198   0.150   7.498  1.3765 -0.1572 -0.5486
 7559TIP3   OH246871   2.216   3.365   7.427  0.2800  0.1291 -0.1449
 7559TIP3    H146872   2.256   3.362   7.340 -0.7746  0.3257 -0.6508
 7559TIP3    H246873   2.265   3.432   7.474  1.3629 -0.5161 -0.3201
 7560TIP3   OH246874   2.755   2.754   6.324  0.3606 -0.4486  0.1014
 7560TIP3    H146875   2.703   2.800   6.258  0.0411  0.4721  0.9634
 7560TIP3    H246876   2.736   2.801   6.406  1.1624 -1.2243  0.7474
 7561TIP3   OH246877   5.150   5.620   8.152  0.5842 -0.3971 -0.3137
 7561TIP3    H146878   5.245   5.623   8.152  0.5695  0.9154 -1.8026
 7561TIP3    H246879   5.123   5.711   8.158 -0.6065 -0.7850  0.6724
 7562TIP3   OH246880   5.270   5.587   6.159 -0.0073 -0.2773 -0.1262
 7562TIP3    H146881   5.330   5.656   6.131 -0.3945 -0.0102 -0.3156
 7562TIP3    H246882   5.318   5.539   6.226  0.0079  0.6133  0.5271
 7563TIP3   OH246883   6.117   6.263   8.183  0.2216 -0.2370  0.2116
 7563TIP3    H146884   6.066   6.182   8.176  0.0867 -0.3373  1.9616
 7563TIP3    H246885   6.126   6.278   8.277  0.8159  1.4345 -0.0732
 7564TIP3   OH246886   3.095   4.978   7.339  0.6309 -0.2003 -0.4246
 7564TIP3    H146887   3.051   5.017   7.414  1.3655  0.7105 -0.4497
 7564TIP3    H246888   3.152   4.912   7.377  2.7518  1.8057  0.1248
 7565TIP3   OH246889   2.950   1.346   8.972  0.2987  0.0175 -0.3378
 7565TIP3    H146890   2.904   1.429   8.961  0.0159  0.1172  1.2839
 7565TIP3    H246891   2.965   1.315   8.883 -0.5917  1.2555 -0.9582
 7566TIP3   OH246892   6.352   2.429   5.924 -0.3428 -0.1051 -0.1784
 7566TIP3    H146893   6.351   2.452   5.831  0.4370  0.8841  0.0494
 7566TIP3    H246894   6.261   2.436   5.951 -0.2505  2.1578 -0.2717
 7567TIP3   OH246895   4.237   5.113   8.886 -1.1050 -0.1653  0.0217
 7567TIP3    H146896   4.185   5.155   8.817 -1.3193  1.7046  1.2365
 7567TIP3    H246897   4.223   5.168   8.963  0.7366 -1.0231  1.0404
 7568TIP3   OH246898   5.056   5.868   6.126 -0.4454 -0.0275  0.3228
 7568TIP3    H146899   5.062   5.945   6.070  0.0012 -0.3741 -0.1099
 7568TIP3    H246900   5.118   5.884   6.197  1.0605 -0.8119 -0.7736
 7569TIP3   OH246901   2.513   3.856   6.867 -0.3202 -0.2305  0.2728
 7569TIP3    H146902   2.604   3.868   6.895  0.3103 -0.8361 -1.3862
 7569TIP3    H246903   2.502   3.761   6.864 -0.4646 -0.1842 -1.1296
 7570TIP3   OH246904   6.425   5.847   7.608  0.5515  0.4938 -0.6234
 7570TIP3    H146905   6.406   5.939   7.628 -1.3571  0.1990 -0.8335
 7570TIP3    H246906   6.489   5.850   7.538  0.6778  1.6665 -0.4734
 7571TIP3   OH246907   2.331   3.461   7.134 -0.3577  0.4653  0.6153
 7571TIP3    H146908   2.247   3.471   7.090 -1.0608 -0.8943  1.5860
 7571TIP3    H246909   2.341   3.367   7.146  0.8223  0.6738  1.4573
 7572TIP3   OH246910   5.378   3.568   7.098 -0.3368 -0.0227 -0.0514
 7572TIP3    H146911   5.307   3.511   7.068 -1.3317 -0.4126  2.7717
 7572TIP3    H246912   5.362   3.580   7.192  2.8036  0.6704  0.5201
 7573TIP3   OH246913   6.199   3.675   8.721 -0.0827 -0.3654  0.4704
 7573TIP3    H146914   6.287   3.710   8.709 -0.6055  0.1669 -2.5208
 7573TIP3    H246915   6.149   3.747   8.760  0.3174  0.0584  0.2009
 7574TIP3   OH246916   1.314   0.851   7.476  0.7348  0.6133  0.4387
 7574TIP3    H146917   1.299   0.945   7.478 -0.9629  0.3675  0.3841
 7574TIP3    H246918   1.308   0.827   7.384  0.0968  0.2958  0.5600
 7575TIP3   OH246919   2.266   1.038   6.191 -0.4063  0.4840 -0.2647
 7575TIP3    H146920   2.171   1.039   6.200 -0.2409  1.1321  1.9834
 7575TIP3    H246921   2.290   0.946   6.201 -0.7421  0.4502  0.3063
 7576TIP3   OH246922   3.875   2.411   6.269  0.2301 -0.0824 -0.4046
 7576TIP3    H146923   3.807   2.473   6.244 -0.1777  1.2301  3.3682
 7576TIP3    H246924   3.916   2.386   6.186 -0.7561  3.8570 -2.3290
 7577TIP3   OH246925   2.718   6.077   6.058  0.3456  0.9700 -0.4353
 7577TIP3    H146926   2.776   6.034   6.121  0.3237  0.2123 -0.9222
 7577TIP3    H246927   2.708   6.014   5.987 -1.0743  1.0958 -0.3747
 7578TIP3   OH246928   2.538   0.456   7.077 -0.8890  0.2509  0.1637
 7578TIP3    H146929   2.447   0.425   7.077 -0.7664 -0.1173  1.0824
 7578TIP3    H246930   2.547   0.502   7.160  0.1613 -0.8982  0.7161
 7579TIP3   OH246931   5.298   1.805   6.893 -0.2714  0.2791  0.2936
 7579TIP3    H146932   5.271   1.858   6.968 -0.7159 -0.0648  0.3804
 7579TIP3    H246933   5.372   1.853   6.855 -0.3088  0.6675  0.7042
 7580TIP3   OH246934   0.445   1.397   8.075 -0.1647  0.6026  0.1137
 7580TIP3    H146935   0.398   1.367   8.153  0.3171 -0.1925  0.1164
 7580TIP3    H246936   0.470   1.316   8.030  1.3222  0.9986  0.1845
 7581TIP3   OH246937   5.092   3.851   7.032  0.4683 -0.3674 -0.5041
 7581TIP3    H146938   5.049   3.769   7.057 -1.3786 -0.2753 -2.9433
 7581TIP3    H246939   5.040   3.919   7.074  1.0126 -0.3839  0.2053
 7582TIP3   OH246940   4.056   2.503   5.602 -0.5181  0.3461 -0.3181
 7582TIP3    H146941   4.123   2.512   5.534  0.4818 -1.0465  0.4313
 7582TIP3    H246942   4.063   2.583   5.653  0.4759  0.2964 -0.3586
 7583TIP3   OH246943   1.550   0.877   7.849  0.3042  0.1966  0.2675
 7583TIP3    H146944   1.619   0.929   7.807  0.2201 -0.7918 -1.1683
 7583TIP3    H246945   1.470   0.928   7.835 -0.2394 -1.4099 -3.4878
 7584TIP3   OH246946   5.253   5.212   7.259  0.2617  0.3220  0.8316
 7584TIP3    H146947   5.295   5.297   7.273 -2.0854  1.4247  1.6382
 7584TIP3    H246948   5.314   5.150   7.299  2.3655  1.4815 -0.3721
 7585TIP3   OH246949   5.686   0.681   6.916 -0.3587 -0.0749  0.3577
 7585TIP3    H146950   5.734   0.704   6.995 -2.5366  0.3880  1.6422
 7585TIP3    H246951   5.674   0.586   6.922 -2.4533  0.2133  1.8544
 7586TIP3   OH246952   3.903   2.994   6.912 -0.9728 -0.3712 -0.7621
 7586TIP3    H146953   3.888   3.088   6.899  0.2834  0.0125  0.3781
 7586TIP3    H246954   3.865   2.976   6.998  3.3066  0.2912  1.4884
 7587TIP3   OH246955   0.268   2.902   6.503  0.0608  0.1620 -0.1603
 7587TIP3    H146956   0.184   2.940   6.529 -0.8181 -1.9408  0.2512
 7587TIP3    H246957   0.327   2.925   6.575  0.0390  2.1361 -0.7147
 7588TIP3   OH246958   1.218   4.561   9.107  0.7151  0.2359 -0.7981
 7588TIP3    H146959   1.131   4.598   9.124  2.0045  2.4529  1.8184
 7588TIP3    H246960   1.210   4.469   9.133 -0.7677  0.4871 -0.2376
 7589TIP3   OH246961   6.742   5.395   5.836 -0.7180 -1.0065 -0.1751
 7589TIP3    H146962   6.741   5.337   5.913  0.5561 -1.8763 -0.7795
 7589TIP3    H246963   6.752   5.483   5.873  1.7775 -1.5568  0.6346
 7590TIP3   OH246964   3.714   5.029   8.548  0.2365 -0.3088  0.0520
 7590TIP3    H146965   3.773   4.974   8.496 -0.3158 -0.0756 -0.8361
 7590TIP3    H246966   3.627   5.011   8.512  0.2083  2.5220 -1.5690
 7591TIP3   OH246967   5.905   5.040   7.442 -0.0971  0.2699 -0.2407
 7591TIP3    H146968   5.949   5.123   7.424 -0.7200  0.6610  0.0151
 7591TIP3    H246969   5.971   4.973   7.421  0.8691  0.8477  0.8259
 7592TIP3   OH246970   4.683   0.230   8.219 -0.0603  0.3986  0.0513
 7592TIP3    H146971   4.660   0.139   8.239  2.1204 -0.0352  0.8796
 7592TIP3    H246972   4.664   0.240   8.126 -3.0365  0.0252  0.5065
 7593TIP3   OH246973   5.318   2.876   7.326 -0.0453 -0.2537 -1.0113
 7593TIP3    H146974   5.357   2.843   7.245  0.3534 -0.5620 -0.6976
 7593TIP3    H246975   5.236   2.827   7.334  1.2310 -2.3087  0.2188
 7594TIP3   OH246976   6.260   5.904   5.762  0.1308 -0.0676 -0.2864
 7594TIP3    H146977   6.341   5.937   5.801 -0.6803 -0.0330  1.4880
 7594TIP3    H246978   6.268   5.809   5.766 -0.5257 -0.0878  1.3637
 7595TIP3   OH246979   3.255   2.686   6.839 -0.0515  0.2540 -0.1068
 7595TIP3    H146980   3.275   2.760   6.896  0.0198 -0.1513  0.4016
 7595TIP3    H246981   3.222   2.619   6.899  1.7331 -0.8335 -0.2838
 7596TIP3   OH246982   5.441   6.162   5.988  0.1835 -0.4622 -0.0833
 7596TIP3    H146983   5.384   6.174   6.064 -1.8099 -1.1969 -1.3902
 7596TIP3    H246984   5.406   6.086   5.943  2.1422 -0.8503 -1.0537
 7597TIP3   OH246985   5.006   6.108   6.334  0.5307  0.1967 -0.4914
 7597TIP3    H146986   4.961   6.179   6.379  0.9610 -0.2382  0.6608
 7597TIP3    H246987   5.097   6.114   6.365  0.7383 -0.3894 -0.9696
 7598TIP3   OH246988   6.584   4.737   8.963  0.1038 -1.1734 -0.2806
 7598TIP3    H146989   6.621   4.796   8.897 -0.7862 -1.5279 -1.1142
 7598TIP3    H246990   6.602   4.781   9.046  1.3007 -0.7501 -0.7386
 7599TIP3   OH246991   2.027   2.184   5.946 -0.1015  0.7163 -0.5747
 7599TIP3    H146992   2.114   2.169   5.910 -0.2133 -1.1155 -0.2113
 7599TIP3    H246993   2.039   2.253   6.011  0.6109  2.1102 -2.1277
 7600TIP3   OH246994   0.106   1.880   8.493  0.5134  0.4159  0.1404
 7600TIP3    H146995   0.095   1.913   8.583 -1.3904 -1.5911  0.7342
 7600TIP3    H246996   0.198   1.895   8.474  1.0042  0.8576  2.4711
 7601TIP3   OH246997   5.311   3.429   6.737  0.2868  0.4244  0.2489
 7601TIP3    H146998   5.284   3.455   6.649 -0.4536  1.8338  0.8637
 7601TIP3    H246999   5.405   3.413   6.730  0.6061  2.3518 -0.4067
 7602TIP3   OH247000   4.040   3.554   7.380 -0.6631  0.1265 -0.0679
 7602TIP3    H147001   4.012   3.616   7.448 -1.0159 -1.7071  1.5365
 7602TIP3    H247002   4.132   3.536   7.401 -0.7305 -0.3371 -0.1703
 7603TIP3   OH247003   0.288   4.634   5.869 -0.1220  0.0097 -0.4435
 7603TIP3    H147004   0.240   4.601   5.793  0.6435 -0.2077 -0.8450
 7603TIP3    H247005   0.354   4.568   5.886 -1.2733 -0.7313  1.4337
 7604TIP3   OH247006   0.585   5.855   7.602 -0.5241 -0.6524 -0.4970
 7604TIP3    H147007   0.633   5.787   7.556  0.2219 -0.4270 -0.0590
 7604TIP3    H247008   0.569   5.923   7.536  0.5080 -0.3457 -0.4413
 7605TIP3   OH247009   5.589   6.705   6.262 -0.4635 -0.5733  0.3531
 7605TIP3    H147010   5.593   6.787   6.212  0.6433 -1.1877 -0.6194
 7605TIP3    H247011   5.602   6.732   6.353 -1.1096  0.4296  0.1631
 7606TIP3   OH247012   2.822   3.566   7.055  0.4940  0.4183 -0.5108
 7606TIP3    H147013   2.815   3.606   7.141  0.5386 -1.4734  0.4351
 7606TIP3    H247014   2.915   3.543   7.047  0.2257 -0.7610 -0.3899
 7607TIP3   OH247015   2.180   1.573   7.754 -0.0075 -0.2440  0.3476
 7607TIP3    H147016   2.244   1.505   7.731 -0.1532 -0.1221 -0.4584
 7607TIP3    H247017   2.169   1.624   7.673 -2.0550 -1.0121  0.0866
 7608TIP3   OH247018   2.626   3.448   6.722  0.3496 -0.1427  0.3078
 7608TIP3    H147019   2.654   3.467   6.812 -0.9009 -0.5982  0.8045
 7608TIP3    H247020   2.689   3.497   6.668  1.2272  0.0055  1.4070
 7609TIP3   OH247021   2.889   1.848   6.106 -0.3559 -0.4413  0.7873
 7609TIP3    H147022   2.919   1.900   6.181  0.2199  1.6943 -0.8252
 7609TIP3    H247023   2.812   1.895   6.074  0.7385  0.0424 -1.2875
 7610TIP3   OH247024   2.927   1.374   5.840 -0.0022 -0.2264  0.2164
 7610TIP3    H147025   2.971   1.367   5.924 -0.9557 -1.1883  0.6602
 7610TIP3    H247026   2.839   1.338   5.855 -0.7523  1.0855 -0.7878
 7611TIP3   OH247027   2.539   1.648   8.468  0.0508  0.1655 -0.0862
 7611TIP3    H147028   2.576   1.598   8.395 -1.5291  0.9104 -1.4668
 7611TIP3    H247029   2.562   1.598   8.546  1.6499 -0.7442 -1.0978
 7612TIP3   OH247030   4.700   2.880   6.882 -0.2191  0.1884 -0.3381
 7612TIP3    H147031   4.620   2.835   6.857 -0.8252  1.0397  0.0117
 7612TIP3    H247032   4.707   2.953   6.822 -0.0996  0.5362  0.0897
 7613TIP3   OH247033   1.802   4.706   7.315 -0.3927  0.1842  0.2472
 7613TIP3    H147034   1.815   4.612   7.301 -3.4549 -0.5449  1.6197
 7613TIP3    H247035   1.847   4.747   7.241  1.9600 -2.2417  0.1760
 7614TIP3   OH247036   6.511   5.329   8.027 -0.2816  0.3709 -0.3259
 7614TIP3    H147037   6.506   5.307   7.934  0.9842 -0.0194 -0.3224
 7614TIP3    H247038   6.497   5.423   8.031  3.3976  1.1315 -1.3845
 7615TIP3   OH247039   0.871   4.541   8.039  0.0574  0.1319 -0.0250
 7615TIP3    H147040   0.900   4.596   7.967 -0.0761  1.0504  0.6009
 7615TIP3    H247041   0.836   4.462   7.997  0.1972  0.5474 -0.9408
 7616TIP3   OH247042   3.392   0.782   7.669 -0.1142  0.0910  0.1993
 7616TIP3    H147043   3.413   0.762   7.760  2.9164  0.4096 -0.3322
 7616TIP3    H247044   3.393   0.697   7.625 -0.8588  0.0173  0.3106
 7617TIP3   OH247045   3.822   0.508   7.102 -0.5162  0.2732  0.1577
 7617TIP3    H147046   3.835   0.423   7.144  1.2194  0.4190 -0.0007
 7617TIP3    H247047   3.852   0.572   7.167 -1.2221  0.7308  0.0453
 7618TIP3   OH247048   1.548   1.507   6.627 -0.5570 -0.6216  0.5072
 7618TIP3    H147049   1.543   1.433   6.687 -0.8973 -1.1228 -0.1292
 7618TIP3    H247050   1.468   1.502   6.575  0.3273 -0.9712 -0.8693
 7619TIP3   OH247051   2.474   3.234   6.593  0.4018  0.1292 -0.5542
 7619TIP3    H147052   2.487   3.142   6.616  0.2861 -0.4358 -2.5384
 7619TIP3    H247053   2.560   3.274   6.605  0.7551 -0.5218 -0.8310
 7620TIP3   OH247054   3.916   4.488   7.632 -0.6832  0.5098 -0.7849
 7620TIP3    H147055   3.852   4.555   7.609 -1.4293 -0.7855 -2.7216
 7620TIP3    H247056   3.943   4.450   7.548  1.6994  0.1409  0.0566
 7621TIP3   OH247057   3.270   5.414   8.417  0.0185 -0.1709  0.1919
 7621TIP3    H147058   3.312   5.349   8.474 -0.5400 -0.6547  0.0666
 7621TIP3    H247059   3.285   5.380   8.328  0.4327  0.3032  0.0805
 7622TIP3   OH247060   5.420   4.149   6.955  0.2418 -0.0853  0.0155
 7622TIP3    H147061   5.368   4.068   6.966 -0.3292  0.3450  0.5547
 7622TIP3    H247062   5.415   4.192   7.040 -0.3401  1.0280 -0.5597
 7623TIP3   OH247063   3.524   0.464   6.965  0.2664 -0.3098 -0.0772
 7623TIP3    H147064   3.445   0.445   6.914  0.1088 -0.3120  0.1633
 7623TIP3    H247065   3.547   0.554   6.943 -0.9542  0.3976  1.3379
 7624TIP3   OH247066   6.208   1.187   6.206 -0.1834  0.2970 -0.2583
 7624TIP3    H147067   6.194   1.175   6.112 -2.4860 -0.7515  0.1405
 7624TIP3    H247068   6.216   1.098   6.241 -0.5621  0.6047  0.6632
 7625TIP3   OH247069   1.328   1.148   7.494  0.0134 -0.3096 -0.1958
 7625TIP3    H147070   1.255   1.164   7.435  1.1185 -2.0870 -2.1970
 7625TIP3    H247071   1.402   1.195   7.454  0.8450 -1.7723 -0.4553
 7626TIP3   OH247072   0.622   2.926   8.268  0.1389 -0.0238 -0.3243
 7626TIP3    H147073   0.655   2.888   8.349 -1.2162 -0.2771  0.1505
 7626TIP3    H247074   0.692   2.982   8.236  0.4568  0.5886  1.3728
 7627TIP3   OH247075   4.586   2.992   5.912 -0.0124 -0.5149  0.6583
 7627TIP3    H147076   4.565   2.915   5.964  1.3179 -2.5992 -1.7064
 7627TIP3    H247077   4.503   3.018   5.874 -0.5170 -0.5775  1.6695
 7628TIP3   OH247078   5.403   0.695   6.867  0.0793  0.1823 -0.7541
 7628TIP3    H147079   5.497   0.686   6.883 -0.0643  0.6474  0.4667
 7628TIP3    H247080   5.362   0.632   6.925 -0.3319 -1.1121 -2.3828
 7629TIP3   OH247081   6.225   0.641   6.727 -0.0203 -0.2228  0.4491
 7629TIP3    H147082   6.205   0.600   6.812 -2.1379  2.1963  1.2472
 7629TIP3    H247083   6.309   0.685   6.742 -0.5002  0.4166  1.4577
 7630TIP3   OH247084   6.130   3.994   7.899 -0.8974 -0.3198 -0.1771
 7630TIP3    H147085   6.094   3.976   7.812 -0.6140 -3.6736  0.2499
 7630TIP3    H247086   6.144   3.907   7.937  2.0579  0.9111  1.9649
 7631TIP3   OH247087   5.337   5.962   5.826  0.1486 -0.0474 -0.4630
 7631TIP3    H147088   5.272   5.974   5.757  0.5443  3.6710 -0.3952
 7631TIP3    H247089   5.421   5.976   5.782  0.6051 -0.4229  0.2711
 7632TIP3   OH247090   5.145   5.673   6.478  0.1949 -0.3517  0.2269
 7632TIP3    H147091   5.093   5.603   6.519  2.3251 -1.2233  1.5900
 7632TIP3    H247092   5.180   5.723   6.551  1.4565  0.0482 -0.6241
 7633TIP3   OH247093   5.136   5.868   7.427  0.4570  0.5805  0.4130
 7633TIP3    H147094   5.157   5.905   7.513  1.0072 -0.3506  0.7010
 7633TIP3    H247095   5.137   5.942   7.367  1.0268  1.0975  1.0519
 7634TIP3   OH247096   3.998   3.228   8.708 -0.0475  0.5240  0.2816
 7634TIP3    H147097   3.971   3.141   8.739  0.0573  0.6390  0.7080
 7634TIP3    H247098   4.065   3.255   8.771  1.3593  0.0764 -0.9688
 7635TIP3   OH247099   3.457   5.295   7.979  0.1469  0.1553  0.5134
 7635TIP3    H147100   3.464   5.389   7.965  0.4594 -0.0630 -0.9556
 7635TIP3    H247101   3.472   5.256   7.893 -1.1339 -1.2008  0.8597
 7636TIP3   OH247102   1.258   4.018   7.664  0.0137  0.4029  0.7094
 7636TIP3    H147103   1.260   4.086   7.596  0.3860 -1.0321 -0.7874
 7636TIP3    H247104   1.190   3.957   7.635 -0.9017  0.5387  2.4680
 7637TIP3   OH247105   6.360   5.655   8.567 -0.0554 -0.4687  0.0270
 7637TIP3    H147106   6.343   5.748   8.574 -0.2932 -0.3797 -1.4530
 7637TIP3    H247107   6.342   5.620   8.655  0.7276  0.9620  0.7878
 7638TIP3   OH247108   0.773   5.438   9.002  0.2065  0.4797 -0.2947
 7638TIP3    H147109   0.730   5.397   9.077  2.1406  0.8482  1.1111
 7638TIP3    H247110   0.744   5.528   9.004  0.4991  0.5736  0.2653
 7639TIP3   OH247111   3.733   1.201   5.867 -0.6134 -0.2451  0.4509
 7639TIP3    H147112   3.707   1.284   5.827 -1.1918 -0.4762  0.3404
 7639TIP3    H247113   3.694   1.134   5.811  0.8827 -0.6315 -0.1802
 7640TIP3   OH247114   1.193   3.234   8.558  0.2049 -0.1286 -0.7634
 7640TIP3    H147115   1.127   3.279   8.611 -0.1811  1.3437 -2.3763
 7640TIP3    H247116   1.173   3.260   8.468  2.7195  0.0261 -1.3651
 7641TIP3   OH247117   6.244   4.244   7.969  0.4120 -0.6883 -0.1418
 7641TIP3    H147118   6.238   4.304   7.895 -2.4232  0.9069  1.2116
 7641TIP3    H247119   6.208   4.161   7.937  2.2500 -1.0733 -1.3801
 7642TIP3   OH247120   1.131   2.318   8.324 -0.5167  0.0810 -0.0411
 7642TIP3    H147121   1.133   2.408   8.358 -1.1008 -0.3396  1.1653
 7642TIP3    H247122   1.180   2.267   8.388 -1.5450 -0.7224  0.1394
 7643TIP3   OH247123   4.660   5.308   5.725 -0.3397 -0.0916 -0.6839
 7643TIP3    H147124   4.644   5.260   5.643 -1.4230 -1.3757  0.2424
 7643TIP3    H247125   4.725   5.255   5.771  0.1194  0.5284 -0.6159
 7644TIP3   OH247126   0.928   0.841   7.683  0.4500 -0.0211  0.0606
 7644TIP3    H147127   1.023   0.841   7.696  0.6177 -1.2693 -0.9474
 7644TIP3    H247128   0.897   0.762   7.729  0.2279 -0.8757 -1.4711
 7645TIP3   OH247129   1.330   1.021   7.818 -0.1034  0.1646  0.8129
 7645TIP3    H147130   1.329   1.089   7.885 -0.1410  0.9973 -0.0108
 7645TIP3    H247131   1.318   1.068   7.736  0.8315 -0.7343  0.1273
 7646TIP3   OH247132   4.241   2.679   7.813  0.0980 -0.6452  0.2412
 7646TIP3    H147133   4.148   2.664   7.830 -0.4472  0.7440 -1.2141
 7646TIP3    H247134   4.244   2.713   7.724  1.3731  4.0931  1.7521
 7647TIP3   OH247135   1.862   2.190   7.983 -0.5373  0.3794  0.1546
 7647TIP3    H147136   1.813   2.142   7.916  0.0191 -0.9344  0.6655
 7647TIP3    H247137   1.885   2.125   8.049  2.7846  0.6346 -0.5493
 7648TIP3   OH247138   1.894   6.680   5.731  0.0558  0.1157 -0.0608
 7648TIP3    H147139   1.844   6.600   5.715 -3.0944  2.1109 -1.1352
 7648TIP3    H247140   1.852   6.720   5.808  0.9952  1.1527 -0.0533
 7649TIP3   OH247141   4.182   1.502   8.248  0.3116 -0.0480  0.5266
 7649TIP3    H147142   4.152   1.481   8.336 -0.0440 -2.0659 -0.0149
 7649TIP3    H247143   4.171   1.420   8.199  2.2747  0.4715 -0.9094
 7650TIP3   OH247144   6.006   4.388   8.861  0.0787  0.2690 -0.1862
 7650TIP3    H147145   6.047   4.348   8.784  0.1407 -1.4213  0.6696
 7650TIP3    H247146   5.963   4.315   8.906  0.6025  1.0827  1.7460
 7651TIP3   OH247147   6.462   1.013   8.714  0.2685  0.1328 -0.1092
 7651TIP3    H147148   6.430   1.099   8.743  1.5183  0.3836  0.5961
 7651TIP3    H247149   6.539   0.996   8.769  0.6248 -0.9909 -0.9174
 7652TIP3   OH247150   2.191   5.720   7.606  0.0552  0.1416 -0.5880
 7652TIP3    H147151   2.192   5.625   7.592 -2.0435 -0.0912  0.4785
 7652TIP3    H247152   2.246   5.755   7.536  1.5066 -1.8842 -0.5553
 7653TIP3   OH247153   4.458   6.165   8.591 -0.0363  0.2216  0.2464
 7653TIP3    H147154   4.545   6.200   8.607  0.3258  0.0143 -1.1282
 7653TIP3    H247155   4.445   6.175   8.497 -1.4058  0.0225  0.3890
 7654TIP3   OH247156   1.573   3.591   8.405 -0.0587 -0.1080  0.3833
 7654TIP3    H147157   1.601   3.513   8.356  3.3391  1.4567 -0.4297
 7654TIP3    H247158   1.617   3.583   8.490  1.2023  1.3548 -0.0917
 7655TIP3   OH247159   5.482   0.932   8.116 -0.2692  0.6837  0.3802
 7655TIP3    H147160   5.483   0.930   8.020 -0.4156 -1.2264  0.3758
 7655TIP3    H247161   5.568   0.899   8.141 -0.7390 -0.1969  0.8817
 7656TIP3   OH247162   2.958   1.271   8.702  0.2702  0.3214 -0.4855
 7656TIP3    H147163   3.019   1.202   8.678  0.1730 -0.5959  1.6820
 7656TIP3    H247164   2.906   1.286   8.623  1.8684 -0.3621 -1.7153
 7657TIP3   OH247165   4.321   4.456   7.361 -0.2277  0.3034  0.6636
 7657TIP3    H147166   4.400   4.440   7.309 -1.5461 -1.2252 -0.9607
 7657TIP3    H247167   4.346   4.434   7.450  0.9435 -1.0018  0.0418
 7658TIP3   OH247168   2.602   5.927   8.580 -0.2723  0.1505  0.8344
 7658TIP3    H147169   2.656   5.873   8.637 -0.5571  0.0521  1.0100
 7658TIP3    H247170   2.515   5.888   8.585 -0.5417  0.7791  1.1632
 7659TIP3   OH247171   3.489   6.082   6.395 -0.2657  0.6118  0.8967
 7659TIP3    H147172   3.511   5.994   6.425  1.5514  1.0341  0.9249
 7659TIP3    H247173   3.483   6.134   6.476  3.1358  1.4203  0.8000
 7660TIP3   OH247174   3.424   5.055   6.369  0.4371 -0.0123 -0.3756
 7660TIP3    H147175   3.353   5.047   6.433 -0.8529 -1.6349 -1.9107
 7660TIP3    H247176   3.471   4.972   6.375  0.4891 -0.0595 -1.3003
 7661TIP3   OH247177   3.311   6.550   7.436 -0.4028  0.7013  0.1200
 7661TIP3    H147178   3.254   6.627   7.432 -1.4076  0.0171  0.9029
 7661TIP3    H247179   3.289   6.500   7.358 -1.6856 -0.0860  0.9447
 7662TIP3   OH247180   5.540   1.807   6.519  0.0607  0.0968 -0.2147
 7662TIP3    H147181   5.574   1.798   6.608  0.0714 -2.7595 -0.4217
 7662TIP3    H247182   5.581   1.887   6.486 -0.4392  1.5846  2.5220
 7663TIP3   OH247183   1.231   5.796   7.002 -0.1148 -0.3503  1.0347
 7663TIP3    H147184   1.271   5.711   7.019 -1.4783 -0.9956  1.1641
 7663TIP3    H247185   1.303   5.859   7.008  1.1783 -1.6252 -0.4319
 7664TIP3   OH247186   4.828   3.096   8.220 -0.4697 -0.2924  0.5309
 7664TIP3    H147187   4.899   3.123   8.278 -0.1391  0.1888 -0.1004
 7664TIP3    H247188   4.859   3.115   8.132 -2.5713  2.9574  0.3182
 7665TIP3   OH247189   5.949   5.195   5.974 -0.3190 -0.2296 -0.7001
 7665TIP3    H147190   5.937   5.189   6.069 -0.8061  0.8793 -0.6778
 7665TIP3    H247191   5.966   5.104   5.947 -0.1272 -0.5590  0.4418
 7666TIP3   OH247192   4.526   3.947   8.497 -0.6881 -0.2122 -0.2693
 7666TIP3    H147193   4.494   3.866   8.535 -0.6517 -0.9310 -1.6915
 7666TIP3    H247194   4.597   3.920   8.438  0.3467  1.0132  0.3406
 7667TIP3   OH247195   6.333   0.895   6.962  0.0450  0.1002  0.2333
 7667TIP3    H147196   6.282   0.969   6.996  0.8355  0.5023  0.5662
 7667TIP3    H247197   6.344   0.914   6.869  1.0453  0.8920  0.4986
 7668TIP3   OH247198   5.635   3.559   7.130 -0.2470 -0.5584  0.1698
 7668TIP3    H147199   5.541   3.573   7.117 -0.1224  0.7560  0.5130
 7668TIP3    H247200   5.658   3.615   7.204  0.7397 -1.1520  0.3283
 7669TIP3   OH247201   3.195   2.331   9.018  0.5052 -0.4669  0.5298
 7669TIP3    H147202   3.224   2.407   9.067 -1.2436  0.1141  0.7557
 7669TIP3    H247203   3.164   2.269   9.084 -2.8023  0.7150  0.3203
 7670TIP3   OH247204   2.932   1.194   7.624  0.2695 -0.1407 -0.6306
 7670TIP3    H147205   2.969   1.144   7.551 -0.1555  1.9980 -2.4412
 7670TIP3    H247206   3.000   1.258   7.647  0.3124 -0.6470  0.7528
 7671TIP3   OH247207   2.482   5.392   7.500  0.3188 -0.0806 -0.5791
 7671TIP3    H147208   2.520   5.327   7.440 -0.7045  0.3952 -1.7890
 7671TIP3    H247209   2.550   5.459   7.509  0.7709 -0.5290 -0.6075
 7672TIP3   OH247210   4.841   0.639   7.656  0.4669 -0.0999  0.0570
 7672TIP3    H147211   4.810   0.676   7.739  3.1601  1.7138  0.3958
 7672TIP3    H247212   4.896   0.565   7.682 -0.3289 -0.8258 -0.2803
 7673TIP3   OH247213   3.945   0.395   6.683  0.3285  0.0221  0.2176
 7673TIP3    H147214   3.903   0.436   6.607  0.9850 -1.2311 -0.8605
 7673TIP3    H247215   3.872   0.365   6.737 -0.1876 -0.4425 -0.6966
 7674TIP3   OH247216   0.589   6.364   7.948  0.2023 -0.2173 -0.2626
 7674TIP3    H147217   0.651   6.317   7.892 -0.5867 -1.0854 -0.4301
 7674TIP3    H247218   0.506   6.360   7.901 -0.5144 -1.0700  0.9931
 7675TIP3   OH247219   0.699   3.891   7.138  0.3540 -0.2756 -0.1513
 7675TIP3    H147220   0.762   3.944   7.089  0.4325 -0.1893  0.0400
 7675TIP3    H247221   0.736   3.803   7.138  1.1466  0.0239  1.0692
 7676TIP3   OH247222   5.529   4.992   6.342  0.3700 -0.5488 -0.8359
 7676TIP3    H147223   5.443   4.957   6.367  0.3456  0.0751 -0.0150
 7676TIP3    H247224   5.588   4.917   6.347  0.1824 -0.6424  0.2075
 7677TIP3   OH247225   1.996   0.186   7.637 -0.1194  0.4886  0.3991
 7677TIP3    H147226   1.904   0.205   7.655 -0.3026  0.0629 -0.0911
 7677TIP3    H247227   2.011   0.223   7.550 -0.5341 -1.7339 -0.6730
 7678TIP3   OH247228   2.246   3.974   8.131 -0.1098  0.2684 -0.1568
 7678TIP3    H147229   2.273   4.044   8.190 -0.1328 -1.1905  1.6758
 7678TIP3    H247230   2.327   3.948   8.085  0.1800  0.5779  0.1740
 7679TIP3   OH247231   5.828   3.655   7.897 -0.3376 -0.3669 -0.1437
 7679TIP3    H147232   5.794   3.684   7.813 -0.7437 -1.4029 -0.3495
 7679TIP3    H247233   5.757   3.672   7.959 -1.6897 -3.3241 -0.7130
 7680TIP3   OH247234   5.817   5.419   5.554  0.5121 -0.5706 -0.7672
 7680TIP3    H147235   5.773   5.418   5.639 -1.4353  0.6705 -1.6817
 7680TIP3    H247236   5.803   5.331   5.519  1.4718 -1.1422  0.2226
 7681TIP3   OH247237   5.937   6.041   8.179  0.1207 -0.3817 -0.3469
 7681TIP3    H147238   5.993   5.984   8.127 -0.8249 -1.6658  0.0106
 7681TIP3    H247239   5.862   6.060   8.123  1.5634  2.7101 -1.4765
 7682TIP3   OH247240   5.554   2.188   8.534  0.1331 -0.7547 -0.2200
 7682TIP3    H147241   5.616   2.171   8.463  0.5926 -1.0126  0.2319
 7682TIP3    H247242   5.582   2.272   8.570 -0.9085  0.0387 -1.1688
 7683TIP3   OH247243   3.996   2.896   6.161  0.2597 -0.3519 -0.5564
 7683TIP3    H147244   4.002   2.826   6.226  1.4929  0.5562  0.3472
 7683TIP3    H247245   4.071   2.882   6.103 -0.0978 -0.3957 -1.0162
 7684TIP3   OH247246   6.272   4.530   6.175 -0.3524  0.4476  0.2135
 7684TIP3    H147247   6.217   4.480   6.114  0.5112  0.1387 -0.3266
 7684TIP3    H247248   6.247   4.498   6.262 -1.3222  0.6193  0.0071
 7685TIP3   OH247249   2.904   1.017   5.921  0.4985 -0.5176 -0.6114
 7685TIP3    H147250   2.930   1.073   5.994  0.1344 -0.4180 -0.5583
 7685TIP3    H247251   2.811   1.032   5.910  0.0465 -2.2457  0.4149
 7686TIP3   OH247252   1.079   5.368   7.621 -0.0121 -0.3587  0.0919
 7686TIP3    H147253   1.053   5.435   7.557 -0.1392  0.0042  0.5163
 7686TIP3    H247254   1.135   5.415   7.683 -0.1727 -0.6282  0.4439
 7687TIP3   OH247255   6.370   5.767   7.858  0.1800 -0.3675  0.5460
 7687TIP3    H147256   6.306   5.702   7.885 -0.3087  0.7124  2.0776
 7687TIP3    H247257   6.350   5.784   7.766  0.6388 -2.6979 -0.0561
 7688TIP3   OH247258   2.656   5.968   7.641  0.0288 -0.2544 -0.5930
 7688TIP3    H147259   2.572   5.980   7.685  0.1556 -1.3080 -0.0408
 7688TIP3    H247260   2.655   6.033   7.571 -1.3555 -0.4318 -0.7683
 7689TIP3   OH247261   2.827   0.203   8.367  0.2669  0.3251  0.1537
 7689TIP3    H147262   2.733   0.221   8.358  0.4653  1.1170 -0.4454
 7689TIP3    H247263   2.867   0.289   8.373  0.8789 -0.0244  1.3438
 7690TIP3   OH247264   6.529   1.800   7.292  0.5072 -0.2320 -0.0823
 7690TIP3    H147265   6.560   1.712   7.268 -1.8758 -1.2546  0.2763
 7690TIP3    H247266   6.603   1.841   7.336  1.9613 -1.7366 -1.0139
 7691TIP3   OH247267   4.859   1.729   7.981  0.2183 -0.1303 -0.0193
 7691TIP3    H147268   4.941   1.778   7.986  0.4961 -0.6832  1.0998
 7691TIP3    H247269   4.870   1.657   8.043 -1.6389  0.6003  1.2461
 7692TIP3   OH247270   4.047   1.748   6.251 -0.5333  0.0822 -0.2013
 7692TIP3    H147271   4.006   1.672   6.212 -0.5509 -0.5710  1.0308
 7692TIP3    H247272   4.093   1.714   6.328  0.0180  1.2103 -0.0048
 7693TIP3   OH247273   3.669   4.062  16.118  0.1001  0.2767  0.1780
 7693TIP3    H147274   3.672   4.149  16.157 -0.8621  0.7467 -0.7481
 7693TIP3    H247275   3.751   4.054  16.070  0.5153  0.3680  0.8523
 7694TIP3   OH247276   0.785   1.286   6.162 -0.3793 -0.5349  0.0084
 7694TIP3    H147277   0.731   1.211   6.135  1.1381 -1.4336 -0.6674
 7694TIP3    H247278   0.774   1.350   6.092 -1.9831  0.0845  0.7696
 7695TIP3   OH247279   0.953   4.394   7.543  0.6270 -0.5654  0.2920
 7695TIP3    H147280   1.001   4.401   7.460  2.0724 -1.9958  0.9702
 7695TIP3    H247281   0.861   4.393   7.517  0.9562  1.1098 -1.1290
 7696TIP3   OH247282   3.139   6.499   9.484  0.2544  0.1853 -0.3334
 7696TIP3    H147283   3.045   6.506   9.497 -0.1066 -1.1177 -1.8534
 7696TIP3    H247284   3.164   6.419   9.530  0.2229 -0.5716 -1.5857
 7697TIP3   OH247285   1.261   3.443   6.679  0.0521  0.0477  0.3293
 7697TIP3    H147286   1.253   3.374   6.613  1.7290 -1.4550  1.6063
 7697TIP3    H247287   1.347   3.481   6.663 -0.3902  1.0719  0.3664
 7698TIP3   OH247288   1.842   6.301   8.511  0.4807  0.1185  0.4161
 7698TIP3    H147289   1.866   6.226   8.456  1.7432  0.8478 -0.0675
 7698TIP3    H247290   1.921   6.319   8.562  0.0005  0.7661  0.9495
 7699TIP3   OH247291   0.661   5.873   6.774 -0.1332  0.0668  0.3886
 7699TIP3    H147292   0.694   5.910   6.856 -0.1750 -1.6970  1.2342
 7699TIP3    H247293   0.649   5.949   6.717  1.9685  1.1473  1.2549
 7700TIP3   OH247294   1.078   3.822   7.896  0.3876 -0.0653 -0.1762
 7700TIP3    H147295   1.029   3.819   7.978  0.7726 -1.2735  0.0231
 7700TIP3    H247296   1.144   3.890   7.910  1.1919 -1.0458  0.9465
 7701TIP3   OH247297   0.786   1.295   8.135  0.2680  0.4751 -0.1228
 7701TIP3    H147298   0.750   1.363   8.193  0.6152  0.6149 -0.0689
 7701TIP3    H247299   0.876   1.284   8.165  1.1162  2.0046 -1.8965
 7702TIP3   OH247300   0.078   5.322   6.324  0.2452 -0.1783 -0.0778
 7702TIP3    H147301   0.144   5.340   6.391  0.8713 -0.1494 -0.6865
 7702TIP3    H247302   0.124   5.335   6.241 -0.1072 -1.6075 -0.5287
 7703TIP3   OH247303   2.105   1.373   6.637  0.0332  0.0910 -0.0378
 7703TIP3    H147304   2.012   1.367   6.659  0.1351  0.0859  0.4023
 7703TIP3    H247305   2.149   1.369   6.722  0.2843  3.2308  0.0972
 7704TIP3   OH247306   1.542   6.334   7.004  0.1534 -0.5453 -0.2139
 7704TIP3    H147307   1.459   6.375   7.029  1.1959  0.3927  2.0358
 7704TIP3    H247308   1.521   6.241   6.996 -1.4511 -0.1119 -1.4630
 7705TIP3   OH247309   3.237   2.563   9.388  0.0097 -0.2629 -0.5531
 7705TIP3    H147310   3.142   2.557   9.382 -0.0697 -1.6874  1.2337
 7705TIP3    H247311   3.266   2.579   9.298 -1.9562  1.3751 -0.9702
 7706TIP3   OH247312   5.135   6.163   6.960 -0.4024  0.6731  0.4582
 7706TIP3    H147313   5.051   6.199   6.931 -2.3120 -3.5911 -0.1499
 7706TIP3    H247314   5.193   6.173   6.884 -1.6219  0.2606 -0.5534
 7707TIP3   OH247315   2.561   0.514   6.809  0.2132 -0.2281 -0.2266
 7707TIP3    H147316   2.488   0.452   6.804 -0.2109  0.2492 -0.0113
 7707TIP3    H247317   2.564   0.540   6.901  0.1796  0.3173 -0.3781
 7708TIP3   OH247318   1.567   0.580   5.789 -0.3145 -0.5419  0.0254
 7708TIP3    H147319   1.553   0.527   5.711  0.7215  3.0511 -2.8923
 7708TIP3    H247320   1.662   0.592   5.792 -0.5433  1.4827  0.2571
 7709TIP3   OH247321   3.104   5.938   6.454  0.1071  0.6714 -0.3717
 7709TIP3    H147322   3.129   6.009   6.395  0.6431 -0.0689 -1.0464
 7709TIP3    H247323   3.187   5.899   6.481 -0.2159 -0.2056 -0.6359
 7710TIP3   OH247324   0.050   1.614   8.532 -0.0456  0.0660 -0.4459
 7710TIP3    H147325   0.094   1.694   8.503 -0.8235  1.0891  1.0253
 7710TIP3    H247326  -0.035   1.645   8.564 -0.9707 -1.5690 -1.2196
 7711TIP3   OH247327   1.305   4.198   5.732 -0.0514 -0.7957  0.0593
 7711TIP3    H147328   1.335   4.269   5.675 -0.0004 -1.3126 -0.5664
 7711TIP3    H247329   1.219   4.226   5.762 -0.1840 -0.6275 -0.4678
 7712TIP3   OH247330   3.868   0.003   6.696 -0.4521  0.0810  0.3463
 7712TIP3    H147331   3.942  -0.057   6.684 -0.1707  0.0649  1.9697
 7712TIP3    H247332   3.791  -0.050   6.678 -0.3185 -1.3654  3.4395
 7713TIP3   OH247333   3.473   2.041   6.332 -0.2048 -0.0104  0.0645
 7713TIP3    H147334   3.533   2.047   6.258  1.3636  0.8727  1.3486
 7713TIP3    H247335   3.426   1.959   6.319  1.2405 -0.7014 -0.9999
 7714TIP3   OH247336   2.453   6.178   6.882  0.3261  0.1329 -0.2456
 7714TIP3    H147337   2.511   6.189   6.806  1.4905 -1.0781  0.4322
 7714TIP3    H247338   2.483   6.244   6.945  0.0463  0.4371 -0.4280
 7715TIP3   OH247339   3.355   2.292   6.261 -0.0156  0.0990  0.2512
 7715TIP3    H147340   3.328   2.343   6.337 -0.6248 -0.8859  0.7087
 7715TIP3    H247341   3.449   2.278   6.273  0.0100  0.4680  0.4977
 7716TIP3   OH247342   5.525   3.190   7.881 -0.6596 -0.4750 -0.4038
 7716TIP3    H147343   5.582   3.192   7.804 -1.7228 -1.2266 -1.2579
 7716TIP3    H247344   5.512   3.096   7.898 -0.5039 -0.3162  0.6560
 7717TIP3   OH247345   2.767   6.659   7.347  0.2664  0.2819  0.1488
 7717TIP3    H147346   2.830   6.685   7.414  0.4148  1.6590 -0.4724
 7717TIP3    H247347   2.685   6.645   7.394  0.5890  0.3205  0.7279
 7718TIP3   OH247348   6.305   4.398   6.870  0.2914  0.2200  0.1126
 7718TIP3    H147349   6.375   4.454   6.835 -0.4577  0.0643 -1.7868
 7718TIP3    H247350   6.227   4.426   6.822 -0.3643 -1.5340  0.0991
 7719TIP3   OH247351   4.155   2.751   7.041  0.1220 -0.5554 -0.2921
 7719TIP3    H147352   4.152   2.815   6.971  2.2769 -1.5349 -1.3538
 7719TIP3    H247353   4.214   2.788   7.106  1.0166 -1.2173 -0.7032
 7720TIP3   OH247354   1.225   5.547   5.722 -0.1829 -0.1978 -0.2254
 7720TIP3    H147355   1.308   5.532   5.766  1.1927  1.2692 -2.1432
 7720TIP3    H247356   1.221   5.481   5.653 -1.3269 -1.1661  0.7279
 7721TIP3   OH247357   0.684   2.367   8.093  0.1644  0.7134  0.4057
 7721TIP3    H147358   0.690   2.279   8.058 -0.2366  1.7424 -2.4912
 7721TIP3    H247359   0.768   2.381   8.137  1.3837 -0.1827 -1.5097
 7722TIP3   OH247360   0.313   6.347   7.900 -0.2700  0.0005  0.1334
 7722TIP3    H147361   0.269   6.294   7.834  1.1460  0.5194 -1.2609
 7722TIP3    H247362   0.291   6.304   7.983  0.1273 -2.2932 -0.8666
 7723TIP3   OH247363   5.973   0.589   7.680  0.3305  0.0630  0.5727
 7723TIP3    H147364   5.997   0.612   7.590  1.9990 -1.8804  0.4347
 7723TIP3    H247365   5.959   0.673   7.723  1.7416  1.1475 -0.9400
 7724TIP3   OH247366   3.139   6.104   7.434  0.1036 -0.5581  0.5469
 7724TIP3    H147367   3.082   6.159   7.379  0.9040  1.7235  1.8815
 7724TIP3    H247368   3.083   6.076   7.506  0.2951  0.5504  1.1385
 7725TIP3   OH247369   3.400   6.713   6.087 -0.5269 -0.4081  0.3744
 7725TIP3    H147370   3.482   6.738   6.130 -0.9442 -0.0914  0.9998
 7725TIP3    H247371   3.415   6.622   6.059  0.6378  0.1766 -1.0268
 7726TIP3   OH247372   2.169   5.871   7.829 -0.9313 -0.3164  0.1829
 7726TIP3    H147373   2.262   5.892   7.838 -1.2434  1.3518 -0.0597
 7726TIP3    H247374   2.163   5.815   7.752 -0.0541 -1.1429  0.6946
 7727TIP3   OH247375   5.467   0.854   7.163  0.6921 -0.2884 -0.3711
 7727TIP3    H147376   5.530   0.785   7.184  1.0896  0.0570 -0.4032
 7727TIP3    H247377   5.385   0.826   7.204  0.9433 -0.6033 -0.0807
 7728TIP3   OH247378   0.079   3.768   5.974 -0.1581  0.2714  0.1117
 7728TIP3    H147379   0.070   3.863   5.974  0.8095  0.3887 -0.6673
 7728TIP3    H247380   0.095   3.746   5.882  2.5793 -0.3021  0.6439
 7729TIP3   OH247381   1.204   2.545   8.464  0.6154 -0.3182  0.8303
 7729TIP3    H147382   1.219   2.583   8.550  0.8434 -0.7940  1.0039
 7729TIP3    H247383   1.191   2.620   8.407  1.7773  0.0636  1.0302
 7730TIP3   OH247384   2.703   5.681   8.136  0.2044 -0.6147  0.5859
 7730TIP3    H147385   2.640   5.684   8.208  0.3426 -1.4831  0.7621
 7730TIP3    H247386   2.660   5.629   8.068  0.4179 -0.5339  0.3848
 7731TIP3   OH247387   2.271   2.990   7.209 -0.3306  0.1061 -0.3195
 7731TIP3    H147388   2.226   2.997   7.124  0.6901 -1.7202 -1.0844
 7731TIP3    H247389   2.266   2.896   7.230  2.0798  0.0316  0.1190
 7732TIP3   OH247390   2.740   3.099   7.640 -0.5944  0.3969 -0.4556
 7732TIP3    H147391   2.687   3.020   7.628 -0.5712  0.4226 -0.7385
 7732TIP3    H247392   2.792   3.082   7.718 -1.1390  0.4367 -0.0820
 7733TIP3   OH247393   4.170   5.569   8.753 -0.1546  0.6049 -0.0402
 7733TIP3    H147394   4.225   5.647   8.761 -0.5869  0.9099  0.0493
 7733TIP3    H247395   4.171   5.530   8.840 -1.6224  1.6927  0.5213
 7734TIP3   OH247396   0.677   6.457   6.931 -0.2102 -0.4702 -0.1992
 7734TIP3    H147397   0.685   6.398   7.006  1.4745 -1.9160 -1.4195
 7734TIP3    H247398   0.583   6.462   6.914 -0.4548 -2.3160  0.3708
 7735TIP3   OH247399   6.574   3.346   9.079  0.8483  0.7777 -0.2345
 7735TIP3    H147400   6.588   3.336   9.173  0.2486 -0.7290 -0.2699
 7735TIP3    H247401   6.661   3.360   9.042  0.9957  2.2416  0.6104
 7736TIP3   OH247402   5.112   0.031   7.923 -0.9130 -0.3833  0.3392
 7736TIP3    H147403   5.045   0.098   7.935 -0.9709 -0.2714 -0.5604
 7736TIP3    H247404   5.195   0.078   7.931 -0.9448 -0.3867  0.7027
 7737TIP3   OH247405   5.578   3.368   6.654 -0.4020 -0.0784  0.4942
 7737TIP3    H147406   5.667   3.378   6.622 -0.3611  2.6277  1.1952
 7737TIP3    H247407   5.535   3.314   6.588  1.5319 -0.7779 -0.2694
 7738TIP3   OH247408   3.857   4.772   7.045  0.1096  0.3160 -0.3338
 7738TIP3    H147409   3.924   4.839   7.055 -0.1342  0.3414  1.4204
 7738TIP3    H247410   3.828   4.781   6.954 -0.7983  3.4460  0.1349
 7739TIP3   OH247411   6.312   2.156   8.846  0.4871  0.2539 -0.3013
 7739TIP3    H147412   6.222   2.179   8.872 -0.0806 -1.2233 -0.8359
 7739TIP3    H247413   6.367   2.199   8.911 -0.5967  1.4049 -0.1115
 7740TIP3   OH247414   2.396   5.183   9.214 -0.1801  0.2037 -0.2283
 7740TIP3    H147415   2.474   5.215   9.169 -0.0758  0.5848  0.2235
 7740TIP3    H247416   2.325   5.239   9.182 -0.1828  0.1913 -0.2449
 7741TIP3   OH247417   2.153   6.246   7.814 -0.4611  0.4004 -0.5286
 7741TIP3    H147418   2.157   6.313   7.882  1.6922 -0.8994  0.7518
 7741TIP3    H247419   2.065   6.209   7.822 -0.2175  0.1220  1.8005
 7742TIP3   OH247420   0.778   0.093   6.143 -0.0525  0.3929  0.2366
 7742TIP3    H147421   0.727   0.174   6.149  1.1545  1.1033  1.7146
 7742TIP3    H247422   0.730   0.039   6.081 -1.2870  1.9580 -0.2456
 7743TIP3   OH247423   2.671   6.552   6.720 -0.3234  0.2868 -0.7272
 7743TIP3    H147424   2.651   6.496   6.646  0.6532 -1.1133  0.0295
 7743TIP3    H247425   2.762   6.580   6.706 -0.2676  0.3491 -0.2727
 7744TIP3   OH247426   1.853   5.397   7.730  0.1575 -0.0949  0.1103
 7744TIP3    H147427   1.887   5.444   7.807  0.1998 -0.6620  0.4468
 7744TIP3    H247428   1.931   5.356   7.691  0.2691  0.8860 -0.7401
 7745TIP3   OH247429   5.136   2.368   8.114 -0.2804  0.7925 -0.3855
 7745TIP3    H147430   5.143   2.436   8.182  1.5980 -1.2181  1.6310
 7745TIP3    H247431   5.081   2.301   8.154  1.8186 -0.9577 -0.2944
 7746TIP3   OH247432   4.742   6.498   5.442  0.5931  0.1924 -0.3190
 7746TIP3    H147433   4.718   6.504   5.350  1.7579  0.6263 -0.6096
 7746TIP3    H247434   4.686   6.429   5.477  0.2550 -0.0921 -1.3946
 7747TIP3   OH247435   5.373   5.012   7.651 -0.1537  0.4758 -0.0003
 7747TIP3    H147436   5.463   4.987   7.628 -1.0274 -2.6382 -0.4581
 7747TIP3    H247437   5.384   5.075   7.722  2.3785  0.0397  0.1078
 7748TIP3   OH247438   4.483   6.113   5.864  0.2299  0.2229 -0.0971
 7748TIP3    H147439   4.486   6.040   5.803  1.2295 -0.3640  0.6148
 7748TIP3    H247440   4.396   6.108   5.903 -0.2659  0.3570 -1.1548
 7749TIP3   OH247441   4.225   6.357   6.557 -0.0829  0.3309 -0.6214
 7749TIP3    H147442   4.173   6.334   6.479 -2.1349  1.1032  0.4348
 7749TIP3    H247443   4.304   6.398   6.522 -1.4957  1.7541 -2.3287
 7750TIP3   OH247444   5.445   3.624   7.637 -0.4584 -0.3462 -0.1434
 7750TIP3    H147445   5.354   3.653   7.634 -0.0438  1.0506 -0.2368
 7750TIP3    H247446   5.456   3.570   7.559 -0.6653  1.2372 -1.3139
 7751TIP3   OH247447   0.877   2.184   6.797  0.7416  0.1615 -0.5972
 7751TIP3    H147448   0.883   2.158   6.705 -0.6090  0.6290 -0.8456
 7751TIP3    H247449   0.899   2.277   6.797  0.4314  0.2371 -0.5069
 7752TIP3   OH247450   2.275   1.304   6.135  0.0718  0.4195 -0.3708
 7752TIP3    H147451   2.295   1.214   6.161  2.4825  0.4069 -2.0032
 7752TIP3    H247452   2.347   1.356   6.169  0.7655  1.1006 -2.7137
 7753TIP3   OH247453   4.885   1.880   5.898  0.7384 -0.2160 -0.3261
 7753TIP3    H147454   4.876   1.790   5.929 -0.9503 -0.2383 -0.7438
 7753TIP3    H247455   4.978   1.890   5.881  1.3584 -1.0186  2.2102
 7754TIP3   OH247456   6.424   2.176   6.847 -0.2694  0.0828  0.6575
 7754TIP3    H147457   6.392   2.209   6.763 -0.0094  1.0238  0.9078
 7754TIP3    H247458   6.370   2.099   6.865 -0.7366  0.2228 -0.0772
 7755TIP3   OH247459   4.579   5.031   6.290  0.1751 -0.0636 -0.2289
 7755TIP3    H147460   4.635   4.960   6.258 -0.3148  0.1763 -1.7073
 7755TIP3    H247461   4.624   5.065   6.367  0.2806 -2.1450  0.6889
 7756TIP3   OH247462   2.394   1.353   7.109 -0.0743 -0.1236  0.1696
 7756TIP3    H147463   2.400   1.292   7.183 -0.9299 -0.1044  0.2635
 7756TIP3    H247464   2.380   1.438   7.149  0.8381  0.1116  0.0244
 7757TIP3   OH247465   5.398   2.484   6.874 -0.1841 -0.6032 -0.0477
 7757TIP3    H147466   5.316   2.479   6.924 -0.0347 -2.4451  0.0861
 7757TIP3    H247467   5.374   2.528   6.793 -0.8740  0.6051  0.7856
 7758TIP3   OH247468   0.868   4.728   8.435 -0.0124  0.5545  0.3691
 7758TIP3    H147469   0.859   4.668   8.509 -0.1100  2.0422  1.6287
 7758TIP3    H247470   0.815   4.689   8.365 -1.2311 -0.1174  1.6118
 7759TIP3   OH247471   4.113   3.209   6.378  0.2724  0.5885 -0.0061
 7759TIP3    H147472   4.204   3.180   6.368  0.2717  0.2977  0.7552
 7759TIP3    H247473   4.118   3.285   6.435  0.0726  0.8089 -0.2824
 7760TIP3   OH247474   6.472   1.555   7.487 -0.1360  0.1063 -0.2701
 7760TIP3    H147475   6.531   1.529   7.417 -1.0133  1.5441 -1.6462
 7760TIP3    H247476   6.529   1.590   7.555  0.7332 -1.0836 -0.3680
 7761TIP3   OH247477   3.173   6.141   6.237  0.4175 -0.5082  0.3667
 7761TIP3    H147478   3.227   6.138   6.158  0.6812 -0.2534  0.5319
 7761TIP3    H247479   3.087   6.170   6.207  0.7825  0.5416  0.3084
 7762TIP3   OH247480   6.692   4.410   7.546 -0.3048  0.0740  0.0880
 7762TIP3    H147481   6.610   4.402   7.497  0.5132 -2.1353 -1.0531
 7762TIP3    H247482   6.736   4.486   7.508 -1.5996  1.0317  0.4356
 7763TIP3   OH247483   3.857   5.963   8.350 -0.2130 -0.0264  0.2582
 7763TIP3    H147484   3.861   5.869   8.364  1.9867  0.2558  1.9355
 7763TIP3    H247485   3.783   5.992   8.403 -1.0594 -0.8016 -0.4610
 7764TIP3   OH247486   0.328   0.973   8.490  0.0424 -0.1576 -0.2106
 7764TIP3    H147487   0.364   0.912   8.553  0.9719 -0.2645 -0.8147
 7764TIP3    H247488   0.403   1.025   8.462 -0.9378  2.3417  1.4179
 7765TIP3   OH247489   0.699   0.503   7.989  0.5044 -0.1985 -0.2321
 7765TIP3    H147490   0.754   0.526   8.063  0.3175  2.0328 -0.7259
 7765TIP3    H247491   0.615   0.477   8.027  0.2756  1.3329  0.3528
 7766TIP3   OH247492   5.379   5.808   6.053  0.6402  0.7105  0.2597
 7766TIP3    H147493   5.350   5.853   6.132 -0.6202 -0.3360  0.4182
 7766TIP3    H247494   5.327   5.847   5.983  1.3614  1.2504  0.0142
 7767TIP3   OH247495   5.260   0.035   8.702  0.2558 -0.6747 -0.3724
 7767TIP3    H147496   5.192   0.052   8.767 -1.0588 -3.5823 -0.8554
 7767TIP3    H247497   5.327  -0.013   8.751  0.8910  0.1158 -0.4433
 7768TIP3   OH247498   3.790   2.410   7.474 -0.6312  0.0848 -0.4316
 7768TIP3    H147499   3.727   2.345   7.446 -0.3668  0.0857 -1.0332
 7768TIP3    H247500   3.777   2.417   7.569  0.5109 -2.1102 -0.0512
 7769TIP3   OH247501   3.257   5.573   6.586  0.1054 -0.4898  0.4244
 7769TIP3    H147502   3.271   5.576   6.680  0.0650 -0.6624  0.4374
 7769TIP3    H247503   3.346   5.573   6.548  0.1184 -0.2561  0.4558
 7770TIP3   OH247504   3.804   5.364   7.485  0.5985 -0.3205  0.1322
 7770TIP3    H147505   3.841   5.278   7.505  2.1627 -0.0366 -1.2377
 7770TIP3    H247506   3.838   5.385   7.397  1.1964  2.1482  0.8530
 7771TIP3   OH247507   5.132   1.694   8.927 -0.0894  0.4216 -0.4855
 7771TIP3    H147508   5.156   1.784   8.905 -0.0482  0.7591  0.8256
 7771TIP3    H247509   5.215   1.647   8.929 -0.1900  0.1365 -1.9980
 7772TIP3   OH247510   5.565   5.917   8.195 -0.2279  0.1790 -0.2447
 7772TIP3    H147511   5.635   5.952   8.139 -1.8690  0.9628 -1.9308
 7772TIP3    H247512   5.608   5.898   8.278  2.2719 -0.7252 -1.6338
 7773TIP3   OH247513   6.447   6.031   7.064 -0.5721  0.0851  0.2031
 7773TIP3    H147514   6.397   6.075   6.996 -1.5165 -1.0542  0.1154
 7773TIP3    H247515   6.383   5.975   7.108  0.1404  0.3595  1.6589
 7774TIP3   OH247516   2.444   1.487   8.866 -0.4974  0.5661 -0.1771
 7774TIP3    H147517   2.475   1.553   8.928 -0.6470 -1.1473  1.8239
 7774TIP3    H247518   2.524   1.459   8.820 -0.2052  1.0931 -0.0034
 7775TIP3   OH247519   6.383   5.026   9.497 -0.1685  0.2911 -0.0601
 7775TIP3    H147520   6.356   5.094   9.558  0.1293 -0.6449  1.1541
 7775TIP3    H247521   6.472   5.003   9.524 -1.3570 -2.8345  1.7401
 7776TIP3   OH247522   3.174   0.401   6.374 -0.2576  0.2738  0.5676
 7776TIP3    H147523   3.241   0.344   6.413  0.4872  0.0575 -0.9560
 7776TIP3    H247524   3.223   0.458   6.315 -1.1418  1.7805  1.2325
 7777TIP3   OH247525   5.022   5.837   6.804 -0.5727  0.1237 -0.3253
 7777TIP3    H147526   4.963   5.912   6.810 -2.4333 -1.1928 -1.0862
 7777TIP3    H247527   4.997   5.781   6.877 -0.0401 -0.3056 -0.4679
 7778TIP3   OH247528   0.600   5.900   7.936 -0.1788  0.4308  1.0979
 7778TIP3    H147529   0.687   5.859   7.939 -1.3218 -2.1372  3.7635
 7778TIP3    H247530   0.556   5.858   7.862 -0.0307 -0.3489  1.4394
 7779TIP3   OH247531   2.470   5.131   6.985 -0.1895 -0.3679  0.2650
 7779TIP3    H147532   2.489   5.204   6.925 -0.3640 -0.0062  0.6446
 7779TIP3    H247533   2.524   5.059   6.953  0.5622  0.1528  0.3336
 7780TIP3   OH247534   6.658   0.837   6.289 -0.4522 -0.2467 -0.1713
 7780TIP3    H147535   6.616   0.751   6.294 -0.5241 -0.2337 -0.5494
 7780TIP3    H247536   6.744   0.819   6.250 -0.1431 -0.2598  0.5038
 7781TIP3   OH247537   4.657   3.029   6.297 -0.2831 -0.0160 -0.5937
 7781TIP3    H147538   4.745   3.007   6.327 -0.0285 -1.6346 -2.3811
 7781TIP3    H247539   4.666   3.115   6.257 -0.0625  0.9121  1.3285
 7782TIP3   OH247540   2.107   0.516   6.592  0.3166 -0.2310 -0.2710
 7782TIP3    H147541   2.057   0.539   6.515 -1.0763 -0.3454  0.5664
 7782TIP3    H247542   2.104   0.421   6.597 -0.6771 -0.1717  0.5916
 7783TIP3   OH247543   1.437   3.138   5.996 -0.1894 -0.2919  0.9768
 7783TIP3    H147544   1.428   3.225   5.959  1.8584 -0.4390 -0.0256
 7783TIP3    H247545   1.528   3.134   6.027 -0.3452 -1.9312  1.3473
 7784TIP3   OH247546   0.710   3.290   6.605 -0.6855  0.0296  0.1710
 7784TIP3    H147547   0.747   3.203   6.619 -1.6435 -0.4474 -0.1621
 7784TIP3    H247548   0.616   3.278   6.619 -1.0432  0.6420 -1.4812
 7785TIP3   OH247549   6.699   4.034   6.212  0.1248  0.2277  0.2665
 7785TIP3    H147550   6.623   4.011   6.265  0.9979 -1.2327  0.9723
 7785TIP3    H247551   6.773   3.999   6.261  1.2341  1.4007 -0.5214
 7786TIP3   OH247552   2.709   6.190   6.752 -0.1930 -0.0305 -0.0552
 7786TIP3    H147553   2.793   6.209   6.709  0.9936 -1.6673  1.4198
 7786TIP3    H247554   2.699   6.261   6.815  0.3425 -0.0900  0.1075
 7787TIP3   OH247555   6.415   0.016   7.214 -0.3251 -0.6001 -0.0139
 7787TIP3    H147556   6.449  -0.069   7.187  2.2622 -0.3516  2.0820
 7787TIP3    H247557   6.477   0.079   7.177 -1.3863  0.2834 -0.3227
 7788TIP3   OH247558   1.523   2.688   8.599  0.5245  0.3747  0.1542
 7788TIP3    H147559   1.444   2.667   8.649  0.4512  0.2020 -0.0320
 7788TIP3    H247560   1.506   2.774   8.561 -0.4444 -0.5454 -1.6045
 7789TIP3   OH247561   5.573   0.397   6.959  0.0298 -0.2539 -0.0259
 7789TIP3    H147562   5.494   0.432   6.999 -0.3450  0.2198 -1.1286
 7789TIP3    H247563   5.543   0.361   6.875  0.9484 -0.1891 -0.3930
 7790TIP3   OH247564   4.082   3.979   7.885  0.0667  0.1051 -0.2338
 7790TIP3    H147565   4.052   3.930   7.962  0.5293  1.3209  0.7646
 7790TIP3    H247566   4.157   3.929   7.853  0.3461 -0.0123  0.5804
 7791TIP3   OH247567   4.203   1.328   7.400  1.0042 -0.1555  0.5780
 7791TIP3    H147568   4.277   1.372   7.358  1.7469 -1.5044  0.4150
 7791TIP3    H247569   4.193   1.247   7.350 -1.2414  0.4469 -0.0332
 7792TIP3   OH247570   1.457   0.226   7.579  0.8312 -0.2070  0.2540
 7792TIP3    H147571   1.504   0.219   7.496  0.9753 -0.8531  0.3874
 7792TIP3    H247572   1.465   0.319   7.603 -3.1663  1.1841 -2.7231
 7793TIP3   OH247573   3.741   6.326   6.287 -0.1880 -0.0462  0.7832
 7793TIP3    H147574   3.767   6.284   6.368  1.5329  0.3382  0.4750
 7793TIP3    H247575   3.821   6.368   6.255 -0.5955 -0.8756 -1.5267
 7794TIP3   OH247576   4.492   6.152   8.327 -0.1798 -0.0653 -0.1319
 7794TIP3    H147577   4.478   6.080   8.265 -0.0027  1.3496 -1.9253
 7794TIP3    H247578   4.430   6.220   8.299  1.4665  1.4861 -0.2588
 7795TIP3   OH247579   3.673   5.392   5.353  0.0463 -0.5676 -0.2756
 7795TIP3    H147580   3.745   5.344   5.311 -1.3197 -2.0466 -1.0230
 7795TIP3    H247581   3.625   5.326   5.402 -1.3588  0.1851 -0.5753
 7796TIP3   OH247582   3.028   5.930   5.621 -0.2895  0.1270  0.5482
 7796TIP3    H147583   3.043   5.910   5.713  0.6466 -1.2009  0.1271
 7796TIP3    H247584   2.933   5.920   5.610 -0.3428 -0.2153  1.2536
 7797TIP3   OH247585   0.392   6.495   8.695 -0.2359 -0.2354 -0.2078
 7797TIP3    H147586   0.409   6.402   8.683 -2.1560 -0.5666 -0.7082
 7797TIP3    H247587   0.386   6.530   8.606  1.4310  0.5816 -0.0227
 7798TIP3   OH247588   1.931   1.882   6.735 -0.4653  0.6551  0.5162
 7798TIP3    H147589   1.907   1.868   6.643  0.3533  0.0220  0.3933
 7798TIP3    H247590   1.871   1.951   6.764 -1.8666 -0.2859 -0.0107
 7799TIP3   OH247591   1.070   2.746   6.949 -0.0076  0.1739 -0.2698
 7799TIP3    H147592   1.085   2.678   7.016  1.0308  1.5782  0.9868
 7799TIP3    H247593   1.093   2.703   6.867 -2.1846 -1.8920  0.1019
 7800TIP3   OH247594   5.237   4.405   6.317  0.2845  0.3062 -0.3934
 7800TIP3    H147595   5.241   4.369   6.406  0.8018  0.3751 -0.3861
 7800TIP3    H247596   5.182   4.343   6.269  1.2172 -0.5446 -0.3918
 7801TIP3   OH247597   2.993   5.238   8.394  1.0501  0.1974  0.0091
 7801TIP3    H147598   3.051   5.162   8.388  2.3772  1.1527  0.2646
 7801TIP3    H247599   2.989   5.259   8.487 -1.1943 -0.9068  0.2359
 7802TIP3   OH247600   4.462   3.764   7.423 -0.3455  0.6516 -0.3174
 7802TIP3    H147601   4.453   3.714   7.342 -0.0460 -1.2144  0.7320
 7802TIP3    H247602   4.376   3.804   7.437 -0.7067  0.1368 -1.0181
 7803TIP3   OH247603   0.506   4.407   5.991 -0.0651 -0.2114 -0.9089
 7803TIP3    H147604   0.448   4.414   6.067 -1.5860  1.3578 -2.1238
 7803TIP3    H247605   0.524   4.314   5.983 -2.0992 -0.7263 -0.2096
 7804TIP3   OH247606   3.966   0.512   7.530 -0.5125  0.1989  0.4747
 7804TIP3    H147607   3.952   0.422   7.503 -0.3406  0.5099 -0.7178
 7804TIP3    H247608   3.880   0.543   7.556 -0.8192  0.0747 -0.3634
 7805TIP3   OH247609   3.492   0.698   7.911 -0.6094 -0.0049 -0.4107
 7805TIP3    H147610   3.511   0.651   7.992 -1.2244 -1.5699 -1.1105
 7805TIP3    H247611   3.513   0.789   7.929  0.4405 -0.5183  1.1028
 7806TIP3   OH247612   4.572   5.782   7.227 -0.0735  0.7764  0.6881
 7806TIP3    H147613   4.483   5.814   7.243  0.1499  1.5606  0.4491
 7806TIP3    H247614   4.566   5.732   7.145 -0.1926  1.2999  0.3717
 7807TIP3   OH247615   4.349   4.941   9.480 -0.4035  0.4544 -0.5409
 7807TIP3    H147616   4.263   4.912   9.452 -0.9492 -0.0507  1.4504
 7807TIP3    H247617   4.382   4.870   9.535  0.8863  1.0354 -0.5247
 7808TIP3   OH247618   1.356   3.071   7.731  0.3518  0.0366 -0.4912
 7808TIP3    H147619   1.336   2.989   7.777 -1.0826  0.1246 -0.8939
 7808TIP3    H247620   1.451   3.078   7.735  0.4990 -1.5753 -0.3032
 7809TIP3   OH247621   0.832   2.738   6.340 -0.1290 -0.4945  0.0086
 7809TIP3    H147622   0.756   2.695   6.379 -0.9289  1.8345  1.1505
 7809TIP3    H247623   0.861   2.677   6.272 -2.7292 -1.6675 -0.1652
 7810TIP3   OH247624   2.694   6.510   8.219 -0.0799 -0.3171 -0.2037
 7810TIP3    H147625   2.681   6.559   8.301  1.0522  0.4929 -0.4912
 7810TIP3    H247626   2.755   6.440   8.242  2.7609  1.7593 -0.9725
 7811TIP3   OH247627   3.321   1.601   7.782 -0.0456  0.9950 -0.4358
 7811TIP3    H147628   3.228   1.604   7.802 -0.3415  2.5236 -1.8939
 7811TIP3    H247629   3.364   1.620   7.866 -0.8229 -3.0936  1.1341
 7812TIP3   OH247630   2.848   4.721   7.301  0.2656 -0.3963  0.3808
 7812TIP3    H147631   2.911   4.678   7.244 -1.3874 -1.6211 -0.6086
 7812TIP3    H247632   2.763   4.684   7.276 -0.5529 -1.0192  3.6326
 7813TIP3   OH247633   3.511   2.729   8.242 -0.1844  0.1095 -0.4387
 7813TIP3    H147634   3.568   2.701   8.313 -1.2482 -1.3824 -0.1232
 7813TIP3    H247635   3.483   2.647   8.200 -1.4203  0.8330 -1.0901
 7814TIP3   OH247636   4.735   6.040   5.625  0.1189  0.5525  0.5000
 7814TIP3    H147637   4.748   6.064   5.717 -1.5661  2.1540  0.3576
 7814TIP3    H247638   4.823   6.015   5.595  0.5773 -0.8330  2.7240
 7815TIP3   OH247639   5.893   0.391   8.600 -0.1988 -0.2230  0.0555
 7815TIP3    H147640   5.888   0.399   8.695 -0.5841  1.1177 -0.0572
 7815TIP3    H247641   5.881   0.480   8.568  3.8123  0.0846 -1.1306
 7816TIP3   OH247642   6.034   5.267   7.345  0.2438 -0.0591 -0.6331
 7816TIP3    H147643   6.086   5.267   7.265  1.0609  0.7031 -0.1330
 7816TIP3    H247644   5.981   5.347   7.339  1.8205  1.1477  0.4777
 7817TIP3   OH247645   5.710   3.279   5.533 -0.7166  0.4777  0.4494
 7817TIP3    H147646   5.677   3.189   5.523 -1.2043  0.6511  0.4700
 7817TIP3    H247647   5.782   3.285   5.470 -1.4101  0.4199 -0.3694
 7818TIP3   OH247648   3.069   2.580   6.631  0.4514 -0.3625  0.3259
 7818TIP3    H147649   3.065   2.596   6.725 -0.2424 -0.7855  0.3774
 7818TIP3    H247650   2.980   2.600   6.600  0.6916 -0.1696 -0.2497
 7819TIP3   OH247651   6.162   3.021   7.263  0.1690  0.2434  0.0244
 7819TIP3    H147652   6.248   3.056   7.288  0.5684 -0.7547  0.0974
 7819TIP3    H247653   6.140   3.067   7.182  1.0074  0.1395 -0.2711
 7820TIP3   OH247654   4.781   0.799   7.039  0.0401  0.3992  0.2121
 7820TIP3    H147655   4.795   0.777   6.947 -0.5978 -0.7237  0.3622
 7820TIP3    H247656   4.804   0.891   7.046 -0.2715  0.5934 -1.1523
 7821TIP3   OH247657   4.686   0.973   7.434 -0.1586 -0.5265  0.1406
 7821TIP3    H147658   4.774   1.003   7.409 -1.0626  1.4213 -0.9765
 7821TIP3    H247659   4.700   0.919   7.512  2.0011 -0.1736  0.0690
 7822TIP3   OH247660   6.452   3.028   7.617  0.5109 -0.0426 -0.3792
 7822TIP3    H147661   6.448   3.115   7.655 -0.5251 -0.1306 -0.2384
 7822TIP3    H247662   6.441   2.968   7.691  0.3101 -0.2626 -0.5838
 7823TIP3   OH247663   5.026   6.016   5.636 -0.6023 -0.5943  0.3701
 7823TIP3    H147664   5.072   6.014   5.552 -2.4073  0.6563 -0.7390
 7823TIP3    H247665   5.063   6.090   5.682 -1.0483  0.0418 -0.2656
 7824TIP3   OH247666   0.498   6.714   5.598 -0.0878  0.0571 -0.2094
 7824TIP3    H147667   0.416   6.763   5.588  0.2040  0.7874  0.7640
 7824TIP3    H247668   0.556   6.751   5.531 -0.1488  0.4666 -0.0438
 7825TIP3   OH247669   0.003   6.541   8.079 -0.1936  0.8900 -0.0332
 7825TIP3    H147670  -0.007   6.462   8.134  0.6369  0.6148 -0.2685
 7825TIP3    H247671  -0.057   6.526   8.006  0.6010  0.0584 -0.5340
 7826TIP3   OH247672   5.179   1.437   6.693 -0.3031  0.1693  0.3218
 7826TIP3    H147673   5.131   1.355   6.700  1.4019 -0.7798  1.7017
 7826TIP3    H247674   5.174   1.459   6.600  0.7328 -2.5125 -0.4768
 7827TIP3   OH247675   1.530   6.239   6.211 -0.2670  0.3533  0.2785
 7827TIP3    H147676   1.501   6.277   6.293  0.2466  0.8764  0.2301
 7827TIP3    H247677   1.516   6.308   6.146  1.2215  0.7093  0.2894
 7828TIP3   OH247678   1.788   4.498   6.498  0.4361 -0.7057 -0.2405
 7828TIP3    H147679   1.829   4.412   6.495 -0.8959 -1.3465 -1.8430
 7828TIP3    H247680   1.698   4.482   6.527  0.1242  0.1123 -0.7120
 7829TIP3   OH247681   2.709   0.090   7.133  0.5859 -0.0472  0.3938
 7829TIP3    H147682   2.723   0.035   7.210  1.2869  0.9186  0.9676
 7829TIP3    H247683   2.683   0.028   7.064  1.5286 -1.1208  0.9678
 7830TIP3   OH247684   1.084   3.366   7.268 -0.2460  0.1329  0.3176
 7830TIP3    H147685   1.092   3.401   7.179 -0.0135  2.2048  1.0878
 7830TIP3    H247686   1.160   3.401   7.313  0.1017 -1.6044  1.1489
 7831TIP3   OH247687   2.519   5.634   6.160 -0.5807  0.2128  0.2873
 7831TIP3    H147688   2.533   5.694   6.087 -1.0789 -0.8630 -0.7407
 7831TIP3    H247689   2.425   5.637   6.176 -0.8922 -1.4252 -0.8682
 7832TIP3   OH247690   5.609   5.384   7.479 -0.2559 -0.4727  0.0888
 7832TIP3    H147691   5.641   5.319   7.542 -0.2539  0.0567  0.6433
 7832TIP3    H247692   5.679   5.392   7.414 -0.6768 -1.7826 -0.5774
 7833TIP3   OH247693   3.790   1.255   6.271 -0.3658  0.2182 -0.3750
 7833TIP3    H147694   3.735   1.183   6.240 -0.3195  0.3266 -0.7099
 7833TIP3    H247695   3.879   1.220   6.270 -0.3576  0.2396 -0.4226
 7834TIP3   OH247696   3.910   6.363   6.507  0.5457  0.5548 -0.0480
 7834TIP3    H147697   3.866   6.427   6.562  0.2870 -1.3374  2.0831
 7834TIP3    H247698   3.974   6.414   6.457  0.1760  2.4939  1.3527
 7835TIP3   OH247699   0.003   4.534   9.068 -0.4608 -0.1099  0.6702
 7835TIP3    H147700  -0.072   4.572   9.022 -0.0758 -1.2973 -1.0721
 7835TIP3    H247701  -0.022   4.534   9.160 -2.4656 -0.1464  0.1664
 7836TIP3   OH247702   3.493   3.610   5.952 -0.0793  0.0021 -0.1530
 7836TIP3    H147703   3.567   3.666   5.975  0.0155 -0.6788  1.3064
 7836TIP3    H247704   3.498   3.537   6.013 -1.1823 -0.7446 -0.9163
 7837TIP3   OH247705   6.300   6.204   5.937  0.2222 -0.4134 -0.1128
 7837TIP3    H147706   6.336   6.146   6.004  0.9336  0.5252  0.3442
 7837TIP3    H247707   6.365   6.274   5.929 -0.8432  0.5812 -0.2851
 7838TIP3   OH247708   5.932   2.564   8.458 -0.0238 -0.1438  0.4789
 7838TIP3    H147709   5.837   2.557   8.468 -0.1523 -0.0187 -0.5402
 7838TIP3    H247710   5.964   2.584   8.546 -0.9816  0.2957  0.7439
 7839TIP3   OH247711   3.675   4.715   6.097  0.0491  0.2605 -0.2514
 7839TIP3    H147712   3.627   4.789   6.062  0.9638  0.1871 -1.7738
 7839TIP3    H247713   3.688   4.657   6.022  1.9990  0.0362  0.1904
 7840TIP3   OH247714   6.555   5.616   6.138  0.0443  0.2645  0.0076
 7840TIP3    H147715   6.461   5.633   6.124 -0.5906 -2.3427  0.6372
 7840TIP3    H247716   6.592   5.615   6.050 -0.9172 -0.5623 -0.4114
 7841TIP3   OH247717   3.699   0.793   7.297  0.5268 -0.0536 -0.5228
 7841TIP3    H147718   3.681   0.831   7.383  0.1173 -1.4269  0.0292
 7841TIP3    H247719   3.770   0.730   7.313  0.2464 -0.5306 -1.1282
 7842TIP3   OH247720   3.159   4.933   7.043 -0.8950 -0.0872 -0.4870
 7842TIP3    H147721   3.234   4.941   7.101 -0.2012  2.1194 -1.5863
 7842TIP3    H247722   3.083   4.952   7.099 -0.3847  0.4078  0.0440
 7843TIP3   OH247723   0.462   1.152   7.269  0.1574  0.0571 -0.1420
 7843TIP3    H147724   0.452   1.121   7.359 -0.9494 -0.5945 -0.4636
 7843TIP3    H247725   0.550   1.191   7.266  0.8804 -1.4126  0.7759
 7844TIP3   OH247726   5.884   6.534   6.312 -0.3048 -0.0410 -0.6764
 7844TIP3    H147727   5.880   6.608   6.251  0.0387  1.0268  0.5316
 7844TIP3    H247728   5.967   6.490   6.292 -0.7908 -0.4680 -1.7963
 7845TIP3   OH247729   0.878   6.752   9.111  0.0129 -0.7962 -0.4746
 7845TIP3    H147730   0.834   6.825   9.155 -0.3427 -0.5826 -1.1648
 7845TIP3    H247731   0.836   6.748   9.025  1.2061 -0.7107 -1.0789
 7846TIP3   OH247732   5.593   3.032   5.526  0.0312  0.4955 -0.2294
 7846TIP3    H147733   5.542   2.961   5.564  1.2542 -0.5133 -0.3874
 7846TIP3    H247734   5.682   2.996   5.517  0.7760  2.1556  0.0098
 7847TIP3   OH247735   4.851   3.893   7.370 -1.2883  0.2047  0.0488
 7847TIP3    H147736   4.766   3.889   7.413 -1.6090  0.3660 -0.5639
 7847TIP3    H247737   4.831   3.902   7.277 -0.6016  0.5262 -0.0742
 7848TIP3   OH247738   3.648   3.320   7.097 -0.0543  0.2743  0.3110
 7848TIP3    H147739   3.562   3.340   7.133  0.4148  1.2284  0.9582
 7848TIP3    H247740   3.685   3.256   7.158  0.4797  1.3947  1.1963
 7849TIP3   OH247741   6.647   2.771   6.528 -0.2771  0.3235 -0.7725
 7849TIP3    H147742   6.642   2.835   6.457 -0.1398  1.9926  0.6663
 7849TIP3    H247743   6.593   2.808   6.598 -1.3514 -1.8296 -0.3733
 7850TIP3   OH247744   4.684   4.728   8.109 -0.3416 -0.5126 -0.1795
 7850TIP3    H147745   4.737   4.769   8.041  0.1151 -1.8445 -0.6516
 7850TIP3    H247746   4.741   4.726   8.186  0.1990 -1.6233 -0.5878
 7851TIP3   OH247747   5.762   5.759   8.004  0.6764 -0.0745 -0.0253
 7851TIP3    H147748   5.698   5.812   7.956  0.7107  1.5266  1.5871
 7851TIP3    H247749   5.828   5.737   7.938 -0.4806 -0.0298 -1.2502
 7852TIP3   OH247750   5.281   1.878   6.581 -0.6119  0.0734  0.2733
 7852TIP3    H147751   5.251   1.898   6.492 -0.2361 -2.0441 -0.3856
 7852TIP3    H247752   5.359   1.825   6.569 -0.5089 -0.1913  1.8831
 7853TIP3   OH247753   1.156   0.954   6.419 -0.2326 -0.3328  0.8015
 7853TIP3    H147754   1.079   1.007   6.399 -1.0736 -1.5515  0.6660
 7853TIP3    H247755   1.208   0.955   6.338 -0.9442 -0.8564  0.3259
 7854TIP3   OH247756   5.077   4.107   8.529  0.1777  0.2471 -0.5289
 7854TIP3    H147757   5.077   4.202   8.516 -1.0429  0.4009  0.4153
 7854TIP3    H247758   5.168   4.081   8.514  1.7073  2.2269  3.6282
 7855TIP3   OH247759   2.874   6.291   8.301 -0.6570  0.3286 -0.2961
 7855TIP3    H147760   2.881   6.283   8.397 -2.2455  2.3846  0.0678
 7855TIP3    H247761   2.944   6.351   8.277 -0.5966  0.2334 -0.3592
 7856TIP3   OH247762   0.968   2.379   7.334  0.1913  0.4002  0.0606
 7856TIP3    H147763   0.919   2.461   7.342 -0.4168  0.2253 -1.5452
 7856TIP3    H247764   1.054   2.399   7.370 -0.1993  1.5049  0.4335
 7857TIP3   OH247765   5.213   5.705   5.678 -0.0179  0.1756  0.0060
 7857TIP3    H147766   5.135   5.707   5.734 -1.9339 -1.5161 -2.3523
 7857TIP3    H247767   5.222   5.794   5.646 -0.5686  0.5481  0.8693
 7858TIP3   OH247768   4.032   1.959   6.797 -0.8873  0.0214  0.3421
 7858TIP3    H147769   4.036   2.037   6.740  1.2095  0.7799  1.4238
 7858TIP3    H247770   4.122   1.929   6.802 -0.9386  0.0842  3.3642
 7859TIP3   OH247771   0.080   6.280   5.728  0.4988  0.1885  0.2386
 7859TIP3    H147772   0.168   6.247   5.749  0.6295  0.4370  0.1012
 7859TIP3    H247773   0.097   6.362   5.680  0.1951  0.1013 -0.0207
 7860TIP3   OH247774   4.362   1.851   6.305 -0.3791  0.0555 -0.3533
 7860TIP3    H147775   4.436   1.828   6.248 -0.2160 -1.4169  0.4029
 7860TIP3    H247776   4.316   1.768   6.319 -0.9369  0.5534  0.9025
 7861TIP3   OH247777   0.376   3.928   6.034 -0.4836 -1.0244  0.1943
 7861TIP3    H147778   0.370   3.857   5.969  0.7316  0.6802 -1.9163
 7861TIP3    H247779   0.457   3.910   6.081  0.9261 -0.0427 -1.7183
 7862TIP3   OH247780   4.497   5.756   6.040  0.8378 -0.1100  0.2753
 7862TIP3    H147781   4.436   5.701   6.091  0.1324  1.3949  1.1350
 7862TIP3    H247782   4.499   5.715   5.954  0.7276 -1.7600  1.0071
 7863TIP3   OH247783   1.017   5.292   6.486  0.2505 -0.4671 -0.1133
 7863TIP3    H147784   0.951   5.223   6.474  0.4588 -1.1477  2.2256
 7863TIP3    H247785   0.972   5.373   6.463 -1.6379 -0.8474  1.9234
 7864TIP3   OH247786   5.071   1.527   7.435 -0.1557 -0.1026 -0.8208
 7864TIP3    H147787   5.108   1.597   7.380 -0.4872  0.6530 -0.0984
 7864TIP3    H247788   5.011   1.572   7.494  0.5794 -0.8200  0.5225
 7865TIP3   OH247789   2.256   0.346   8.420 -0.6375  0.2938 -0.1220
 7865TIP3    H147790   2.168   0.375   8.445 -1.1817 -1.1528 -0.2310
 7865TIP3    H247791   2.297   0.320   8.503 -0.5230  0.4453 -0.1325
 7866TIP3   OH247792   2.631   4.377   5.905  0.0405  0.2552 -0.0782
 7866TIP3    H147793   2.609   4.307   5.844 -0.2864  0.8492 -0.6492
 7866TIP3    H247794   2.716   4.351   5.941  0.0074 -0.3422 -0.4104
 7867TIP3   OH247795   1.913   1.281   9.124  0.0959  0.2357 -0.4917
 7867TIP3    H147796   1.969   1.207   9.145 -0.3630 -0.7275 -2.4154
 7867TIP3    H247797   1.831   1.263   9.169  0.4900  0.3514  0.2754
 7868TIP3   OH247798   6.574   1.193   8.430 -0.0602 -0.1658 -0.0209
 7868TIP3    H147799   6.590   1.183   8.336 -1.3291  1.7885 -0.5237
 7868TIP3    H247800   6.525   1.115   8.454  1.7325 -1.5013 -0.5812
 7869TIP3   OH247801   5.401   6.009   7.990  0.4807  0.8030  0.0335
 7869TIP3    H147802   5.450   5.985   8.069 -0.0598  0.1073  0.1622
 7869TIP3    H247803   5.312   6.025   8.020  0.4344  1.2561 -0.3281
 7870TIP3   OH247804   6.466   4.190   7.615 -0.2905 -0.4861 -0.1611
 7870TIP3    H147805   6.532   4.133   7.575 -0.7562 -0.3257 -1.1848
 7870TIP3    H247806   6.511   4.230   7.690  0.5289 -0.9657 -0.3882
 7871TIP3   OH247807   6.273   5.096   7.921 -0.0159 -0.9133 -0.6263
 7871TIP3    H147808   6.342   5.084   7.855  2.1277 -0.5251  1.3867
 7871TIP3    H247809   6.248   5.188   7.913  0.6698 -0.7102 -0.5225
 7872TIP3   OH247810   0.334   1.803   6.346  0.1594 -0.3679  0.3174
 7872TIP3    H147811   0.413   1.857   6.343 -0.0255 -0.1350 -0.5885
 7872TIP3    H247812   0.365   1.715   6.328  0.4749 -0.6101  1.8858
 7873TIP3   OH247813   0.968   3.639   7.287  0.0257 -0.5112 -0.3719
 7873TIP3    H147814   0.979   3.665   7.195  0.8389  1.5914  0.2793
 7873TIP3    H247815   1.056   3.621   7.318 -0.2419 -1.1487  0.0378
 7874TIP3   OH247816   0.412   3.339   6.338 -0.0305  0.0124  0.6414
 7874TIP3    H147817   0.371   3.425   6.330  0.0881  0.0388  0.3229
 7874TIP3    H247818   0.492   3.345   6.286 -0.1093 -0.3463  0.4768
 7875TIP3   OH247819   3.392   0.271   7.441  0.1977  0.4170  0.3989
 7875TIP3    H147820   3.325   0.257   7.508  0.6601  0.8237  0.9607
 7875TIP3    H247821   3.346   0.318   7.371 -0.6238 -1.1996 -0.1942
 7876TIP3   OH247822   3.912   0.981   5.997  0.5492 -0.0899 -0.2196
 7876TIP3    H147823   3.925   0.907   5.938 -0.1728 -0.3327 -0.0852
 7876TIP3    H247824   3.830   1.021   5.966  0.8996  0.6089 -0.2462
 7877TIP3   OH247825   2.114   2.703   7.882 -0.9796  0.3762 -0.0809
 7877TIP3    H147826   2.103   2.669   7.793 -0.3361  0.7760 -0.3199
 7877TIP3    H247827   2.184   2.648   7.919  0.4292  1.7051 -0.6392
 7878TIP3   OH247828   3.925   1.966   6.124  0.3306 -0.5379  0.1620
 7878TIP3    H147829   3.958   1.880   6.150  2.0426  0.3534  1.1089
 7878TIP3    H247830   4.003   2.017   6.106 -0.6747  0.7091 -0.8279
 7879TIP3   OH247831   5.365   1.396   8.196  0.3990  0.0801  0.3824
 7879TIP3    H147832   5.374   1.361   8.108 -0.3021  0.0605  0.3109
 7879TIP3    H247833   5.445   1.445   8.211  0.8689 -0.5646  0.0320
 7880TIP3   OH247834   4.151   3.362   6.598  0.3113  0.2349  0.0308
 7880TIP3    H147835   4.083   3.408   6.648 -0.5474 -0.3522 -0.5692
 7880TIP3    H247836   4.188   3.299   6.660 -0.5686 -0.3125  0.0171
 7881TIP3   OH247837   4.758   5.959   7.716  0.5608  0.1723  0.5939
 7881TIP3    H147838   4.810   5.885   7.744 -1.1102 -0.4578  2.2494
 7881TIP3    H247839   4.723   5.933   7.630  2.6694  0.5110 -0.4179
 7882TIP3   OH247840   6.394   1.154   9.155  0.3193 -0.1580  0.3768
 7882TIP3    H147841   6.481   1.121   9.180  0.9238  1.3353  0.3673
 7882TIP3    H247842   6.408   1.247   9.139 -1.1594 -0.0307 -0.3271
 7883TIP3   OH247843   4.252   0.790   7.839  0.7102  0.4952 -0.0003
 7883TIP3    H147844   4.205   0.710   7.815  0.0876  1.2205 -1.3291
 7883TIP3    H247845   4.207   0.822   7.917  0.7396 -0.2477  0.3366
 7884TIP3   OH247846   2.816   4.347   9.302  1.1562 -0.2649  0.2422
 7884TIP3    H147847   2.793   4.440   9.295  2.2560 -0.0788 -1.3914
 7884TIP3    H247848   2.911   4.346   9.299  1.2028 -1.4040  1.3373
 7885TIP3   OH247849   1.223   1.858   6.538 -0.6879 -0.3585  0.0635
 7885TIP3    H147850   1.155   1.794   6.516  0.0418 -0.3393 -2.6087
 7885TIP3    H247851   1.220   1.922   6.466  1.0636  0.5400  0.7391
 7886TIP3   OH247852   4.815   4.118   6.809  0.2787 -0.3043  0.3825
 7886TIP3    H147853   4.846   4.036   6.770 -0.7500  0.0863 -1.4067
 7886TIP3    H247854   4.750   4.091   6.874  0.4749 -0.9451  0.3190
 7887TIP3   OH247855   0.608   2.338   6.564 -0.2520 -0.1006  0.6136
 7887TIP3    H147856   0.600   2.429   6.536  0.3203  0.0586  0.9474
 7887TIP3    H247857   0.598   2.342   6.660 -1.8795 -0.5951  0.4956
 7888TIP3   OH247858   6.240   6.689   8.596 -0.4347 -0.1290 -0.0881
 7888TIP3    H147859   6.145   6.674   8.590 -0.8247  2.1472 -0.3973
 7888TIP3    H247860   6.261   6.673   8.688 -1.4247  0.8580  0.3267
 7889TIP3   OH247861   3.432   4.707   6.315 -0.2482 -0.2617 -0.9180
 7889TIP3    H147862   3.490   4.634   6.294 -1.7529 -2.1565  1.0092
 7889TIP3    H247863   3.452   4.727   6.406 -0.7030  0.9441 -1.0696
 7890TIP3   OH247864   6.332   4.159   5.776  0.0373  0.2859 -0.0347
 7890TIP3    H147865   6.240   4.134   5.769  0.0002  0.3502  0.2197
 7890TIP3    H247866   6.351   4.202   5.692  0.3586 -1.4025 -0.8793
 7891TIP3   OH247867   1.537   5.958   7.820 -0.1602  0.3645  0.1291
 7891TIP3    H147868   1.557   5.949   7.727  0.5055  0.3187  0.2706
 7891TIP3    H247869   1.461   5.902   7.834 -1.4262  1.7542 -0.7522
 7892TIP3   OH247870   3.742   6.020   6.925 -0.0302 -0.4819 -0.1040
 7892TIP3    H147871   3.714   5.949   6.867 -1.5055 -1.4328  1.6743
 7892TIP3    H247872   3.834   6.000   6.945  0.1868 -0.7070 -1.2463
 7893TIP3   OH247873   0.704   3.886   6.252  0.3159 -0.4879 -0.1652
 7893TIP3    H147874   0.731   3.961   6.306  0.5051 -0.1648 -0.7037
 7893TIP3    H247875   0.638   3.841   6.305  0.2026  0.0551  0.1634
 7894TIP3   OH247876   4.769   0.014   5.988 -0.6810  0.0016  0.5147
 7894TIP3    H147877   4.703   0.083   5.987  0.9429  1.6436 -0.0934
 7894TIP3    H247878   4.836   0.046   6.049  0.8677 -0.2492 -0.9882
 7895TIP3   OH247879   5.018   3.647   6.194 -0.1019 -0.0509 -0.4360
 7895TIP3    H147880   5.103   3.682   6.221  0.2140 -0.4251 -0.9414
 7895TIP3    H247881   4.987   3.708   6.127  0.3615 -0.6279 -1.1794
 7896TIP3   OH247882   6.444   2.842   7.832 -0.0493  0.2037 -0.1962
 7896TIP3    H147883   6.391   2.770   7.798  0.0191 -1.1190  2.2873
 7896TIP3    H247884   6.522   2.799   7.867  1.2054  1.7978 -0.8825
 7897TIP3   OH247885   0.747   4.170   8.361  0.1598 -0.2099 -0.4000
 7897TIP3    H147886   0.795   4.214   8.431  0.4861  3.0398 -2.4716
 7897TIP3    H247887   0.815   4.137   8.302 -0.1111 -2.9660  0.6729
 7898TIP3   OH247888   2.268   5.079   8.910 -0.4530 -0.2187  0.5983
 7898TIP3    H147889   2.200   5.034   8.860  0.2947 -0.1846 -0.4668
 7898TIP3    H247890   2.223   5.153   8.950 -0.8318  0.4179 -0.9611
 7899TIP3   OH247891   4.641   5.086   8.099  0.4674  0.2128 -0.4601
 7899TIP3    H147892   4.623   5.018   8.163 -0.2356 -0.9658 -1.8479
 7899TIP3    H247893   4.735   5.104   8.109  0.3037  0.3292  1.1079
 7900TIP3   OH247894   2.107   3.586   6.988 -0.1473  0.0615 -0.2524
 7900TIP3    H147895   2.181   3.630   6.946  1.4373  0.0766  2.3778
 7900TIP3    H247896   2.046   3.656   7.009  0.7658  0.5854  0.7608
 7901TIP3   OH247897   2.997   5.245   7.164 -0.6748 -0.4645  0.1759
 7901TIP3    H147898   3.006   5.335   7.196  1.6094 -1.0387  1.4182
 7901TIP3    H247899   3.024   5.191   7.238 -1.3779 -2.1600 -0.7552
 7902TIP3   OH247900   0.113   3.639   7.778  0.1633 -0.0002  0.5722
 7902TIP3    H147901   0.090   3.729   7.757  0.1973  0.0399  0.7066
 7902TIP3    H247902   0.110   3.635   7.874 -2.1611 -0.7440  0.5375
 7903TIP3   OH247903   1.511   5.218   7.447  0.6847  0.0044 -0.0294
 7903TIP3    H147904   1.602   5.245   7.461  0.8140  0.0460 -0.8466
 7903TIP3    H247905   1.486   5.261   7.365 -0.0987  0.0449  0.2229
 7904TIP3   OH247906   1.372   5.037   6.014 -0.0192 -0.0064  0.0318
 7904TIP3    H147907   1.438   5.051   5.946  0.7617 -0.8133  0.5956
 7904TIP3    H247908   1.362   5.122   6.057 -0.4647  0.4879 -1.0349
 7905TIP3   OH247909   3.066   1.742   7.727  0.3380 -0.4830  0.0192
 7905TIP3    H147910   2.997   1.682   7.755 -0.0270  0.0609  0.3144
 7905TIP3    H247911   3.069   1.734   7.632 -1.9570  1.3988 -0.2957
 7906TIP3   OH247912   2.692   1.895   7.958  0.0103 -0.6110 -0.1689
 7906TIP3    H147913   2.693   1.986   7.986 -0.3471 -0.6366 -0.0658
 7906TIP3    H247914   2.784   1.867   7.962 -0.2167 -1.3570  3.4146
 7907TIP3   OH247915   4.531   2.082  14.763 -0.3648 -0.0283 -0.2170
 7907TIP3    H147916   4.530   2.038  14.678 -0.7408 -0.2699 -0.0922
 7907TIP3    H247917   4.497   2.170  14.744  0.1364  0.1217 -0.4223
 7908TIP3   OH247918   6.106   1.266   6.642 -0.1118  0.2464 -0.5069
 7908TIP3    H147919   6.024   1.291   6.685 -0.5541 -2.0849  0.1284
 7908TIP3    H247920   6.094   1.293   6.551 -2.5628 -1.9103 -0.9548
 7909TIP3   OH247921   6.446   5.307   6.855 -0.1939 -0.2106 -0.2860
 7909TIP3    H147922   6.443   5.332   6.763 -0.9726  0.8852  0.0111
 7909TIP3    H247923   6.536   5.280   6.870  0.0021 -0.1623 -1.3029
 7910TIP3   OH247924   3.311   5.246   7.348  0.1974  0.4616  0.2663
 7910TIP3    H147925   3.379   5.216   7.288  0.6084 -0.3622  1.1071
 7910TIP3    H247926   3.318   5.341   7.347  1.0353  0.4080 -0.0275
 7911TIP3   OH247927   1.684   4.959   6.649  0.0736 -1.2061 -0.3415
 7911TIP3    H147928   1.702   4.975   6.556  0.6410 -1.2141 -0.2405
 7911TIP3    H247929   1.634   5.036   6.677  0.1730 -1.0518 -0.5803
 7912TIP3   OH247930   4.235   4.948   7.520 -0.6252 -0.0273 -0.0332
 7912TIP3    H147931   4.249   4.860   7.485 -2.4885  0.5007 -2.3350
 7912TIP3    H247932   4.158   4.980   7.474  0.5915  3.2307 -0.0618
 7913TIP3   OH247933   0.202   3.379   8.466 -0.2657  0.3862  0.0690
 7913TIP3    H147934   0.200   3.332   8.550 -1.3149 -0.8275 -0.6064
 7913TIP3    H247935   0.110   3.391   8.443  0.0165  0.6528 -0.9582
 7914TIP3   OH247936   4.487   2.586   8.355 -0.3998 -0.1247  0.2416
 7914TIP3    H147937   4.517   2.572   8.445 -2.1952 -2.4026  0.6141
 7914TIP3    H247938   4.392   2.596   8.363 -0.4950  0.5255 -1.3391
 7915TIP3   OH247939   4.952   0.521   7.143 -0.0409  1.2953  0.1797
 7915TIP3    H147940   4.993   0.538   7.228 -1.9824  0.5826  1.3274
 7915TIP3    H247941   4.867   0.565   7.148 -2.1107 -2.3003  0.4092
 7916TIP3   OH247942   2.466   5.826   7.389 -0.6048 -0.4023 -0.0444
 7916TIP3    H147943   2.454   5.919   7.369 -0.9386 -0.0220  1.6958
 7916TIP3    H247944   2.392   5.782   7.347 -1.0837  0.2793  0.0640
 7917TIP3   OH247945   1.155   5.718   7.387 -0.2954  0.1538  0.3293
 7917TIP3    H147946   1.156   5.644   7.326  1.9598 -0.8858  1.5004
 7917TIP3    H247947   1.087   5.696   7.450  0.0480 -0.7281  0.4113
 7918TIP3   OH247948   3.496   6.506   5.553 -0.7426  0.1265 -0.1857
 7918TIP3    H147949   3.464   6.447   5.486  0.4457  0.0494 -0.7029
 7918TIP3    H247950   3.422   6.515   5.614 -1.0433 -1.6665 -0.2244
 7919TIP3   OH247951   5.122   6.251   5.728 -0.2041  0.2761  0.0413
 7919TIP3    H147952   5.178   6.294   5.664  0.6707 -0.0383  0.5743
 7919TIP3    H247953   5.096   6.321   5.788 -2.4149  0.9322 -1.5449
 7920TIP3   OH247954   4.752   4.135   5.422  0.3870  0.0664  0.4760
 7920TIP3    H147955   4.814   4.103   5.487  0.7772  2.3710  1.3292
 7920TIP3    H247956   4.804   4.189   5.363 -0.5298  0.8210  0.3173
 7921TIP3   OH247957   0.415   1.013   8.182 -0.3203 -0.0900  0.3910
 7921TIP3    H147958   0.395   0.960   8.260 -1.1605  1.4728  1.2733
 7921TIP3    H247959   0.353   1.085   8.185  0.3744  0.6212 -1.1459
 7922TIP3   OH247960   3.614   2.238   8.310  0.0750 -0.3426 -0.4086
 7922TIP3    H147961   3.632   2.153   8.350 -2.9697  0.3168  2.9294
 7922TIP3    H247962   3.694   2.288   8.323  0.8847 -1.7667  0.3500
 7923TIP3   OH247963   1.036   4.220   5.841 -0.5295  0.2922  0.0311
 7923TIP3    H147964   1.042   4.125   5.854 -0.6372 -0.1722 -2.7794
 7923TIP3    H247965   0.942   4.238   5.836 -0.4936  0.1598 -1.5701
 7924TIP3   OH247966   2.292   5.544   6.927 -0.3339 -0.2990 -0.2370
 7924TIP3    H147967   2.272   5.629   6.886 -0.5249 -1.0257 -1.7311
 7924TIP3    H247968   2.309   5.565   7.018  0.1918  1.4247 -0.6942
 7925TIP3   OH247969   3.728   6.390   7.133  0.5277  0.1536  0.3430
 7925TIP3    H147970   3.673   6.443   7.076  0.0148  0.3250  0.9969
 7925TIP3    H247971   3.764   6.451   7.197 -1.3987 -0.4783  2.1561
 7926TIP3   OH247972   0.685   0.532   8.875 -0.2103  0.1328  0.2769
 7926TIP3    H147973   0.711   0.470   8.807 -1.3570  0.0935 -0.1519
 7926TIP3    H247974   0.698   0.485   8.957 -1.6857 -0.9495 -0.0713
 7927TIP3   OH247975   3.216   3.978   7.405 -0.1446 -0.0153 -0.1257
 7927TIP3    H147976   3.211   3.884   7.423  2.3658 -0.1065  0.4450
 7927TIP3    H247977   3.260   3.983   7.320 -1.6978  0.6724 -0.9384
 7928TIP3   OH247978   2.462   1.908   7.130 -0.0783  0.6623 -0.0457
 7928TIP3    H147979   2.529   1.864   7.078  1.1885 -0.7753  2.5965
 7928TIP3    H247980   2.483   2.001   7.123  2.0862  0.2627  0.4801
 7929TIP3   OH247981   5.569   4.003   7.165 -0.5246  0.3181 -0.4142
 7929TIP3    H147982   5.557   4.004   7.260  1.8329 -0.5916 -0.0348
 7929TIP3    H247983   5.508   3.937   7.134 -0.6307 -0.0777  0.5964
 7930TIP3   OH247984   2.253   1.949   8.015  0.0453 -0.2465 -0.4421
 7930TIP3    H147985   2.305   1.978   7.940  0.1944 -0.4453 -0.4153
 7930TIP3    H247986   2.268   1.855   8.020  1.0462 -0.0406  0.6220
 7931TIP3   OH247987   4.106   5.468   6.337 -0.5062  0.3286  0.4339
 7931TIP3    H147988   4.063   5.391   6.298  0.6181 -1.0565  1.8228
 7931TIP3    H247989   4.082   5.465   6.429 -0.0930  1.4329  0.5975
 7932TIP3   OH247990   1.427   2.945   8.540  0.2684 -0.4079  0.0919
 7932TIP3    H147991   1.479   3.025   8.536  2.4530 -1.7364  0.2529
 7932TIP3    H247992   1.376   2.945   8.459  1.6435  0.2526 -0.8092
 7933TIP3   OH247993   5.724   2.653   5.612  0.0652  0.1190 -0.5466
 7933TIP3    H147994   5.780   2.594   5.662  0.3713 -0.5902 -1.6934
 7933TIP3    H247995   5.638   2.611   5.614 -0.2873  0.8428  0.6026
 7934TIP3   OH247996   1.838   3.844   8.105  0.3369  0.2259  0.3331
 7934TIP3    H147997   1.919   3.876   8.068 -0.2294 -0.9663 -2.1407
 7934TIP3    H247998   1.807   3.915   8.160  3.7284  0.1564  2.6231
 7935TIP3   OH247999   2.277   2.343   6.064 -0.4017  0.1154  0.2074
 7935TIP3    H148000   2.369   2.317   6.075 -0.2460 -0.8808 -2.6459
 7935TIP3    H248001   2.250   2.372   6.151  2.4652 -0.0064  1.2485
 7936TIP3   OH248002   5.349   3.125   5.760  0.2184 -0.5104 -0.7398
 7936TIP3    H148003   5.272   3.182   5.765  0.2410 -0.5582  0.3119
 7936TIP3    H248004   5.420   3.179   5.795 -0.0016 -1.5704  1.4945
 7937TIP3   OH248005   2.408   4.584   5.501  0.2822  0.4264  0.1411
 7937TIP3    H148006   2.357   4.531   5.562  0.8470 -1.6446 -1.0995
 7937TIP3    H248007   2.344   4.615   5.436  0.1189  0.4123  0.2968
 7938TIP3   OH248008   5.076   3.957   7.666 -0.2065 -0.0150 -0.2174
 7938TIP3    H148009   5.165   3.970   7.634 -0.2088 -1.6275 -0.9494
 7938TIP3    H248010   5.041   4.045   7.676  2.0237  0.7667  1.7726
 7939TIP3   OH248011   2.637   4.818   6.784  0.6642  0.5670 -0.2075
 7939TIP3    H148012   2.625   4.756   6.712 -2.2630 -0.6667  1.1880
 7939TIP3    H248013   2.731   4.818   6.801  1.2190 -0.2946 -2.9587
 7940TIP3   OH248014   5.771   3.943   6.946  0.0021  0.4725  0.7812
 7940TIP3    H148015   5.690   3.959   6.996 -1.8576 -1.3747 -1.4063
 7940TIP3    H248016   5.776   4.016   6.884  0.1653  0.7211  1.0848
 7941TIP3   OH248017   2.041   4.252   7.159  0.3688 -0.3367  0.2682
 7941TIP3    H148018   2.134   4.269   7.175  0.1460  0.8239  0.4016
 7941TIP3    H248019   2.036   4.239   7.064  0.9298 -2.2801  0.4563
 7942TIP3   OH248020   5.938   4.811   6.522  0.5714  0.1108  0.9397
 7942TIP3    H148021   5.889   4.837   6.444 -0.2393 -3.0384  0.2618
 7942TIP3    H248022   6.030   4.810   6.494  0.2078 -2.0174 -0.4059
 7943TIP3   OH248023   3.781   6.028   7.482  0.2078 -0.3701  0.2783
 7943TIP3    H148024   3.845   6.098   7.497  2.2307 -2.1323  0.3727
 7943TIP3    H248025   3.744   6.011   7.568  0.7190 -0.3165  0.5165
 7944TIP3   OH248026   6.345   0.337   7.356  0.1476 -0.0112 -0.4958
 7944TIP3    H148027   6.299   0.281   7.418 -0.7402  0.3256 -0.8232
 7944TIP3    H248028   6.305   0.424   7.368 -1.0821 -0.2221 -2.5123
 7945TIP3   OH248029   1.425   4.838   5.505 -0.3952  0.2308  0.0745
 7945TIP3    H148030   1.464   4.905   5.448  0.9488  0.4211  1.1479
 7945TIP3    H248031   1.452   4.755   5.465 -3.1688  0.1872 -2.0205
 7946TIP3   OH248032   4.531   1.604   5.966 -0.1386 -0.0759 -0.3173
 7946TIP3    H148033   4.614   1.557   5.953  0.6940  0.5236  2.2460
 7946TIP3    H248034   4.466   1.535   5.979  0.9276 -0.6525  2.6280
 7947TIP3   OH248035   3.279   0.735   8.387 -0.1339  0.6246 -0.5401
 7947TIP3    H148036   3.195   0.735   8.434  1.4308  0.9285  2.4536
 7947TIP3    H248037   3.285   0.647   8.350 -1.6528  0.5220 -0.6266
 7948TIP3   OH248038   0.370   6.445   6.844 -0.0066  0.0876  0.4233
 7948TIP3    H148039   0.389   6.364   6.892  0.1678 -1.0984 -1.5205
 7948TIP3    H248040   0.282   6.469   6.872  0.6171  0.2607  2.3707
 7949TIP3   OH248041   4.918   1.282   7.538 -0.1698 -0.3308  0.1371
 7949TIP3    H148042   4.949   1.366   7.503 -0.0086 -0.1970  0.6051
 7949TIP3    H248043   4.888   1.235   7.460 -1.0941  0.5023 -0.0325
 7950TIP3   OH248044   5.264   1.914   8.105  0.5655  0.1290 -0.2337
 7950TIP3    H148045   5.215   1.901   8.186 -0.9197  0.7635 -0.9918
 7950TIP3    H248046   5.278   1.826   8.070  0.8662 -0.1203  0.4996
 7951TIP3   OH248047   4.652   3.979   7.536  0.2713 -0.2774  0.6488
 7951TIP3    H148048   4.657   4.035   7.613 -1.0581  0.8817 -0.0680
 7951TIP3    H248049   4.561   3.948   7.534  0.7637 -1.8018  0.5622
 7952TIP3   OH248050   0.699   6.251   7.115  0.1552 -0.0154 -0.4836
 7952TIP3    H148051   0.707   6.160   7.085  1.4913 -0.0106 -0.2142
 7952TIP3    H248052   0.740   6.252   7.201  0.9014  1.0022 -0.8281
 7953TIP3   OH248053   1.181   0.234   6.063  0.3767  0.3480  0.3361
 7953TIP3    H148054   1.183   0.329   6.052 -1.2177  0.4918  0.9844
 7953TIP3    H248055   1.171   0.221   6.158  1.6693 -0.5082  0.3829
 7954TIP3   OH248056   6.275   0.096   6.090 -0.5204  0.0905  0.2593
 7954TIP3    H148057   6.219   0.171   6.074  0.2044  0.5043 -0.4245
 7954TIP3    H248058   6.242   0.028   6.032  0.6142  0.8305 -1.3439
 7955TIP3   OH248059   5.364   2.729   7.103 -0.6409 -0.3201  0.0532
 7955TIP3    H148060   5.329   2.774   7.026 -0.7917 -1.9603 -0.8940
 7955TIP3    H248061   5.300   2.660   7.122 -0.9735  0.4715  2.1253
 7956TIP3   OH248062   1.119   1.848   7.702  0.1451 -0.5322  0.1413
 7956TIP3    H148063   1.192   1.845   7.763  1.3136 -1.2947 -1.2144
 7956TIP3    H248064   1.103   1.756   7.680  0.6717 -0.2251 -1.6955
 7957TIP3   OH248065   4.555   3.823   7.849  0.3275 -0.6118  0.2438
 7957TIP3    H148066   4.537   3.770   7.927  2.2404 -0.0459  1.1503
 7957TIP3    H248067   4.620   3.772   7.800  0.0004 -0.4277 -0.3960
 7958TIP3   OH248068   4.908   0.194   7.552  0.1999  0.0639 -0.3582
 7958TIP3    H148069   4.858   0.256   7.605  0.7722 -0.3120  0.6387
 7958TIP3    H248070   4.863   0.194   7.467 -0.3406  1.1649 -0.0942
 7959TIP3   OH248071   1.605   4.757   8.357  0.4762  0.6139  0.1059
 7959TIP3    H148072   1.524   4.760   8.408  1.4171  1.1311  1.6207
 7959TIP3    H248073   1.666   4.708   8.411  0.3201 -2.7155 -2.4230
 7960TIP3   OH248074   4.642   1.948   6.943  0.4287 -0.5935 -0.3567
 7960TIP3    H148075   4.564   1.915   6.987 -0.6146 -1.0422 -2.4393
 7960TIP3    H248076   4.640   2.043   6.960 -1.7350 -0.2657 -2.0028
 7961TIP3   OH248077   2.751   3.709   7.297  0.0918 -0.2870 -0.3030
 7961TIP3    H148078   2.736   3.785   7.354  0.1243 -0.6142  0.1480
 7961TIP3    H248079   2.664   3.669   7.287 -0.1188  0.3850 -1.3856
 7962TIP3   OH248080   4.915   4.881   7.776  0.1445  0.2414  0.2494
 7962TIP3    H148081   4.908   4.841   7.863  2.4132 -2.3888 -0.6100
 7962TIP3    H248082   4.871   4.820   7.718 -0.6180  1.5491 -0.5890
 7963TIP3   OH248083   4.909   5.116   8.127  0.5363  0.1987 -0.4274
 7963TIP3    H148084   4.952   5.076   8.052 -0.0592 -1.0231 -0.1397
 7963TIP3    H248085   4.961   5.195   8.145  1.0704  0.1628 -1.6969
 7964TIP3   OH248086   3.575   0.248   8.250 -0.1954  0.3598 -0.1009
 7964TIP3    H148087   3.487   0.233   8.284 -0.4910  0.0935 -0.9427
 7964TIP3    H248088   3.562   0.307   8.175  0.5068  1.5058  0.6580
 7965TIP3   OH248089   0.265   6.044   8.369 -0.6556 -0.4101  0.4139
 7965TIP3    H148090   0.339   6.044   8.308 -0.0580 -1.5439  1.1131
 7965TIP3    H248091   0.251   6.137   8.389  1.1474 -0.2030  0.9111
 7966TIP3   OH248092   1.644   5.232   5.468 -0.3896  0.1256 -0.5331
 7966TIP3    H148093   1.576   5.231   5.534  1.3870 -1.1699  1.4063
 7966TIP3    H248094   1.634   5.149   5.421 -0.8593  0.4754 -1.0668
 7967TIP3   OH248095   2.601   4.038   6.024  0.4924 -0.0244 -0.1458
 7967TIP3    H148096   2.550   4.067   5.948  1.2949  1.0510 -0.3018
 7967TIP3    H248097   2.558   4.080   6.099 -0.0119 -0.7030 -0.0428
 7968TIP3   OH248098   6.268   4.824   8.699 -0.4408 -0.0801  0.3698
 7968TIP3    H148099   6.206   4.768   8.745 -2.2423  0.9057 -0.7355
 7968TIP3    H248100   6.305   4.880   8.768 -0.4626 -0.9420  1.1056
 7969TIP3   OH248101   4.112   3.631   7.755  0.3991 -0.3595  0.0652
 7969TIP3    H148102   4.146   3.548   7.786  4.2793 -0.3594 -3.3427
 7969TIP3    H248103   4.186   3.691   7.759 -1.3073  1.9737 -0.7819
 7970TIP3   OH248104   1.724   1.671   6.502  0.0530 -0.0504  0.1452
 7970TIP3    H148105   1.646   1.674   6.557 -0.2467  0.5866 -0.3027
 7970TIP3    H248106   1.767   1.756   6.518  0.7008 -0.4252  0.4514
 7971TIP3   OH248107   2.777   1.340   7.867 -0.7632 -0.3065 -0.0971
 7971TIP3    H148108   2.796   1.274   7.800 -0.4029 -0.7220  0.3976
 7971TIP3    H248109   2.752   1.288   7.944  0.9024  0.0617  0.7393
 7972TIP3   OH248110   4.234   3.666   6.970  0.1437  0.1879  0.5647
 7972TIP3    H148111   4.151   3.618   6.970 -0.0632  0.5399  1.1746
 7972TIP3    H248112   4.288   3.619   6.906 -1.0203  0.8383 -0.9718
 7973TIP3   OH248113   0.810   5.535   5.885  0.9797  0.3486  0.1414
 7973TIP3    H148114   0.798   5.554   5.978  2.3570  1.4088  0.1344
 7973TIP3    H248115   0.798   5.619   5.841  0.1927 -0.1706 -0.6741
 7974TIP3   OH248116   1.521   0.323   6.920  0.1539  0.5738  0.1703
 7974TIP3    H148117   1.546   0.238   6.884 -0.5307  0.3871  0.1240
 7974TIP3    H248118   1.550   0.320   7.012  0.7094  0.5420 -0.0048
 7975TIP3   OH248119   1.216   1.345   7.753  0.3982  0.1817 -0.4141
 7975TIP3    H148120   1.303   1.360   7.792  0.0526  0.1465  0.3872
 7975TIP3    H248121   1.158   1.403   7.802  0.0538  0.6116 -1.3186
 7976TIP3   OH248122   2.471   5.732   7.718 -0.6951  0.4605  0.5021
 7976TIP3    H148123   2.469   5.827   7.721  2.5748  0.6515 -0.3678
 7976TIP3    H248124   2.464   5.711   7.625  1.0869  0.0201  0.4433
 7977TIP3   OH248125   5.796   2.706   6.717 -0.5439 -0.2906 -0.2007
 7977TIP3    H148126   5.828   2.654   6.644  0.4007 -0.8103  0.5592
 7977TIP3    H248127   5.814   2.653   6.794 -0.7704  0.5928  0.4796
 7978TIP3   OH248128   3.929   6.210   5.816  0.2584  0.3564 -0.1545
 7978TIP3    H148129   4.006   6.215   5.759 -0.1124 -0.1379 -0.7273
 7978TIP3    H248130   3.864   6.164   5.762 -0.8599  1.8586 -0.1556
 7979TIP3   OH248131   0.178   0.135   7.323 -0.1870  0.3536  0.3263
 7979TIP3    H148132   0.121   0.160   7.396  0.3903 -0.5448  1.1132
 7979TIP3    H248133   0.259   0.106   7.365 -0.9025 -3.2069 -0.3607
 7980TIP3   OH248134   5.024   5.231   7.383 -0.0468  0.0255  0.4838
 7980TIP3    H148135   5.116   5.239   7.356  0.1778 -0.4419  1.0877
 7980TIP3    H248136   5.028   5.212   7.477 -0.7603 -0.1917  0.4778
 7981TIP3   OH248137   3.037   1.958   6.597  0.1900 -0.8482 -0.0349
 7981TIP3    H148138   3.009   2.050   6.598 -0.4709 -1.0483 -0.2073
 7981TIP3    H248139   3.123   1.960   6.639  0.5135 -0.0478 -0.7037
 7982TIP3   OH248140   1.630   3.524   7.992 -0.0384 -0.2837 -0.2642
 7982TIP3    H148141   1.630   3.620   7.988 -0.3838 -0.3010 -0.7248
 7982TIP3    H248142   1.657   3.504   8.081 -3.7685  0.2945  1.1929
 7983TIP3   OH248143   6.114   1.317   8.743  0.3435 -0.5362 -0.5983
 7983TIP3    H148144   6.072   1.344   8.661 -0.6938 -0.8691 -0.2000
 7983TIP3    H248145   6.067   1.366   8.810 -0.2174 -1.7910 -0.0395
 7984TIP3   OH248146   2.299   5.099   7.482  0.0386 -0.4486  0.0019
 7984TIP3    H148147   2.363   5.141   7.425  1.2433  0.8073  2.1615
 7984TIP3    H248148   2.348   5.027   7.523 -0.2963 -0.2732  0.7143
 7985TIP3   OH248149   2.740   4.019   6.964 -0.0559 -0.5427  0.5267
 7985TIP3    H148150   2.789   4.068   6.899 -0.2737 -0.6441  0.2866
 7985TIP3    H248151   2.669   4.078   6.991 -0.8186 -1.0309 -0.3731
 7986TIP3   OH248152   2.011   5.421   6.272  0.7256 -0.4964 -0.6586
 7986TIP3    H148153   1.953   5.385   6.205 -0.0905 -0.9826  0.2908
 7986TIP3    H248154   1.993   5.370   6.350  0.5591  1.0429  0.3643
 7987TIP3   OH248155   3.375   5.668   6.817  0.0982 -0.2381  0.0045
 7987TIP3    H148156   3.447   5.722   6.851  1.6422 -2.3706  0.3169
 7987TIP3    H248157   3.311   5.665   6.888  0.5231  0.2185  0.4117
 7988TIP3   OH248158   4.087   0.665   6.511  0.3848  0.4731 -0.0877
 7988TIP3    H148159   4.077   0.638   6.420 -1.1507  1.6552 -0.3030
 7988TIP3    H248160   4.027   0.739   6.522 -0.2346 -0.2522  2.1357
 7989TIP3   OH248161   2.837   3.793   6.793  0.1226  0.4362 -0.2258
 7989TIP3    H148162   2.855   3.815   6.885  0.5744 -1.7132  0.2584
 7989TIP3    H248163   2.884   3.860   6.743  0.4897  1.2219  1.1045
 7990TIP3   OH248164   2.168   1.698   9.120  0.1001 -0.1388 -0.2385
 7990TIP3    H148165   2.083   1.733   9.094  0.1955 -0.3630 -0.8683
 7990TIP3    H248166   2.180   1.621   9.065 -0.4455 -1.6512  1.6241
 7991TIP3   OH248167   6.253   5.694   9.486  0.3546  0.5873 -0.1926
 7991TIP3    H148168   6.346   5.699   9.466  0.4270 -0.1544 -0.0807
 7991TIP3    H248169   6.214   5.770   9.442  1.1953  1.6512  0.8401
 7992TIP3   OH248170   3.323   5.242   8.221 -0.1769  0.1122  0.4461
 7992TIP3    H148171   3.269   5.164   8.209 -2.9506  2.1732 -2.1258
 7992TIP3    H248172   3.378   5.246   8.144  1.4650 -0.2884  1.5497
 7993TIP3   OH248173   3.021   6.627   5.460  0.5038  0.0051  0.4826
 7993TIP3    H148174   3.029   6.547   5.512  0.4838  0.3030  0.9539
 7993TIP3    H248175   3.021   6.597   5.369 -0.3869 -0.6202  0.6665
 7994TIP3   OH248176   3.191   2.199   6.640 -0.3417 -0.7556  0.1448
 7994TIP3    H148177   3.188   2.231   6.730  0.1701 -1.0226  0.2587
 7994TIP3    H248178   3.270   2.146   6.635  0.2476  0.1675 -0.7702
 7995TIP3   OH248179   5.635   5.949   7.805  1.1622  0.2785  0.1877
 7995TIP3    H148180   5.626   5.901   7.723  1.7779 -0.2685  0.4323
 7995TIP3    H248181   5.545   5.959   7.837  0.9529  0.1435 -0.3511
 7996TIP3   OH248182   3.810   2.033   5.694 -0.1829  0.1208 -0.2829
 7996TIP3    H148183   3.856   2.015   5.612  0.3345 -1.5765  0.3379
 7996TIP3    H248184   3.786   1.947   5.728 -0.1507  0.7582  1.4889
 7997TIP3   OH248185   3.285   4.787   6.799 -0.0392  0.2108 -0.0188
 7997TIP3    H148186   3.347   4.736   6.851  0.5693  0.7864 -0.1673
 7997TIP3    H248187   3.233   4.834   6.864  0.0344  0.1408  0.0915
 7998TIP3   OH248188   5.904   2.534   7.469 -0.1270  0.2560 -0.4708
 7998TIP3    H148189   5.837   2.495   7.525 -0.4101 -0.5103 -1.3169
 7998TIP3    H248190   5.984   2.487   7.492 -0.0143  0.7073  0.0666
 7999TIP3   OH248191   0.699   6.442   6.257  0.2209  0.6816 -0.0400
 7999TIP3    H148192   0.752   6.385   6.200  0.7596 -1.4860  2.4511
 7999TIP3    H248193   0.635   6.482   6.197  1.4980 -0.4971 -2.3386
 8000TIP3   OH248194   2.920   2.574   6.877 -0.0475 -0.1564 -0.4709
 8000TIP3    H148195   2.861   2.524   6.933  0.5685 -0.0509  0.2858
 8000TIP3    H248196   2.963   2.635   6.936  0.0140  0.5226 -1.2018
 8001TIP3   OH248197   4.018   5.006   7.072  0.2220 -0.1645  0.3479
 8001TIP3    H148198   4.014   5.018   7.167 -0.2786 -0.0589  0.3140
 8001TIP3    H248199   3.995   5.091   7.036 -2.3447 -0.8815  0.1111
 8002TIP3   OH248200   5.656   4.407   7.414  0.0491  0.1513 -0.2416
 8002TIP3    H148201   5.636   4.386   7.323  1.3066  1.1558 -0.7811
 8002TIP3    H248202   5.638   4.500   7.422  0.5635  0.2084  0.3621
 8003TIP3   OH248203   3.828   3.013   8.008 -0.2287 -0.2088 -0.3881
 8003TIP3    H148204   3.759   2.964   7.963 -0.2328 -0.0410 -0.5652
 8003TIP3    H248205   3.844   2.964   8.088 -0.4453 -0.3349 -0.4220
 8004TIP3   OH248206   6.227   5.908   8.472 -0.5176  0.3261 -0.1286
 8004TIP3    H148207   6.218   5.851   8.396  0.5219 -0.8954  0.6243
 8004TIP3    H248208   6.153   5.969   8.466 -1.6404 -1.0745 -0.9796
 8005TIP3   OH248209   1.219   2.999   8.725  0.5122 -0.2767 -0.1183
 8005TIP3    H148210   1.206   3.086   8.686  1.6469 -0.7445 -1.6388
 8005TIP3    H248211   1.293   2.962   8.677  3.1478 -0.3118  3.5114
 8006TIP3   OH248212   4.905   2.772   7.802  0.1471 -0.0484 -0.0596
 8006TIP3    H148213   4.886   2.858   7.839  1.8421 -0.6689  2.5052
 8006TIP3    H248214   4.974   2.788   7.737 -1.2227  0.7602 -1.3877
 8007TIP3   OH248215   1.762   5.351   7.473 -0.6741 -0.7717  0.2542
 8007TIP3    H148216   1.852   5.335   7.443 -0.3459  0.6179  0.4532
 8007TIP3    H248217   1.773   5.381   7.564 -1.3016 -0.0821  0.1020
 8008TIP3   OH248218   0.131   0.493   5.885 -0.4306 -0.0314  0.3104
 8008TIP3    H148219   0.081   0.573   5.869  0.3203  0.5414  0.7635
 8008TIP3    H248220   0.064   0.425   5.899 -1.1012  0.0255 -2.2387
 8009TIP3   OH248221   4.644   1.916   6.489  0.0305 -0.1684  0.5768
 8009TIP3    H148222   4.731   1.895   6.522  0.1047 -3.3225 -1.1847
 8009TIP3    H248223   4.659   1.984   6.423  0.9316  0.3978  1.3451
 8010TIP3   OH248224   3.474   2.452   7.606  0.2752  0.4179  0.3900
 8010TIP3    H148225   3.493   2.414   7.520  2.3655 -1.2152  1.4989
 8010TIP3    H248226   3.441   2.379   7.658 -2.1935  1.6534  0.7080
 8011TIP3   OH248227   1.399   6.042   8.245  0.0603  0.1843 -0.4210
 8011TIP3    H148228   1.321   6.067   8.294 -0.5892  0.3160 -1.5102
 8011TIP3    H248229   1.405   6.105   8.174 -0.0053 -1.0342 -1.5408
 8012TIP3   OH248230   0.171   2.965   7.221  0.3799  0.6617  0.1635
 8012TIP3    H148231   0.133   2.956   7.308 -0.9604  0.7691 -0.3909
 8012TIP3    H248232   0.108   3.017   7.171  1.2272  0.8015 -0.8141
 8013TIP3   OH248233   3.811   2.030   7.010 -0.0609  0.3651 -0.6682
 8013TIP3    H148234   3.847   2.033   6.921  0.2557  2.9934 -0.5280
 8013TIP3    H248235   3.867   2.089   7.060 -1.2590  0.2403  0.8903
 8014TIP3   OH248236   4.579   4.386   7.304 -0.0614 -0.0006 -0.0560
 8014TIP3    H148237   4.617   4.331   7.373  0.6860  0.7252  0.1267
 8014TIP3    H248238   4.633   4.465   7.304 -1.0149  0.6687 -0.4245
 8015TIP3   OH248239   0.082   5.665   8.017 -0.4652 -0.0541 -0.0682
 8015TIP3    H148240   0.103   5.669   8.110 -0.7437 -1.4236  0.0817
 8015TIP3    H248241   0.159   5.627   7.976 -1.2638 -1.8758  0.0035
 8016TIP3   OH248242   4.707   4.071   6.453 -0.6847 -0.1226 -0.0892
 8016TIP3    H148243   4.634   4.042   6.507 -0.7041  0.7961  0.3756
 8016TIP3    H248244   4.742   4.148   6.497  0.7262 -0.6770 -0.1705
 8017TIP3   OH248245   0.604   0.649   9.140  0.0994  0.7810 -0.1073
 8017TIP3    H148246   0.615   0.684   9.229  2.7118  2.4114 -0.9471
 8017TIP3    H248247   0.634   0.559   9.146  1.7163  1.3110  0.4426
 8018TIP3   OH248248   2.075   0.605   5.767 -0.2745 -0.4408  0.3354
 8018TIP3    H148249   2.151   0.578   5.819  2.5631  0.9243 -2.7107
 8018TIP3    H248250   2.071   0.700   5.777 -0.4855 -0.3061 -0.8829
 8019TIP3   OH248251   4.446   2.634   7.969 -0.5432  0.3972 -0.4199
 8019TIP3    H148252   4.377   2.645   7.903 -1.1233  4.1365  0.5965
 8019TIP3    H248253   4.528   2.648   7.921 -0.9247  2.3895 -0.5854
 8020TIP3   OH248254   0.596   2.282   7.586 -0.1440 -0.3224 -0.2807
 8020TIP3    H148255   0.602   2.240   7.501 -1.8001 -1.9704  0.3663
 8020TIP3    H248256   0.627   2.216   7.648  1.2274  0.9162  0.4298
 8021TIP3   OH248257   6.035   2.896   6.829  0.0171 -0.0125  0.0630
 8021TIP3    H148258   5.996   2.907   6.916 -0.7395 -0.6878 -0.1857
 8021TIP3    H248259   5.995   2.965   6.776  0.6154  0.5172  0.2828
 8022TIP3   OH248260   2.875   3.795   8.993  0.0116  0.1240 -0.2255
 8022TIP3    H148261   2.934   3.870   8.985  0.1060  0.0570 -0.1614
 8022TIP3    H248262   2.924   3.722   8.954 -0.3615  0.2470 -0.9323
 8023TIP3   OH248263   3.493   1.700   8.033  0.5666 -0.0294  0.2988
 8023TIP3    H148264   3.540   1.779   8.061  0.3022  0.1621  0.2121
 8023TIP3    H248265   3.559   1.648   7.988  0.5330  0.5796 -0.4784
 8024TIP3   OH248266   4.275   5.195   5.791  0.0922  0.1004 -1.0047
 8024TIP3    H148267   4.294   5.250   5.867 -0.7229  1.4148 -1.7098
 8024TIP3    H248268   4.186   5.164   5.805  0.8765 -1.9396 -0.1295
 8025TIP3   OH248269   1.632   2.760   5.903  0.7815 -0.1832 -0.7116
 8025TIP3    H148270   1.638   2.852   5.877 -1.3810  0.1123 -0.3239
 8025TIP3    H248271   1.723   2.734   5.920  1.4438  1.8495 -0.8908
 8026TIP3   OH248272   0.124   5.165   7.364 -0.2871  0.1819  0.6109
 8026TIP3    H148273   0.183   5.239   7.347 -1.0397  0.5980 -0.2840
 8026TIP3    H248274   0.167   5.116   7.433  1.7711 -0.2463 -0.8660
 8027TIP3   OH248275   3.044   6.617   5.914 -0.1418 -0.4018  0.0676
 8027TIP3    H148276   3.001   6.648   5.835 -0.4150 -0.1966  0.2981
 8027TIP3    H248277   3.100   6.690   5.942  0.0329 -0.5115  0.0084
 8028TIP3   OH248278   2.292   2.541   8.911 -0.4427  0.1088 -0.2472
 8028TIP3    H148279   2.364   2.537   8.847  1.2546  0.1510  1.5585
 8028TIP3    H248280   2.232   2.605   8.875  0.6904  0.4775 -1.5907
 8029TIP3   OH248281   3.743   0.284   5.605 -0.2953 -0.0710 -0.1910
 8029TIP3    H148282   3.684   0.329   5.546 -0.2921 -0.3041 -0.3753
 8029TIP3    H248283   3.717   0.192   5.599  1.4457 -0.5155 -1.9155
 8030TIP3   OH248284   3.424   3.447   8.134 -0.4678  0.1020 -0.3292
 8030TIP3    H148285   3.443   3.391   8.209 -2.2901 -1.2265 -0.7786
 8030TIP3    H248286   3.474   3.409   8.062 -1.2499 -0.6429 -0.4991
 8031TIP3   OH248287   0.567   1.749   7.326 -0.4069  0.1338  0.0889
 8031TIP3    H148288   0.523   1.775   7.407  0.1730 -0.2482  0.5323
 8031TIP3    H248289   0.549   1.821   7.265  0.6279  1.3026  1.0901
 8032TIP3   OH248290   2.310   0.188   7.948 -0.1089 -0.1952 -0.1411
 8032TIP3    H148291   2.333   0.228   8.031  0.9764 -0.0129 -0.5132
 8032TIP3    H248292   2.375   0.221   7.886 -0.9671 -0.2203 -1.0994
 8033TIP3   OH248293   6.089   2.008   6.016 -0.5008 -0.6782 -0.9174
 8033TIP3    H148294   6.156   2.055   6.065 -0.4705 -1.1316 -0.5255
 8033TIP3    H248295   6.022   1.985   6.081 -1.3540  0.3224 -1.4081
 8034TIP3   OH248296   1.015   4.471   6.777 -0.5657  0.9925  0.6838
 8034TIP3    H148297   0.931   4.462   6.731 -0.3923  1.3101  0.3016
 8034TIP3    H248298   1.081   4.465   6.708 -0.3397  2.5979  0.7143
 8035TIP3   OH248299   6.424   4.403   8.278 -0.2190 -0.0333 -0.3012
 8035TIP3    H148300   6.452   4.463   8.209  0.2231 -0.3938 -0.4357
 8035TIP3    H248301   6.328   4.402   8.272 -0.1438 -1.6814 -2.3134
 8036TIP3   OH248302   0.781   3.461   6.793  0.0392  0.4139  0.2791
 8036TIP3    H148303   0.753   3.426   6.709 -0.7942  1.3374  0.1574
 8036TIP3    H248304   0.823   3.387   6.837 -0.6425 -0.4235 -0.4397
 8037TIP3   OH248305   0.848   2.374   7.734 -0.3883 -0.4593 -0.1397
 8037TIP3    H148306   0.802   2.311   7.678 -1.0873  0.1824 -0.3099
 8037TIP3    H248307   0.778   2.426   7.774  0.1587 -0.0899  0.3487
 8038TIP3   OH248308   2.263   6.081   7.585 -0.0893 -0.1935  0.3982
 8038TIP3    H148309   2.269   6.130   7.667 -0.3159  0.8072 -0.1606
 8038TIP3    H248310   2.170   6.063   7.574 -0.3340  1.4440 -0.6058
 8039TIP3   OH248311   1.967   0.772   6.657  0.1987 -0.1104 -0.2769
 8039TIP3    H148312   2.016   0.837   6.606 -0.3787 -0.2690 -1.0643
 8039TIP3    H248313   2.031   0.706   6.681  0.7863  0.7179  0.4874
 8040TIP3   OH248314   1.697   3.344   6.989 -0.2773 -0.4123  0.4974
 8040TIP3    H148315   1.604   3.363   6.998 -0.5304 -1.0898 -0.4280
 8040TIP3    H248316   1.732   3.417   6.938 -0.9647 -1.6342 -1.8686
 8041TIP3   OH248317   3.005   1.345   6.987 -0.0100 -0.1848  0.0464
 8041TIP3    H148318   2.993   1.429   6.943  1.7726 -0.1168 -0.4272
 8041TIP3    H248319   2.962   1.281   6.930  0.5161  0.1553 -0.7492
 8042TIP3   OH248320   1.070   2.849   8.540  0.0529  0.5207  0.6106
 8042TIP3    H148321   1.020   2.768   8.549 -2.4952  2.1626  2.5152
 8042TIP3    H248322   1.127   2.852   8.617  3.0301 -1.0844 -1.2891
 8043TIP3   OH248323   4.852   6.584   8.326  0.6228 -0.8349  0.4468
 8043TIP3    H148324   4.860   6.626   8.240  1.8930  0.6384  1.2551
 8043TIP3    H248325   4.769   6.536   8.321  0.7248 -0.9006 -1.6386
 8044TIP3   OH248326   1.342   0.878   8.164 -0.0941 -0.2253  0.5465
 8044TIP3    H148327   1.255   0.887   8.124  1.1650 -0.3495 -2.4867
 8044TIP3    H248328   1.342   0.941   8.236 -2.1130  1.0368 -0.4720
 8045TIP3   OH248329   3.696   3.267   5.309 -0.2087  0.1674 -0.1876
 8045TIP3    H148330   3.675   3.321   5.385  0.0363 -0.4444  0.3300
 8045TIP3    H248331   3.676   3.177   5.338  2.0406 -0.3406 -0.0132
 8046TIP3   OH248332   0.734   2.901   7.422  0.3605 -0.1884  0.0903
 8046TIP3    H148333   0.824   2.877   7.402  0.2708 -0.7003  0.2663
 8046TIP3    H248334   0.738   2.993   7.447  0.9754 -0.4488  0.9913
 8047TIP3   OH248335   4.098   0.965   6.651  0.1385  0.2154  0.4948
 8047TIP3    H148336   4.020   0.944   6.600  0.5800 -0.6700  0.1602
 8047TIP3    H248337   4.065   0.987   6.738 -0.4829 -0.1445  0.3579
 8048TIP3   OH248338   0.594   2.993   6.242  0.5575  0.0956 -0.2634
 8048TIP3    H148339   0.584   2.960   6.153 -1.4594  0.7032 -0.3009
 8048TIP3    H248340   0.509   2.975   6.284  1.8101 -1.2540  1.9253
 8049TIP3   OH248341   5.043   0.545   7.408 -0.1168  0.1558 -0.1345
 8049TIP3    H148342   5.068   0.504   7.490 -0.4306 -0.7031 -0.4602
 8049TIP3    H248343   4.948   0.554   7.413 -0.2628 -0.9086 -0.8539
 8050TIP3   OH248344   2.487   2.940   5.899 -0.4940 -0.9804 -0.2701
 8050TIP3    H148345   2.437   2.878   5.952 -1.0965  0.2145  0.6214
 8050TIP3    H248346   2.549   2.886   5.850 -1.9631 -2.4031 -0.6349
 8051TIP3   OH248347   0.481   4.116   6.556 -0.3325 -0.1264  0.4641
 8051TIP3    H148348   0.541   4.126   6.482 -0.9506  1.3895  0.1301
 8051TIP3    H248349   0.485   4.023   6.578  2.0573 -0.1020  0.3965
 8052TIP3   OH248350   5.702   3.733   8.183  0.1597 -0.3546 -0.3360
 8052TIP3    H148351   5.695   3.820   8.221  0.6696  0.1855 -1.4417
 8052TIP3    H248352   5.716   3.675   8.258  1.5733  0.7300  0.2729
 8053TIP3   OH248353   5.364   3.868   7.024 -0.0135 -0.3864  0.1904
 8053TIP3    H148354   5.271   3.872   7.003 -0.3089 -0.1766  1.4777
 8053TIP3    H248355   5.381   3.776   7.042  0.1752 -0.5192 -0.6081
 8054TIP3   OH248356   0.959   5.131   7.326  0.4263 -0.4887  0.1399
 8054TIP3    H148357   1.045   5.143   7.365 -0.5374  1.1825  1.9181
 8054TIP3    H248358   0.942   5.213   7.280 -1.7024  0.9022  3.0667
 8055TIP3   OH248359   1.838   5.703   7.678 -0.0174 -0.1038 -0.3384
 8055TIP3    H148360   1.830   5.772   7.745  1.6055  0.5097 -0.7327
 8055TIP3    H248361   1.817   5.622   7.724  0.9270  0.3230  0.9033
 8056TIP3   OH248362   0.275   5.247   7.773 -0.0191  0.0255  0.2141
 8056TIP3    H148363   0.248   5.289   7.691 -0.4828 -1.3029 -0.3347
 8056TIP3    H248364   0.210   5.179   7.788  0.0836  0.2140  1.6770
 8057TIP3   OH248365   6.311   6.730   7.714  0.3300  0.6421  0.6690
 8057TIP3    H148366   6.321   6.719   7.808  1.5117 -1.4565  0.3576
 8057TIP3    H248367   6.384   6.681   7.676 -1.7439 -1.0918 -1.4048
 8058TIP3   OH248368   6.685   0.957   8.844  0.3998  0.3847 -0.3559
 8058TIP3    H148369   6.738   1.009   8.905  3.3618 -1.5926 -1.0500
 8058TIP3    H248370   6.694   0.867   8.875 -1.7311 -0.1908 -1.2070
 8059TIP3   OH248371   6.268   0.681   7.658  0.5945  0.3494 -0.0332
 8059TIP3    H148372   6.256   0.776   7.647 -0.3670  0.1513 -0.7724
 8059TIP3    H248373   6.304   0.672   7.746  2.5310  1.5313 -0.6581
 8060TIP3   OH248374   2.203   4.578   6.863  0.0524  0.3446 -0.1948
 8060TIP3    H148375   2.122   4.611   6.826 -0.9053 -1.5648  0.0849
 8060TIP3    H248376   2.181   4.554   6.953  0.5940 -1.2391 -0.4443
 8061TIP3   OH248377   5.161   5.137   8.776  0.1976  0.0521 -0.6682
 8061TIP3    H148378   5.248   5.176   8.766  0.4850 -0.5165 -0.4021
 8061TIP3    H248379   5.141   5.145   8.869  0.8955 -1.7499 -0.3358
 8062TIP3   OH248380   0.009   6.513   5.908  0.4077  0.0172 -0.0510
 8062TIP3    H148381   0.017   6.418   5.901 -2.1004 -0.1422 -2.1521
 8062TIP3    H248382   0.089   6.546   5.867  1.2414 -1.1392  0.5732
 8063TIP3   OH248383   2.603   1.450   8.270  0.0148  0.1689 -0.6636
 8063TIP3    H148384   2.555   1.466   8.189 -0.4760 -0.3381 -0.4816
 8063TIP3    H248385   2.578   1.361   8.295  4.0487 -1.8238 -2.6662
 8064TIP3   OH248386   4.252   4.097   9.108  0.3403  0.1709 -0.0691
 8064TIP3    H148387   4.194   4.172   9.118 -1.0714 -0.8266 -0.4101
 8064TIP3    H248388   4.312   4.121   9.038  2.5717  2.5401  2.4554
 8065TIP3   OH248389   3.246   2.070   7.079  0.5908  0.4011  0.6156
 8065TIP3    H148390   3.293   2.037   7.155 -0.7421 -0.1848  1.2315
 8065TIP3    H248391   3.252   2.000   7.014  0.3015  0.1881  0.8158
 8066TIP3   OH248392   0.861   4.943   7.168  0.5856 -0.0270 -0.3960
 8066TIP3    H148393   0.783   4.897   7.200  0.9280 -0.0971  0.3526
 8066TIP3    H248394   0.869   5.020   7.225  0.1943  0.8253 -1.4366
 8067TIP3   OH248395   0.980   3.830   8.192 -0.0514 -0.2376  0.0136
 8067TIP3    H148396   0.894   3.819   8.233  0.2203  0.3619  0.7603
 8067TIP3    H248397   1.022   3.745   8.199 -0.6545 -0.5922 -0.5364
 8068TIP3   OH248398   5.855   5.050   8.188  0.1498  0.0085  0.3267
 8068TIP3    H148399   5.850   5.109   8.112 -0.5654  0.2910  0.5913
 8068TIP3    H248400   5.944   5.064   8.222  0.6039 -0.3626 -0.6438
 8069TIP3   OH248401   4.850   2.650   6.010  0.2650  0.0895 -0.1702
 8069TIP3    H148402   4.872   2.731   5.965 -0.2611  0.5103  0.3163
 8069TIP3    H248403   4.756   2.639   5.995  0.6113 -1.2853 -1.5949
 8070TIP3   OH248404   4.459   2.947   7.466 -0.1115  0.2709 -0.0028
 8070TIP3    H148405   4.421   3.009   7.528 -0.4029  0.8588 -0.7456
 8070TIP3    H248406   4.488   2.874   7.519 -2.6749 -0.4129  0.5920
 8071TIP3   OH248407   3.514   3.988   8.209  0.3881 -0.9191 -0.2312
 8071TIP3    H148408   3.444   3.923   8.204 -0.0039 -0.5760  0.6350
 8071TIP3    H248409   3.489   4.055   8.146 -0.1072 -0.7597  0.1311
 8072TIP3   OH248410   4.912   2.216   6.825  0.1649 -0.6199  0.0835
 8072TIP3    H148411   4.856   2.225   6.748 -0.2768  0.7499  0.5292
 8072TIP3    H248412   4.985   2.275   6.809  1.3063 -2.0711 -0.2969
 8073TIP3   OH248413   2.496   2.796   7.759  0.0431  0.2662 -0.2225
 8073TIP3    H148414   2.489   2.701   7.748 -0.6902  0.0887  1.3607
 8073TIP3    H248415   2.575   2.820   7.712 -0.1454 -1.0168 -1.2626
 8074TIP3   OH248416   5.673   1.021   6.387  0.1909  0.2851  0.2626
 8074TIP3    H148417   5.720   1.043   6.307  0.8768 -1.5931  0.1200
 8074TIP3    H248418   5.580   1.026   6.363  0.3923 -0.3033 -0.6550
 8075TIP3   OH248419   0.045   0.310   6.105  0.6142 -0.1214  0.2478
 8075TIP3    H148420   0.094   0.325   6.186  0.8014 -0.2805  0.1632
 8075TIP3    H248421  -0.005   0.230   6.121  1.9260 -1.0954 -0.3909
 8076TIP3   OH248422   0.996   5.634   7.130 -0.1882 -0.1309 -0.2792
 8076TIP3    H148423   1.034   5.668   7.049 -0.5914 -0.2334 -0.5089
 8076TIP3    H248424   1.044   5.553   7.147  1.2602  0.8521  0.6307
 8077TIP3   OH248425   0.153   5.435   6.804  0.7804 -0.6429 -0.5174
 8077TIP3    H148426   0.062   5.407   6.795  0.6336 -0.2670 -0.2478
 8077TIP3    H248427   0.169   5.437   6.898  0.7135  0.3798 -0.5147
 8078TIP3   OH248428   5.606   3.292   6.262  0.0661 -0.6870  0.0490
 8078TIP3    H148429   5.668   3.267   6.194 -1.0753 -1.9867 -0.5706
 8078TIP3    H248430   5.557   3.212   6.280 -1.7775  0.3841  0.1325
 8079TIP3   OH248431   6.120   0.533   8.824 -0.5057  0.2667  0.2888
 8079TIP3    H148432   6.125   0.612   8.878 -1.8467  0.8748 -0.4061
 8079TIP3    H248433   6.037   0.492   8.850 -0.2327 -0.4563  0.0423
 8080TIP3   OH248434   0.886   4.190   6.635 -0.4168  0.0151  0.1565
 8080TIP3    H148435   0.817   4.234   6.685  1.4957  3.1518  0.3004
 8080TIP3    H248436   0.925   4.128   6.697 -1.2356  0.2740  0.9525
 8081TIP3   OH248437   3.365   6.607   9.351  0.7054  0.1310  0.1562
 8081TIP3    H148438   3.283   6.599   9.399  0.0139  1.8328 -0.6303
 8081TIP3    H248439   3.433   6.584   9.414 -0.2259  1.4042  1.7090
 8082TIP3   OH248440   4.191   3.100   8.209 -0.0483  0.0039 -0.5643
 8082TIP3    H148441   4.267   3.157   8.217  0.1084 -0.0676 -1.4653
 8082TIP3    H248442   4.135   3.125   8.282  0.4420  0.6684 -0.4051
 8083TIP3   OH248443   6.594   2.495   8.345 -0.1018  0.1083  0.1456
 8083TIP3    H148444   6.658   2.563   8.366 -0.0662 -0.1084  0.7828
 8083TIP3    H248445   6.554   2.474   8.430 -1.4177  0.6338 -0.3209
 8084TIP3   OH248446   5.144   3.678   8.535 -0.8935  0.1887 -0.0072
 8084TIP3    H148447   5.136   3.698   8.628 -1.8892  0.6200 -0.1644
 8084TIP3    H248448   5.174   3.588   8.531 -0.2898  0.3490  0.7282
 8085TIP3   OH248449   2.615   2.057   9.364 -0.6123  0.0093 -0.5487
 8085TIP3    H148450   2.689   2.005   9.396  0.2819  1.5041 -0.0851
 8085TIP3    H248451   2.539   2.024   9.413  0.0822 -0.3051  0.3326
 8086TIP3   OH248452   4.116   0.338   6.311 -0.2899  0.2640  0.1038
 8086TIP3    H148453   4.163   0.267   6.269 -1.4919  1.2077 -3.1379
 8086TIP3    H248454   4.181   0.380   6.368  1.8589 -0.3993 -1.7314
 8087TIP3   OH248455   3.643   6.738   5.600  0.0547  0.3261 -0.8429
 8087TIP3    H148456   3.585   6.763   5.672 -0.3991  0.4656 -1.2534
 8087TIP3    H248457   3.611   6.652   5.572  0.2909  0.2289 -0.8212
 8088TIP3   OH248458   1.128   0.310   9.295  0.1553 -0.0975 -0.2922
 8088TIP3    H148459   1.118   0.402   9.319  0.0308 -0.4536  1.0766
 8088TIP3    H248460   1.218   0.302   9.265  0.7790  0.0666  1.4900
 8089TIP3   OH248461   5.557   0.876   9.273 -0.1239  0.0014  0.3320
 8089TIP3    H148462   5.525   0.965   9.260 -0.4024 -0.3549 -1.7099
 8089TIP3    H248463   5.649   0.887   9.299 -0.2568  0.8895  0.4441
 8090TIP3   OH248464   0.540   5.718   8.284 -0.0623  0.1497 -0.3154
 8090TIP3    H148465   0.624   5.681   8.257 -0.9252 -0.9536 -1.6128
 8090TIP3    H248466   0.477   5.648   8.266 -1.1935  0.7227  1.2122
 8091TIP3   OH248467   2.068   1.720   8.222  0.4674  0.1809 -0.5281
 8091TIP3    H148468   2.116   1.700   8.142  1.9854  2.0995 -0.1634
 8091TIP3    H248469   2.135   1.745   8.286 -0.8817  1.7482  0.3843
 8092TIP3   OH248470   4.618   4.394   5.735 -0.3993  0.4538  0.1767
 8092TIP3    H148471   4.697   4.429   5.694  0.3282  0.2237  1.3344
 8092TIP3    H248472   4.621   4.300   5.716  0.6647  0.1097  1.8422
 8093TIP3   OH248473   3.500   5.822   6.516  0.2202 -0.0931 -0.0275
 8093TIP3    H148474   3.419   5.825   6.566 -0.3163 -0.9027 -0.8176
 8093TIP3    H248475   3.502   5.734   6.478  0.8177  0.3412 -1.0596
 8094TIP3   OH248476   1.147   3.756   6.612 -0.2201 -0.0826 -0.0346
 8094TIP3    H148477   1.179   3.819   6.676 -0.4932 -1.1864  1.2221
 8094TIP3    H248478   1.138   3.674   6.660 -2.5122 -0.4412 -0.9247
 8095TIP3   OH248479   4.163   4.510   8.037  0.0499  0.1865  0.0358
 8095TIP3    H148480   4.143   4.498   7.945  0.4990  0.5222 -0.1102
 8095TIP3    H248481   4.254   4.539   8.039  0.3621 -0.8060  0.6545
 8096TIP3   OH248482   1.164   1.676   6.891  0.4843  0.4308  0.1670
 8096TIP3    H148483   1.135   1.676   6.983 -0.2587  0.1810 -0.0622
 8096TIP3    H248484   1.239   1.735   6.891  0.3941  0.5675  0.9082
 8097TIP3   OH248485   6.458   5.362   7.317 -0.3076 -0.1155  0.0584
 8097TIP3    H148486   6.408   5.385   7.239 -0.6802  0.5149  0.4703
 8097TIP3    H248487   6.473   5.446   7.361 -1.1242 -0.5772  1.2736
 8098TIP3   OH248488   0.439   5.077   6.686  0.3195 -0.3631 -0.0161
 8098TIP3    H148489   0.379   5.032   6.745 -1.0962  1.1977 -0.1690
 8098TIP3    H248490   0.505   5.115   6.743  0.6854 -1.3748  0.2498
 8099TIP3   OH248491   2.921   1.070   8.004 -0.2349  0.4189  0.4603
 8099TIP3    H148492   2.947   1.142   8.062  1.1499 -1.5622  2.4683
 8099TIP3    H248493   3.001   1.049   7.955 -0.2260 -0.5722  0.8733
 8100TIP3   OH248494   5.365   5.497   6.421  0.3547 -0.0118 -0.6898
 8100TIP3    H148495   5.285   5.549   6.410  0.1554 -0.4940 -1.5782
 8100TIP3    H248496   5.338   5.407   6.405  1.2775 -0.0738 -2.0499
 8101TIP3   OH248497   3.054   2.453   5.947 -0.4780  0.4007  0.2537
 8101TIP3    H148498   3.147   2.448   5.970 -0.1668  2.7459 -0.2152
 8101TIP3    H248499   3.009   2.452   6.031  0.0842  0.6351  0.5692
 8102TIP3   OH248500   1.494   5.731   6.484  0.1315  0.1173 -0.5617
 8102TIP3    H148501   1.494   5.774   6.569  0.6637  0.0489 -0.5225
 8102TIP3    H248502   1.583   5.746   6.450  0.6963 -1.8707 -0.0719
 8103TIP3   OH248503   2.359   5.303   5.669 -0.2631  0.4020 -0.0017
 8103TIP3    H148504   2.279   5.303   5.722  0.2479 -1.2292  0.8192
 8103TIP3    H248505   2.387   5.212   5.667  2.5138  1.1277  1.1782
 8104TIP3   OH248506   0.398   5.921   5.781  0.3382  0.3190  0.0906
 8104TIP3    H148507   0.457   5.851   5.752 -2.2782 -1.0463 -2.4038
 8104TIP3    H248508   0.398   5.914   5.876  2.2280 -1.2665  0.0421
 8105TIP3   OH248509   0.391   4.492   8.106 -0.1199 -0.2000  0.1665
 8105TIP3    H148510   0.409   4.507   8.014  0.5238 -1.1607  0.1169
 8105TIP3    H248511   0.464   4.437   8.136 -1.3282 -1.5610  0.7626
 8106TIP3   OH248512   3.104   1.028   6.839  0.0426  0.4847  0.0020
 8106TIP3    H148513   3.079   0.979   6.760 -0.6851  0.5355  0.1877
 8106TIP3    H248514   3.030   1.087   6.854  0.1257  0.4036  0.7781
 8107TIP3   OH248515   2.341   3.949   7.477 -0.8003 -0.1193  1.1054
 8107TIP3    H148516   2.384   3.876   7.521 -0.0927  0.3551  1.2186
 8107TIP3    H248517   2.373   3.943   7.386 -0.3262  0.3493  1.2351
 8108TIP3   OH248518   1.853   5.277   5.644 -0.7564  0.3790  0.6106
 8108TIP3    H148519   1.847   5.358   5.693 -0.0764  0.9003 -0.1394
 8108TIP3    H248520   1.776   5.278   5.587 -0.4416  0.7969  0.1822
 8109TIP3   OH248521   2.643   3.537   5.726  0.1619  0.4773  0.3924
 8109TIP3    H148522   2.616   3.509   5.813  0.3820 -0.9787  0.0101
 8109TIP3    H248523   2.570   3.590   5.694 -0.1107  0.6455  1.2689
 8110TIP3   OH248524   3.276   4.744   8.824 -0.4017  0.3384 -0.2556
 8110TIP3    H148525   3.369   4.757   8.840 -0.3094  1.0536 -1.2629
 8110TIP3    H248526   3.262   4.775   8.734 -1.1773 -1.8744 -0.9731
 8111TIP3   OH248527   6.724   6.037   9.196  0.0492  0.4042 -0.2031
 8111TIP3    H148528   6.643   6.047   9.145 -2.0980  0.7234  2.9540
 8111TIP3    H248529   6.766   5.960   9.159 -0.8392  1.1611 -3.0008
 8112TIP3   OH248530   3.407   0.469   5.753 -0.6369 -0.1704  0.2353
 8112TIP3    H148531   3.410   0.439   5.662 -0.0107  0.0653  0.1726
 8112TIP3    H248532   3.368   0.396   5.801 -0.3618 -0.5596 -0.1236
 8113TIP3   OH248533   0.140   0.914   8.063  0.4595  0.4678 -0.1986
 8113TIP3    H148534   0.210   0.904   7.998  0.6866 -1.3730  0.2673
 8113TIP3    H248535   0.175   0.871   8.141 -0.4292  1.2791  0.6568
 8114TIP3   OH248536   0.610   5.303   5.957  0.0013  0.6673 -0.1443
 8114TIP3    H148537   0.687   5.357   5.945 -0.4392  1.6672  1.2736
 8114TIP3    H248538   0.538   5.355   5.921 -0.3381  0.7989  0.6946
 8115TIP3   OH248539   0.791   4.578   7.735  0.1731  0.2786 -0.0691
 8115TIP3    H148540   0.796   4.621   7.649  0.5305 -0.7217 -0.5654
 8115TIP3    H248541   0.741   4.639   7.789 -1.4607  0.2485 -1.4259
 8116TIP3   OH248542   1.578   2.747   7.275  0.0843 -0.0202 -0.1925
 8116TIP3    H148543   1.513   2.759   7.205  0.0787 -1.2922 -0.4310
 8116TIP3    H248544   1.662   2.743   7.229  0.0309 -1.4132 -0.2110
 8117TIP3   OH248545   1.452   6.293   6.452  0.4740  0.1847 -0.2252
 8117TIP3    H148546   1.368   6.330   6.479  0.8826  2.1201 -1.4416
 8117TIP3    H248547   1.467   6.221   6.514 -2.7794 -1.2936 -0.9249
 8118TIP3   OH248548   6.736   6.030   8.218 -0.3274 -0.3657  0.1806
 8118TIP3    H148549   6.820   5.995   8.248 -0.7694  0.3549  2.4683
 8118TIP3    H248550   6.670   5.976   8.261 -1.0049  0.8712  0.7611
 8119TIP3   OH248551   5.501   1.603   5.900  0.5422  0.2294  0.1795
 8119TIP3    H148552   5.469   1.650   5.977  0.1123  1.5214 -0.7605
 8119TIP3    H248553   5.451   1.522   5.899 -1.1212  1.2210 -0.0202
 8120TIP3   OH248554   2.340   0.556   7.903 -0.0897 -0.5994  0.2875
 8120TIP3    H148555   2.281   0.489   7.868  0.1542 -0.4931 -0.3356
 8120TIP3    H248556   2.388   0.588   7.827 -1.1683  1.2541  0.3299
 8121TIP3   OH248557   1.944   0.902   8.129  0.1768  0.0158  0.0203
 8121TIP3    H148558   1.908   0.990   8.126 -1.2874 -0.5299  0.7970
 8121TIP3    H248559   1.870   0.845   8.149  1.1257 -1.3813 -0.2216
 8122TIP3   OH248560   2.194   0.985  16.091  0.0766  0.3397 -0.4757
 8122TIP3    H148561   2.268   0.985  16.151 -0.9756  0.3219  0.8785
 8122TIP3    H248562   2.150   1.069  16.106 -1.6072 -0.6884  0.6294
 8123TIP3   OH248563   5.180   2.862   5.872  0.4872 -0.1825 -0.6045
 8123TIP3    H148564   5.193   2.957   5.865 -0.2773 -0.0289 -0.0653
 8123TIP3    H248565   5.108   2.843   5.812 -0.1902 -0.2188  0.2063
 8124TIP3   OH248566   3.424   1.443   5.512  0.3549  0.2140 -0.3262
 8124TIP3    H148567   3.470   1.380   5.567 -1.5632 -1.9687 -1.0475
 8124TIP3    H248568   3.394   1.391   5.437 -2.8057  1.5695 -0.1229
 8125TIP3   OH248569   1.425   3.389   5.876 -0.8368 -0.1276 -0.1968
 8125TIP3    H148570   1.508   3.401   5.830 -1.0725  0.5197 -0.4644
 8125TIP3    H248571   1.371   3.462   5.847 -0.9944  0.2884  1.1146
 8126TIP3   OH248572   6.227   5.911   6.487 -0.4417 -0.0235  0.1857
 8126TIP3    H148573   6.219   5.847   6.416 -2.7309  0.1407  0.2237
 8126TIP3    H248574   6.139   5.946   6.498  0.4397  2.0815  1.1683
 8127TIP3   OH248575   2.700   1.998   6.300 -0.0474 -0.3996 -0.1075
 8127TIP3    H148576   2.620   1.947   6.315 -0.4986 -0.0715 -1.3114
 8127TIP3    H248577   2.708   2.053   6.377 -1.3087 -0.0255 -0.2204
 8128TIP3   OH248578   0.345   3.341   8.243  0.2649 -0.1753  0.4054
 8128TIP3    H148579   0.272   3.352   8.305 -0.2951  0.5437 -0.3619
 8128TIP3    H248580   0.361   3.246   8.244 -2.8987 -0.9135 -1.8023
 8129TIP3   OH248581   3.268   0.210   7.846  0.0188 -0.3427  0.2683
 8129TIP3    H148582   3.198   0.266   7.881 -0.2937 -0.2761 -0.4553
 8129TIP3    H248583   3.345   0.267   7.846 -0.2469  0.0263 -0.2555
 8130TIP3   OH248584   1.570   0.658   6.550  0.0743 -0.6078  0.0006
 8130TIP3    H148585   1.490   0.617   6.518 -0.7729  0.2187  1.0084
 8130TIP3    H248586   1.612   0.591   6.603 -0.5432 -0.6789  0.4089
 8131TIP3   OH248587   3.395   1.906   8.247 -0.0092 -0.4136  0.0022
 8131TIP3    H148588   3.489   1.910   8.266  0.0503 -0.7026 -0.2273
 8131TIP3    H248589   3.356   1.866   8.326 -0.0016  0.1538  0.2960
 8132TIP3   OH248590   3.531   4.403   8.747  0.6941  0.4591 -0.0625
 8132TIP3    H148591   3.446   4.426   8.786 -0.4866 -0.9578 -1.6424
 8132TIP3    H248592   3.580   4.364   8.818 -0.3018  0.5506  0.6999
 8133TIP3   OH248593   0.245   5.696   8.935  0.4316 -0.1307  0.1105
 8133TIP3    H148594   0.302   5.728   8.865 -2.1748 -1.3898 -2.8999
 8133TIP3    H248595   0.300   5.639   8.988  2.5886  0.9666 -0.8510
 8134TIP3   OH248596   2.554   0.930  16.049  0.2373 -0.0920  0.2359
 8134TIP3    H148597   2.613   0.953  15.977 -1.9158  3.8047 -0.5793
 8134TIP3    H248598   2.602   0.956  16.128  0.2630  1.6406 -0.3121
 8135TIP3   OH248599   2.045   3.046   6.996  0.4957  0.2836  0.1026
 8135TIP3    H148600   2.010   3.124   7.038 -1.2347 -0.1444 -0.4771
 8135TIP3    H248601   2.098   3.080   6.924  1.0109  0.9362  0.7681
 8136TIP3   OH248602   3.995   0.627   8.938 -0.1618 -0.4778  0.6486
 8136TIP3    H148603   3.966   0.567   9.007  1.2290  0.2552  1.9230
 8136TIP3    H248604   4.090   0.614   8.933 -0.0892  0.3146 -0.3312
 8137TIP3   OH248605   5.540   3.976   7.881 -0.3288  0.3747  0.2165
 8137TIP3    H148606   5.615   4.035   7.891  1.2600 -1.5352  0.1595
 8137TIP3    H248607   5.510   3.961   7.971  0.1010  0.2340  0.3382
 8138TIP3   OH248608   2.550   3.427   5.986  0.0665 -0.2559  0.5572
 8138TIP3    H148609   2.518   3.364   5.922  3.1775  0.3598 -1.8738
 8138TIP3    H248610   2.595   3.375   6.052 -0.2095 -0.7609  0.3473
 8139TIP3   OH248611   0.308   0.309   7.695 -0.2087  0.2221 -0.0220
 8139TIP3    H148612   0.295   0.264   7.612  0.9723  0.6724 -0.4667
 8139TIP3    H248613   0.402   0.324   7.701 -0.3785  1.0955  0.9179
 8140TIP3   OH248614   2.882   5.380   7.930  0.4590  0.0861 -0.0138
 8140TIP3    H148615   2.918   5.469   7.937  2.4751 -0.7748  1.7100
 8140TIP3    H248616   2.936   5.338   7.864 -0.0987 -0.0459 -0.3903
 8141TIP3   OH248617   3.811   2.329   5.989 -0.2644 -0.2594  0.3684
 8141TIP3    H148618   3.755   2.404   6.008 -0.2429 -0.6055  1.8963
 8141TIP3    H248619   3.753   2.266   5.945 -0.6425  0.0647  0.3973
 8142TIP3   OH248620   5.938   5.411   8.013  0.3823 -0.7519  0.1584
 8142TIP3    H148621   6.011   5.380   8.067 -0.9548  0.0817  2.6047
 8142TIP3    H248622   5.881   5.457   8.075  0.2286  3.0424 -2.4471
 8143TIP3   OH248623   5.602   4.573   5.791 -0.0653  0.2441  0.6355
 8143TIP3    H148624   5.609   4.666   5.767 -1.1128  0.4545  1.1174
 8143TIP3    H248625   5.622   4.571   5.884 -0.5332  0.0477  0.7289
 8144TIP3   OH248626   2.352   2.938   6.851  0.5747  0.0656  0.6134
 8144TIP3    H148627   2.421   2.900   6.906  1.7768  0.9052 -0.2509
 8144TIP3    H248628   2.282   2.873   6.853  0.5373  0.0712  3.1235
 8145TIP3   OH248629   6.199   4.892   6.563 -0.6046  0.0766 -0.6477
 8145TIP3    H148630   6.169   4.952   6.632  0.4643  1.2935 -1.2170
 8145TIP3    H248631   6.270   4.939   6.519 -1.2905 -0.6486 -2.6314
 8146TIP3   OH248632   1.831   3.231   8.431  0.0163 -0.1454  0.0572
 8146TIP3    H148633   1.927   3.235   8.429  0.0050  0.3022 -1.5430
 8146TIP3    H248634   1.810   3.141   8.405  0.0077 -0.2084  0.2849
 8147TIP3   OH248635   4.017   6.501   6.755  0.0324 -0.6355 -0.5279
 8147TIP3    H148636   4.052   6.575   6.803 -0.3922  0.6035 -2.0336
 8147TIP3    H248637   4.058   6.507   6.668 -0.1593 -2.0478 -0.7372
 8148TIP3   OH248638   5.503   6.386   6.977 -0.0248  0.3152  0.0083
 8148TIP3    H148639   5.485   6.292   6.972  0.0620  0.2590  0.6735
 8148TIP3    H248640   5.593   6.392   7.010 -0.9391  0.6246  2.7407
 8149TIP3   OH248641   2.893   5.676   6.000  0.3516 -0.1782 -0.1682
 8149TIP3    H148642   2.880   5.586   6.028 -0.8158 -0.4525 -1.4507
 8149TIP3    H248643   2.948   5.669   5.922 -2.0093 -0.1059 -1.9563
 8150TIP3   OH248644   4.220   1.139   7.191  0.1596  0.1541 -0.3671
 8150TIP3    H148645   4.188   1.177   7.110  0.1764  0.1775 -0.3628
 8150TIP3    H248646   4.205   1.045   7.181  1.1105  0.0409 -0.8298
 8151TIP3   OH248647   0.071   2.114   7.086  0.0135 -0.4866  0.5210
 8151TIP3    H148648   0.149   2.085   7.037  1.1037  1.2243  1.1514
 8151TIP3    H248649   0.026   2.173   7.025  0.4770  0.3342  0.9549
 8152TIP3   OH248650   2.402   3.465   7.849 -0.3837  0.1929 -0.3713
 8152TIP3    H148651   2.307   3.451   7.848 -0.4373  0.4026  0.5929
 8152TIP3    H248652   2.439   3.378   7.833 -0.7405  0.0478 -0.4176
 8153TIP3   OH248653   1.677   2.832   6.168  0.4142  0.0016 -0.1985
 8153TIP3    H148654   1.771   2.848   6.178  0.4047 -0.3419  0.4791
 8153TIP3    H248655   1.664   2.821   6.074  1.1929 -0.7955 -0.2248
 8154TIP3   OH248656   5.275   1.080   5.837  0.4324 -0.2295 -1.1241
 8154TIP3    H148657   5.213   1.112   5.903  2.1794  0.0644  0.4628
 8154TIP3    H248658   5.276   0.985   5.849  0.1709 -0.2480 -1.2544
 8155TIP3   OH248659   4.155   0.729   6.084  0.1922 -0.0854 -0.0118
 8155TIP3    H148660   4.097   0.792   6.126 -1.7018 -2.4698  1.1771
 8155TIP3    H248661   4.152   0.753   5.991 -2.4638  0.1463  0.0421
 8156TIP3   OH248662   0.123   5.795   9.193  0.5005 -0.0354  0.0014
 8156TIP3    H148663   0.174   5.758   9.122  1.0072 -1.3496  1.0066
 8156TIP3    H248664   0.067   5.723   9.223 -0.6485  0.8644  0.0917
 8157TIP3   OH248665   5.412   0.675   9.179 -0.0401  0.1657 -0.1033
 8157TIP3    H148666   5.445   0.744   9.237  1.0005  1.4536 -2.0927
 8157TIP3    H248667   5.336   0.714   9.136  0.7029  0.2217 -1.4329
 8158TIP3   OH248668   0.189   2.913   5.941 -0.1194  0.1443  0.0911
 8158TIP3    H148669   0.162   2.822   5.955 -1.4667  0.5177  0.0439
 8158TIP3    H248670   0.172   2.929   5.848 -0.1608  0.5272  0.1620
 8159TIP3   OH248671   5.426   1.885   7.785  0.3927 -0.4826 -0.1836
 8159TIP3    H148672   5.489   1.840   7.729 -2.6858 -2.4165 -2.4307
 8159TIP3    H248673   5.344   1.836   7.773 -2.0179  2.8351  1.1600
 8160TIP3   OH248674   0.629   6.022   9.596 -0.4335  0.3988 -0.2965
 8160TIP3    H148675   0.672   6.014   9.511  2.3052  2.1908  0.7647
 8160TIP3    H248676   0.612   5.932   9.623  1.6470 -0.3787 -1.3437
 8161TIP3   OH248677   0.299   4.710   6.590  0.0333  0.0529  0.0565
 8161TIP3    H148678   0.244   4.675   6.659 -3.1329 -1.0296 -2.7427
 8161TIP3    H248679   0.368   4.644   6.578 -0.3152 -0.5050  1.0809
 8162TIP3   OH248680   4.988   0.447   8.776  0.1413  0.0096  0.0777
 8162TIP3    H148681   4.911   0.392   8.790 -1.3466  1.4875 -1.8720
 8162TIP3    H248682   5.061   0.392   8.806 -1.4739 -2.0690  0.4753
 8163TIP3   OH248683   1.921   5.673   8.624  0.6762 -0.0418 -0.3425
 8163TIP3    H148684   1.869   5.676   8.704 -0.1538  1.3286 -0.8889
 8163TIP3    H248685   1.859   5.694   8.554  1.3286 -1.4520 -1.3915
 8164TIP3   OH248686   1.392   6.690   7.356  0.1838 -0.1146 -0.0350
 8164TIP3    H148687   1.397   6.660   7.447 -0.3220 -3.0725 -0.8773
 8164TIP3    H248688   1.483   6.692   7.327  0.2188 -1.5238 -0.1018
 8165TIP3   OH248689   6.182   4.847   6.016  0.0961 -0.2235  0.4398
 8165TIP3    H148690   6.222   4.863   6.101  1.9953 -2.4705  0.1005
 8165TIP3    H248691   6.242   4.786   5.973 -1.4218 -0.1171 -2.0395
 8166TIP3   OH248692   1.582   0.455   7.717 -0.4559  0.1059 -0.1944
 8166TIP3    H148693   1.657   0.456   7.658 -1.1666  0.5476 -1.1068
 8166TIP3    H248694   1.536   0.536   7.699 -1.3239 -0.3031  0.1446
 8167TIP3   OH248695   5.400   1.405   8.570  0.3919  0.0971 -0.8064
 8167TIP3    H148696   5.362   1.318   8.559 -0.0965  0.4917 -2.4745
 8167TIP3    H248697   5.371   1.455   8.494 -2.2596  2.8439  1.7272
 8168TIP3   OH248698   4.163   0.809   8.307 -0.3239 -0.7809  0.0165
 8168TIP3    H148699   4.174   0.717   8.283 -0.1389 -0.5980 -0.6168
 8168TIP3    H248700   4.217   0.856   8.245 -0.0778 -0.2673  0.6107
 8169TIP3   OH248701   0.353   5.422   8.727 -0.2747  0.1043 -0.3837
 8169TIP3    H148702   0.349   5.343   8.781  1.4624  0.6269  0.5835
 8169TIP3    H248703   0.445   5.432   8.705 -0.3631  2.1378 -0.0360
 8170TIP3   OH248704   2.144   2.033   6.382  0.2000  0.1637  0.3566
 8170TIP3    H148705   2.164   2.023   6.475  0.1886  1.1958  0.4750
 8170TIP3    H248706   2.069   2.092   6.380  0.0465 -0.0507 -0.3032
 8171TIP3   OH248707   5.438   2.318   6.465  0.2651  0.3037 -0.1781
 8171TIP3    H148708   5.511   2.344   6.522 -0.5975 -0.0352  1.1407
 8171TIP3    H248709   5.373   2.388   6.477 -1.0231 -1.0885  1.4033
 8172TIP3   OH248710   4.402   0.935   8.211 -0.2498 -0.1560  0.0717
 8172TIP3    H148711   4.473   0.873   8.197 -0.3490 -0.2391 -0.0657
 8172TIP3    H248712   4.414   0.966   8.301 -1.4712 -1.9929  0.9289
 8173TIP3   OH248713   3.457   5.856   8.342  0.2621 -0.1795 -0.0823
 8173TIP3    H148714   3.438   5.878   8.433  0.7971 -2.4209  0.6552
 8173TIP3    H248715   3.496   5.935   8.305  1.9145  0.1992  2.2426
 8174TIP3   OH248716   4.791   1.190   8.614  0.2173 -0.3653 -0.0489
 8174TIP3    H148717   4.833   1.204   8.699 -0.6248  3.8069 -0.0965
 8174TIP3    H248718   4.742   1.108   8.625  2.5939 -1.6167  2.3486
 8175TIP3   OH248719   0.851   5.490   7.795  0.0549 -0.2031  0.1475
 8175TIP3    H148720   0.861   5.436   7.873 -1.1788  0.7108  0.9654
 8175TIP3    H248721   0.858   5.580   7.826 -0.1101  0.1699 -0.8544
 8176TIP3   OH248722   3.252   5.805   5.496  0.1271  0.0976  0.0227
 8176TIP3    H148723   3.167   5.819   5.538  0.6716  2.1961  0.5230
 8176TIP3    H248724   3.281   5.720   5.528 -1.7877 -0.6884 -0.1963
 8177TIP3   OH248725   6.408   4.682   5.877 -0.1672  0.8330  0.0601
 8177TIP3    H148726   6.344   4.657   5.810  1.5653  0.0618 -1.4064
 8177TIP3    H248727   6.458   4.754   5.837  1.0061  0.2460  0.4013
 8178TIP3   OH248728   1.978   1.949   8.082  0.7134  0.1390  0.5953
 8178TIP3    H148729   2.065   1.974   8.051  0.4913 -0.2201 -0.3627
 8178TIP3    H248730   1.988   1.858   8.111  0.6436  0.0698  0.4055
 8179TIP3   OH248731   0.961   4.619   9.129 -0.7080  0.1417 -0.1326
 8179TIP3    H148732   0.878   4.583   9.097 -1.2075 -0.3702  1.6486
 8179TIP3    H248733   0.938   4.705   9.162 -0.0876  0.8965 -1.5626
 8180TIP3   OH248734   0.025   3.248   6.197 -0.0902 -0.6405  0.2098
 8180TIP3    H148735   0.074   3.308   6.253  0.3419 -0.2503 -0.5722
 8180TIP3    H248736   0.080   3.238   6.119 -1.6736  0.5614 -1.1292
 8181TIP3   OH248737   0.267   4.994   6.345 -0.2464 -0.1346  0.3351
 8181TIP3    H148738   0.300   4.904   6.352 -0.1007 -0.1898 -0.8082
 8181TIP3    H248739   0.228   4.998   6.258 -1.4176  0.5472  0.8731
 8182TIP3   OH248740   4.527   1.473   9.248  0.0666  0.0430 -0.2720
 8182TIP3    H148741   4.598   1.469   9.184  0.2660  2.0249 -0.2316
 8182TIP3    H248742   4.479   1.553   9.226 -2.8875 -1.7969 -0.9997
 8183TIP3   OH248743   3.747   1.263   7.741 -0.0428  0.4019  0.1334
 8183TIP3    H148744   3.670   1.247   7.686 -0.5594  0.3346  0.8579
 8183TIP3    H248745   3.821   1.257   7.681 -0.3199 -2.7169 -0.0551
 8184TIP3   OH248746   5.348   3.434   6.254  0.1122 -0.3313  0.1642
 8184TIP3    H148747   5.392   3.349   6.254  0.2427 -0.2641  0.5470
 8184TIP3    H248748   5.373   3.473   6.170 -1.1782 -1.2969 -0.7191
 8185TIP3   OH248749   4.403   2.215   6.865  0.2262 -0.0972  0.1267
 8185TIP3    H148750   4.338   2.283   6.847  1.3570  0.7562 -0.8815
 8185TIP3    H248751   4.403   2.207   6.961 -3.1981 -2.0226  0.1179
 8186TIP3   OH248752   1.678   5.591   9.294  0.1652  0.2778  0.5301
 8186TIP3    H148753   1.632   5.660   9.343 -0.3735  0.2940  0.0008
 8186TIP3    H248754   1.685   5.519   9.356 -0.9424  0.1205  0.4920
 8187TIP3   OH248755   3.844   4.469   5.470  0.0289 -0.1241 -0.3320
 8187TIP3    H148756   3.751   4.489   5.464 -0.3221 -1.2742  0.8887
 8187TIP3    H248757   3.848   4.374   5.479  1.4223 -0.2667 -1.9718
 8188TIP3   OH248758   4.429   6.617   7.620 -0.2066 -0.0951  0.3436
 8188TIP3    H148759   4.483   6.685   7.659 -1.0365  0.3241  0.8066
 8188TIP3    H248760   4.470   6.597   7.536 -0.2078  1.3190 -0.0146
 8189TIP3   OH248761   6.171   5.599   7.979  0.4694 -0.2724  0.3852
 8189TIP3    H148762   6.176   5.521   7.924 -0.9358  0.1913 -0.4529
 8189TIP3    H248763   6.093   5.585   8.033  0.4128  0.3967  0.4842
 8190TIP3   OH248764   0.689   6.644   8.580  0.3643  0.5011 -0.2670
 8190TIP3    H148765   0.773   6.686   8.568  0.8539 -0.6103 -0.9147
 8190TIP3    H248766   0.672   6.650   8.674  1.1970  0.6906 -0.1237
 8191TIP3   OH248767   5.593   6.125   6.912  0.6434  0.0164 -0.2178
 8191TIP3    H148768   5.607   6.084   6.998 -1.2357  1.1007  0.6807
 8191TIP3    H248769   5.605   6.054   6.849 -2.9358 -2.2088  1.2897
 8192TIP3   OH248770   0.920   1.225   6.767 -0.5178 -0.1146 -0.2546
 8192TIP3    H148771   0.887   1.305   6.807  1.3202  0.7400 -0.3433
 8192TIP3    H248772   0.874   1.219   6.683 -0.7451  0.8049 -0.2007
 8193TIP3   OH248773   4.137   2.904   6.799  0.3226 -0.0290 -0.0895
 8193TIP3    H148774   4.056   2.953   6.808  0.4973  0.0593  1.2187
 8193TIP3    H248775   4.157   2.907   6.705 -1.2781 -0.2305 -0.4584
 8194TIP3   OH248776   2.111   3.752   7.446 -0.5292  0.1420  0.0573
 8194TIP3    H148777   2.107   3.773   7.353 -3.4309  0.2313  0.1133
 8194TIP3    H248778   2.177   3.811   7.481 -0.7254  1.4323 -1.6372
 8195TIP3   OH248779   6.094   1.894   7.182 -0.0162 -0.4488  0.3408
 8195TIP3    H148780   6.014   1.924   7.225 -1.1051 -0.9062 -1.3072
 8195TIP3    H248781   6.148   1.860   7.254 -1.3416 -0.2701  1.4634
 8196TIP3   OH248782   2.490   3.771   7.668  0.3222 -0.0270  0.4094
 8196TIP3    H148783   2.498   3.765   7.763  0.7685  1.7986  0.5329
 8196TIP3    H248784   2.561   3.715   7.635  1.6960  1.1479  1.2181
 8197TIP3   OH248785   6.439   2.332   6.168  0.2104 -0.4521  0.8038
 8197TIP3    H148786   6.520   2.280   6.171  1.5976  1.4429 -1.1021
 8197TIP3    H248787   6.412   2.328   6.076 -1.7221 -0.7578  1.3445
 8198TIP3   OH248788   1.763   0.442   7.476 -0.5500 -0.1962 -0.5199
 8198TIP3    H148789   1.730   0.503   7.410 -0.8013 -1.8736 -2.0231
 8198TIP3    H248790   1.845   0.408   7.439 -1.2952 -2.0452 -0.5880
 8199TIP3   OH248791   0.873   1.014   7.904 -0.2319  0.5454 -0.2126
 8199TIP3    H148792   0.880   0.965   7.821  0.7313  0.4025 -0.0659
 8199TIP3    H248793   0.790   0.986   7.941  0.4458 -1.3208  0.0504
 8200TIP3   OH248794   1.820   0.646   8.926  0.1158  0.3454 -0.0710
 8200TIP3    H148795   1.898   0.620   8.877 -0.6271 -1.4992 -0.3389
 8200TIP3    H248796   1.820   0.742   8.920  1.5509  0.3194 -1.3173
 8201TIP3   OH248797   1.756   5.325   6.871 -0.2216 -0.1913 -0.3240
 8201TIP3    H148798   1.738   5.400   6.814 -0.2570  0.6560  0.7659
 8201TIP3    H248799   1.851   5.327   6.884 -0.3211  0.1692  0.3720
 8202TIP3   OH248800   5.234   1.271   7.398 -0.8270  0.0063  0.3605
 8202TIP3    H148801   5.172   1.342   7.387  0.5173  1.4343  1.5702
 8202TIP3    H248802   5.298   1.283   7.327  0.2610  0.9857  1.4695
 8203TIP3   OH248803   2.074   3.850   7.957 -0.1435 -0.7674 -0.3743
 8203TIP3    H148804   2.099   3.889   7.874 -1.4354 -1.2126 -0.9987
 8203TIP3    H248805   2.125   3.897   8.022  0.7848 -0.3143 -1.3991
 8204TIP3   OH248806   6.142   1.747   6.264 -1.3818 -0.2051  0.0632
 8204TIP3    H148807   6.123   1.666   6.313 -3.1212 -0.9075 -1.6607
 8204TIP3    H248808   6.144   1.719   6.172  0.2429  1.3594 -0.4290
 8205TIP3   OH248809   0.574   1.722   6.066  0.4206  0.0191  0.0544
 8205TIP3    H148810   0.503   1.779   6.036  0.7101 -0.9743 -2.9079
 8205TIP3    H248811   0.536   1.670   6.136 -1.7307 -0.2528 -1.2245
 8206TIP3   OH248812   3.257   1.206   6.634  0.0363 -0.1331  0.1444
 8206TIP3    H148813   3.302   1.215   6.719  0.9952 -1.0775 -0.2366
 8206TIP3    H248814   3.195   1.134   6.648  0.8887 -0.9523 -0.2209
 8207TIP3   OH248815   1.490   0.388   5.590  0.0924  0.4350 -0.2935
 8207TIP3    H148816   1.445   0.304   5.590 -0.3830  0.6579 -1.8463
 8207TIP3    H248817   1.549   0.384   5.514  0.2758  1.3817 -0.2139
 8208TIP3   OH248818   6.235   5.437   6.637 -0.4872  0.1282  0.2748
 8208TIP3    H148819   6.327   5.441   6.611 -0.6565  1.3570 -0.2189
 8208TIP3    H248820   6.186   5.443   6.555 -1.0262 -1.3707  0.4600
 8209TIP3   OH248821   0.295   3.872   7.473 -0.2987  0.0890  0.8119
 8209TIP3    H148822   0.339   3.813   7.533  0.5168  0.6421  0.7796
 8209TIP3    H248823   0.294   3.956   7.519 -0.9487  0.1855  0.6333
 8210TIP3   OH248824   1.835   4.521   5.750  0.2884 -0.8391 -0.1944
 8210TIP3    H148825   1.904   4.511   5.684  0.3615 -0.0463 -0.2537
 8210TIP3    H248826   1.882   4.546   5.830 -0.0138  1.2009 -0.6019
 8211TIP3   OH248827   0.445   6.321   7.114 -0.5818  0.0267 -0.1680
 8211TIP3    H148828   0.540   6.319   7.123 -0.7666 -1.8669  2.4739
 8211TIP3    H248829   0.417   6.390   7.174 -0.9080  0.4861 -0.8376
 8212TIP3   OH248830   1.050   0.355   5.731  0.1263 -0.9271 -0.2612
 8212TIP3    H148831   1.082   0.444   5.712 -0.9322 -0.9441 -2.3123
 8212TIP3    H248832   1.035   0.356   5.826  2.4588  0.2809  0.1905
 8213TIP3   OH248833   5.582   5.918   8.868  0.5389 -0.1846 -0.3709
 8213TIP3    H148834   5.516   5.851   8.848 -0.1155  0.3331  0.0137
 8213TIP3    H248835   5.660   5.868   8.893 -0.3075 -0.8434  1.1081
 8214TIP3   OH248836   4.874   4.180   8.757 -0.0516  0.3100 -0.4628
 8214TIP3    H148837   4.952   4.237   8.752 -0.7396  1.4048  0.5338
 8214TIP3    H248838   4.805   4.231   8.716 -0.2252 -0.7429 -1.5195
 8215TIP3   OH248839   6.070   1.196   7.541  0.1261 -0.0254  0.1008
 8215TIP3    H148840   6.134   1.267   7.540  1.0020 -0.7478  1.3569
 8215TIP3    H248841   6.059   1.170   7.450  3.4476 -1.4372 -0.0334
 8216TIP3   OH248842   0.294   1.605   7.990 -0.5213  0.0925  0.3261
 8216TIP3    H148843   0.336   1.531   8.034 -1.7514 -0.6582  0.3011
 8216TIP3    H248844   0.366   1.654   7.950  0.4299 -0.3346  1.4744
 8217TIP3   OH248845   4.530   5.296   6.716 -0.4323 -0.0554 -0.4556
 8217TIP3    H148846   4.543   5.378   6.669  1.0457  0.7274  1.2062
 8217TIP3    H248847   4.556   5.315   6.806 -0.8260 -2.1412  0.1629
 8218TIP3   OH248848   6.415   6.465   5.735 -0.6401  0.1715 -0.1479
 8218TIP3    H148849   6.406   6.511   5.819 -1.3369  0.5840 -0.4448
 8218TIP3    H248850   6.415   6.534   5.669  1.2966 -0.0323 -0.4393
 8219TIP3   OH248851   6.657   1.129   8.165 -0.0744 -0.6391  0.4126
 8219TIP3    H148852   6.630   1.185   8.092  0.8615 -0.8116 -0.0726
 8219TIP3    H248853   6.702   1.056   8.124  1.1541 -0.3531  1.1993
 8220TIP3   OH248854   0.768   6.207   7.374 -0.1712 -0.0439 -0.2253
 8220TIP3    H148855   0.699   6.142   7.384 -0.5906  0.2510 -1.1214
 8220TIP3    H248856   0.738   6.283   7.423  0.4957 -0.6285  1.1524
 8221TIP3   OH248857   2.870   1.970   9.116  0.3016 -0.0457 -0.3674
 8221TIP3    H148858   2.795   2.028   9.128  0.4845  0.2381 -0.5919
 8221TIP3    H248859   2.841   1.908   9.049  0.6488  0.7455 -1.2842
 8222TIP3   OH248860   0.569   5.716   5.713  0.6384  0.0894  0.2763
 8222TIP3    H148861   0.641   5.695   5.773  0.0844 -0.0981  0.8811
 8222TIP3    H248862   0.602   5.692   5.626  0.8437 -1.1916  0.6903
 8223TIP3   OH248863   2.813   1.220   9.172 -0.1452 -0.0607 -0.3478
 8223TIP3    H148864   2.876   1.153   9.199 -0.0878 -0.4839 -1.4933
 8223TIP3    H248865   2.863   1.278   9.113  0.4362  2.3072  2.2549
 8224TIP3   OH248866   6.382   1.307   8.708  0.0618  1.2053 -0.5938
 8224TIP3    H148867   6.288   1.291   8.718 -0.1411  1.5125 -1.8560
 8224TIP3    H248868   6.402   1.378   8.769 -0.5303  1.1563 -0.3435
 8225TIP3   OH248869   3.525   6.747   9.156  0.6735  0.5931  0.3553
 8225TIP3    H148870   3.574   6.712   9.082  0.3675  1.4618 -0.2792
 8225TIP3    H248871   3.506   6.671   9.211  1.6542  0.0688 -0.0152
 8226TIP3   OH248872   0.481   4.870   6.484 -0.0135  0.4948  0.3063
 8226TIP3    H148873   0.406   4.816   6.508 -0.3933  1.1233  0.5597
 8226TIP3    H248874   0.479   4.943   6.547 -0.3317  1.5594 -0.9078
 8227TIP3   OH248875   5.581   3.679   6.580 -0.3125 -0.0484  0.1677
 8227TIP3    H148876   5.611   3.601   6.532 -0.2800  0.4292 -0.5966
 8227TIP3    H248877   5.657   3.704   6.634 -0.1941 -0.3180  0.1294
 8228TIP3   OH248878   4.673   6.377   8.276  0.2208  0.1384 -0.0899
 8228TIP3    H148879   4.659   6.359   8.183 -1.2221  0.6671 -0.0057
 8228TIP3    H248880   4.631   6.305   8.322  0.5502  0.1039  0.1651
 8229TIP3   OH248881   6.433   3.971   6.082  0.2243 -0.0044 -0.4792
 8229TIP3    H148882   6.457   4.063   6.096 -0.4733 -0.1227  1.9686
 8229TIP3    H248883   6.337   3.973   6.073 -0.0779 -0.6499  1.9354
 8230TIP3   OH248884   1.679   5.680   8.128 -0.8548 -0.3227 -0.4340
 8230TIP3    H148885   1.715   5.732   8.056 -4.0116 -0.2960 -2.1644
 8230TIP3    H248886   1.718   5.593   8.117  1.3828  0.5697  0.0378
 8231TIP3   OH248887   3.817   3.185   7.615  0.2107  0.4445  0.0795
 8231TIP3    H148888   3.872   3.107   7.618 -0.0295  0.2692 -0.0402
 8231TIP3    H248889   3.842   3.235   7.693  1.0626  0.7239 -0.3609
 8232TIP3   OH248890   6.539   5.609   8.022  0.0788  0.5172  0.1956
 8232TIP3    H148891   6.627   5.623   7.987 -0.0668  2.6217  0.5279
 8232TIP3    H248892   6.490   5.688   7.997 -1.4700 -0.2183  0.7578
 8233TIP3   OH248893   2.204   0.638   6.983 -0.0255  0.0359 -0.2762
 8233TIP3    H148894   2.216   0.579   6.908 -1.4988  0.5936 -0.9790
 8233TIP3    H248895   2.238   0.588   7.057 -0.2606 -1.2776 -1.0080
 8234TIP3   OH248896   0.449   6.169   7.639  0.0080 -0.0704  0.1119
 8234TIP3    H148897   0.454   6.264   7.625 -2.8397  0.1341 -0.2038
 8234TIP3    H248898   0.422   6.135   7.554  2.3953 -1.4051 -0.1773
 8235TIP3   OH248899   4.389   5.255   8.288 -0.1222  0.2880 -0.3929
 8235TIP3    H148900   4.402   5.349   8.273 -1.4612  0.5766  0.1243
 8235TIP3    H248901   4.348   5.223   8.208  0.1183  0.1929 -0.4785
 8236TIP3   OH248902   0.444   3.902   6.962  0.2162 -0.4069 -0.0117
 8236TIP3    H148903   0.492   3.866   7.036 -0.7647 -1.5927  0.0915
 8236TIP3    H248904   0.361   3.853   6.961  0.9228 -1.7788 -3.0056
 8237TIP3   OH248905   4.618   6.443   8.614  0.3602  0.5442 -0.5501
 8237TIP3    H148906   4.577   6.434   8.700 -1.4536 -0.2526 -1.4507
 8237TIP3    H248907   4.676   6.518   8.624  2.2527 -1.0579  2.1139
 8238TIP3   OH248908   4.007   1.429   7.968  0.0846  0.6909 -0.0339
 8238TIP3    H148909   4.101   1.412   7.963 -0.0113  0.0520  0.2124
 8238TIP3    H248910   3.998   1.520   7.940  0.8081  0.8535  0.2223
 8239TIP3   OH248911   1.285   4.083   6.563 -0.3909 -0.2586  0.1016
 8239TIP3    H148912   1.193   4.060   6.573 -0.2638 -0.4770  0.8616
 8239TIP3    H248913   1.326   4.056   6.645  0.4535 -0.6441 -0.4205
 8240TIP3   OH248914   1.336   1.240   8.498  0.1496 -0.1808  0.0219
 8240TIP3    H148915   1.309   1.332   8.502 -1.1744 -0.5589  0.2860
 8240TIP3    H248916   1.328   1.209   8.588 -0.2970 -0.7800 -0.2132
 8241TIP3   OH248917   3.967   0.515   5.920 -0.1999  0.6380 -0.2921
 8241TIP3    H148918   4.047   0.564   5.935 -0.1305  0.7073 -0.8673
 8241TIP3    H248919   3.996   0.434   5.878 -0.2090 -0.3527  1.4860
 8242TIP3   OH248920   1.817   2.819   8.522 -0.4100  0.4071 -0.4720
 8242TIP3    H148921   1.796   2.725   8.516  2.2770 -0.4184  1.1912
 8242TIP3    H248922   1.902   2.827   8.479  1.4811  1.1620  3.0830
 8243TIP3   OH248923   3.936   1.727   8.201 -0.1222 -0.1046  0.0561
 8243TIP3    H148924   4.019   1.680   8.210 -0.2723 -0.0076  2.9877
 8243TIP3    H248925   3.951   1.811   8.245 -1.7143 -0.0282  0.5137
 8244TIP3   OH248926   0.500   3.989   8.080  0.1429 -0.1832  0.0961
 8244TIP3    H148927   0.427   4.028   8.030  0.4080 -0.5821 -0.6218
 8244TIP3    H248928   0.460   3.960   8.162 -0.1262  1.2870  0.5122
 8245TIP3   OH248929   1.397   3.006   6.842 -0.1104 -0.1496 -0.2840
 8245TIP3    H148930   1.434   3.019   6.930 -1.0199  1.7438 -0.1350
 8245TIP3    H248931   1.469   3.029   6.783  0.3102 -0.8117 -0.0386
 8246TIP3   OH248932   6.722   1.762   6.631 -0.4279  0.5560 -0.5125
 8246TIP3    H148933   6.658   1.765   6.702  1.0353 -0.9759  0.9424
 8246TIP3    H248934   6.670   1.775   6.551 -2.2850  1.0561  0.7188
 8247TIP3   OH248935   1.339   0.555   7.434  0.2226 -0.0437  0.0789
 8247TIP3    H148936   1.400   0.597   7.496  1.4689 -0.1862 -1.0058
 8247TIP3    H248937   1.325   0.621   7.366  0.2615 -0.5149 -0.3892
 8248TIP3   OH248938   3.442   0.105   7.213  0.3991 -0.7960 -0.2699
 8248TIP3    H148939   3.486   0.020   7.220  3.4389  0.6120 -0.4535
 8248TIP3    H248940   3.431   0.133   7.304 -1.2164 -1.5873 -0.1799
 8249TIP3   OH248941   1.155   3.231   8.218  0.4215  0.2820  0.4162
 8249TIP3    H148942   1.079   3.272   8.259  0.3083  0.1259  0.3616
 8249TIP3    H248943   1.224   3.297   8.226  0.3398  0.3386  0.6575
 8250TIP3   OH248944   1.285   2.846   7.176 -0.0577 -0.5996 -0.2436
 8250TIP3    H148945   1.349   2.913   7.154 -0.9995  1.4438  2.6439
 8250TIP3    H248946   1.200   2.890   7.167 -0.6338 -0.7387  3.2950
 8251TIP3   OH248947   1.724   4.831   5.590  0.0016 -0.0565 -0.0002
 8251TIP3    H148948   1.635   4.812   5.619 -0.4939  2.0928  0.0305
 8251TIP3    H248949   1.764   4.875   5.665  1.0116 -0.7427 -0.1220
 8252TIP3   OH248950   2.370   5.731   6.655 -0.2271  0.4898  0.0528
 8252TIP3    H148951   2.322   5.798   6.606  0.3941  0.0995 -1.1136
 8252TIP3    H248952   2.348   5.649   6.612 -0.8248 -0.0547  1.3555
 8253TIP3   OH248953   3.995   2.424   6.534 -0.0106 -0.0803 -0.3906
 8253TIP3    H148954   4.070   2.451   6.481  0.6683  1.4877  1.2806
 8253TIP3    H248955   3.921   2.426   6.473  0.9470  0.4078 -1.5781
 8254TIP3   OH248956   1.875   1.945   8.450  0.4104 -0.2631 -0.0698
 8254TIP3    H148957   1.941   1.979   8.510  0.3212 -0.0038 -0.1177
 8254TIP3    H248958   1.914   1.866   8.412  1.0775  0.4187 -0.8251
 8255TIP3   OH248959   2.227   5.176   6.332 -0.3796  0.0953  0.2536
 8255TIP3    H148960   2.198   5.180   6.241 -0.6684  1.0959  0.3754
 8255TIP3    H248961   2.295   5.109   6.333 -0.4359  0.0133 -0.6759
 8256TIP3   OH248962   4.661   1.408   8.191 -0.2672 -0.1696 -0.3568
 8256TIP3    H148963   4.617   1.490   8.166 -1.4599 -0.8904 -0.7004
 8256TIP3    H248964   4.609   1.340   8.149  0.7648 -1.1074 -0.1342
 8257TIP3   OH248965   4.391   4.843   7.869 -0.0334 -0.4114  0.5120
 8257TIP3    H148966   4.481   4.831   7.899  0.8268  1.1339 -1.3070
 8257TIP3    H248967   4.364   4.756   7.839  0.4892 -1.0846  1.8789
 8258TIP3   OH248968   6.682   3.534   5.822 -0.0599  0.5916 -0.5699
 8258TIP3    H148969   6.607   3.594   5.822 -1.7075 -1.3205 -2.7304
 8258TIP3    H248970   6.695   3.514   5.915 -2.5328  0.6415 -0.1429
 8259TIP3   OH248971   1.024   0.508   6.374 -0.2497  0.0242  0.1847
 8259TIP3    H148972   1.092   0.491   6.310 -0.4348  0.3149 -0.0917
 8259TIP3    H248973   1.046   0.594   6.411 -0.1651 -0.1237  0.4829
 8260TIP3   OH248974   3.979   0.688   7.880  0.1787  0.1715  0.0466
 8260TIP3    H148975   4.008   0.688   7.972  0.8795  0.9649 -0.1592
 8260TIP3    H248976   3.917   0.616   7.875  0.7040 -0.3761  0.9689
 8261TIP3   OH248977   3.472   4.403   5.726  0.0514  0.7465  0.6738
 8261TIP3    H148978   3.404   4.383   5.791 -0.5189 -0.0829 -0.1589
 8261TIP3    H248979   3.508   4.318   5.702  1.1207  1.1498  0.8047
 8262TIP3   OH248980   5.207   3.518   6.467  0.0578  0.0343 -0.2346
 8262TIP3    H148981   5.247   3.605   6.475 -0.4088  0.2634 -0.3865
 8262TIP3    H248982   5.237   3.486   6.381 -1.2452  0.8123 -1.0126
 8263TIP3   OH248983   3.267   4.683   8.164 -0.3268  0.3886 -0.3055
 8263TIP3    H148984   3.310   4.639   8.237  0.8722 -0.4879 -1.4943
 8263TIP3    H248985   3.196   4.625   8.139 -0.2423  0.3021 -0.3448
 8264TIP3   OH248986   2.141   5.667   9.334  0.2308  0.1159  0.0477
 8264TIP3    H148987   2.057   5.662   9.289  0.9745 -1.8820 -1.3137
 8264TIP3    H248988   2.154   5.579   9.370  1.8643  0.2559 -0.1089
 8265TIP3   OH248989   0.017   0.203   5.804  0.2547 -0.1035  0.2723
 8265TIP3    H148990  -0.020   0.201   5.716  0.0746  0.4915  0.3299
 8265TIP3    H248991  -0.059   0.198   5.862  0.3951 -0.8759  0.3980
 8266TIP3   OH248992   6.280   3.577   6.237 -0.6673  0.6655 -0.2727
 8266TIP3    H148993   6.360   3.538   6.203 -1.2674 -2.4886  1.5324
 8266TIP3    H248994   6.310   3.653   6.287  0.9334  0.8192 -1.3933
 8267TIP3   OH248995   5.906   5.662   7.273 -0.3388  0.0656  0.3281
 8267TIP3    H148996   5.875   5.723   7.207 -0.3812 -0.6582 -0.3300
 8267TIP3    H248997   6.002   5.669   7.269 -0.3518  0.3943  0.5511
 8268TIP3   OH248998   6.005   4.864   5.545 -0.6805  0.3308 -0.2628
 8268TIP3    H148999   5.924   4.852   5.495 -1.0786  0.4125  0.3534
 8268TIP3    H249000   6.017   4.958   5.550 -0.0505  0.3105 -1.1232
 8269TIP3   OH249001   4.885   6.581   8.805 -0.3746  0.5794  0.5229
 8269TIP3    H149002   4.811   6.564   8.862 -1.8556  0.5974 -1.2982
 8269TIP3    H249003   4.959   6.539   8.849 -1.4878  0.3119  2.2542
 8270TIP3   OH249004   4.046   5.615   6.097 -0.5161  0.2286  0.3585
 8270TIP3    H149005   4.084   5.575   6.175 -0.2340 -1.3296 -0.5424
 8270TIP3    H249006   4.044   5.545   6.032 -0.9175  1.4361 -0.9879
 8271TIP3   OH249007   4.338   1.253   6.845  0.1408  0.3703  0.3576
 8271TIP3    H149008   4.393   1.176   6.830 -0.3067 -0.2366  1.7093
 8271TIP3    H249009   4.396   1.318   6.884  0.3441  0.4532 -0.0759
 8272TIP3   OH249010   1.036   4.105   6.403  0.0795 -0.0374 -0.0326
 8272TIP3    H149011   1.020   4.184   6.455  0.1843 -0.5191  0.7446
 8272TIP3    H249012   1.081   4.136   6.325 -0.5469  0.7649 -0.0875
 8273TIP3   OH249013   5.205   5.206   6.677  0.2030  0.1692 -0.2000
 8273TIP3    H149014   5.249   5.239   6.755 -2.2908  3.9124 -0.1678
 8273TIP3    H249015   5.159   5.128   6.706  1.7568 -0.2897  1.2087
 8274TIP3   OH249016   4.897   1.439   8.632  0.0280 -0.2983  0.0071
 8274TIP3    H149017   4.856   1.354   8.615  0.8282 -1.2098  2.1702
 8274TIP3    H249018   4.972   1.441   8.572  0.3053 -1.3989  0.2777
 8275TIP3   OH249019   3.262   4.878   8.588 -0.6789 -0.5175  0.0255
 8275TIP3    H149020   3.221   4.942   8.529 -0.0064  0.8035  0.9194
 8275TIP3    H249021   3.356   4.883   8.566 -0.1425  1.3470  2.3290
 8276TIP3   OH249022   2.618   0.844   6.043  0.2768  0.2381 -0.7318
 8276TIP3    H149023   2.612   0.921   5.987 -0.8866  0.7855  0.1084
 8276TIP3    H249024   2.627   0.878   6.132  4.1438 -0.6091 -0.6354
 8277TIP3   OH249025   6.733   3.956   7.628 -0.3332 -0.4421 -0.1681
 8277TIP3    H149026   6.663   3.917   7.574 -0.4375 -1.5738  0.7464
 8277TIP3    H249027   6.799   3.984   7.564 -0.9625 -0.7041 -0.9552
 8278TIP3   OH249028   1.777   5.665   8.885  0.2964  0.1827 -0.1154
 8278TIP3    H149029   1.747   5.724   8.955 -0.5836  2.8323 -2.5074
 8278TIP3    H249030   1.857   5.625   8.920 -0.5423  0.7022  2.6768
 8279TIP3   OH249031   6.213   3.259   7.687 -0.1030 -0.2449 -0.6705
 8279TIP3    H149032   6.242   3.279   7.597  0.4234 -0.5395 -0.5671
 8279TIP3    H249033   6.125   3.297   7.692  0.2658  0.6888 -0.9787
 8280TIP3   OH249034   1.711   3.934   7.624 -0.2216  0.0703 -0.7096
 8280TIP3    H149035   1.630   3.985   7.630  0.5758  1.2239  0.8650
 8280TIP3    H249036   1.781   3.998   7.634  0.8147 -1.3318  1.8870
 8281TIP3   OH249037   4.333   5.913   7.197  0.0242  0.1863 -0.2833
 8281TIP3    H149038   4.252   5.956   7.224  0.9060  1.4488  0.4573
 8281TIP3    H249039   4.377   5.977   7.141 -0.3219 -1.2108 -2.2254
 8282TIP3   OH249040   3.306   0.570   6.817  0.3521  0.3721  0.1292
 8282TIP3    H149041   3.318   0.476   6.799  1.6607  0.4653  0.4495
 8282TIP3    H249042   3.349   0.614   6.744  2.0598  0.7188  1.2851
 8283TIP3   OH249043   1.162   0.206   6.321  0.1204 -0.1309  0.2985
 8283TIP3    H149044   1.089   0.229   6.379 -1.1803  2.9985 -2.2931
 8283TIP3    H249045   1.238   0.246   6.363 -0.6807  1.5387  0.2560
 8284TIP3   OH249046   5.794   6.494   5.915  0.5157 -0.3999  0.3209
 8284TIP3    H149047   5.872   6.438   5.916  0.5934 -0.2988 -0.0581
 8284TIP3    H249048   5.723   6.435   5.940  0.6307 -0.6127  0.1518
 8285TIP3   OH249049   0.289   0.176   8.819 -0.0388  0.1864  0.9532
 8285TIP3    H149050   0.383   0.187   8.803 -0.0417 -0.9806 -0.0262
 8285TIP3    H249051   0.274   0.215   8.905  1.4771 -0.2060  1.4181
 8286TIP3   OH249052   3.112   2.445   8.066 -0.3250  0.4236 -0.3389
 8286TIP3    H149053   3.147   2.370   8.018 -1.1060 -0.3030  0.1882
 8286TIP3    H249054   3.029   2.464   8.023 -1.6057 -0.9697  1.3500
 8287TIP3   OH249055   0.984   2.643   9.251 -0.2309  0.0071 -0.3245
 8287TIP3    H149056   0.959   2.551   9.252 -1.6425  0.3786  1.3680
 8287TIP3    H249057   0.911   2.690   9.290  1.3585  1.6173  0.9144
 8288TIP3   OH249058   3.269   4.758   7.758  0.1146  0.0301  0.2067
 8288TIP3    H149059   3.184   4.717   7.770 -0.0566  0.2935 -0.0968
 8288TIP3    H249060   3.328   4.707   7.814 -0.3912  0.3667  1.0631
 8289TIP3   OH249061   1.146   1.554   7.911  0.1461 -0.4545  0.4264
 8289TIP3    H149062   1.110   1.558   8.000 -1.0365  0.7850 -0.0830
 8289TIP3    H249063   1.220   1.615   7.912 -0.1969 -0.0409  0.4093
 8290TIP3   OH249064   6.391   2.262   7.655 -0.0274 -0.2406  0.3698
 8290TIP3    H149065   6.421   2.178   7.689  0.3014 -0.1482  0.3132
 8290TIP3    H249066   6.471   2.308   7.632 -0.1257  0.6722  1.7548
 8291TIP3   OH249067   0.297   0.376  15.930 -0.1396  0.0743 -0.2993
 8291TIP3    H149068   0.222   0.352  15.875 -0.9067  0.6477  0.4723
 8291TIP3    H249069   0.323   0.295  15.973 -1.2815  0.1475  0.5719
 8292TIP3   OH249070   3.646   4.727   7.827 -0.2889 -0.6002  0.2601
 8292TIP3    H149071   3.618   4.729   7.736 -0.2445  0.1559  0.2530
 8292TIP3    H249072   3.579   4.675   7.872  0.4750 -2.2404 -0.4442
 8293TIP3   OH249073   1.642   6.379   9.154  0.3752 -0.1658  0.3077
 8293TIP3    H149074   1.551   6.401   9.136 -0.0117 -0.5054  1.7373
 8293TIP3    H249075   1.662   6.422   9.237  1.9383  0.9789 -0.5939
 8294TIP3   OH249076   1.219   0.313   7.387 -0.2545  0.0996 -0.2925
 8294TIP3    H149077   1.210   0.262   7.468 -1.1552 -0.1656 -0.5570
 8294TIP3    H249078   1.287   0.378   7.408 -1.7047  1.1929  1.2766
 8295TIP3   OH249079   5.899   2.878   6.502 -0.5743  0.3389 -0.0121
 8295TIP3    H149080   5.870   2.843   6.586  1.5839 -2.7394 -0.3839
 8295TIP3    H249081   5.846   2.833   6.437  1.2359 -1.2948 -0.4453
 8296TIP3   OH249082   0.049   3.669   6.576  0.1940 -0.0901  0.1172
 8296TIP3    H149083  -0.012   3.657   6.503  1.5414 -1.5107 -0.8366
 8296TIP3    H249084   0.050   3.764   6.592 -0.3617  0.2091 -1.5035
 8297TIP3   OH249085   5.644   2.029   5.806  0.7151  0.6500  0.5285
 8297TIP3    H149086   5.677   1.983   5.729 -0.8787 -0.8331  0.6950
 8297TIP3    H249087   5.723   2.058   5.852  1.8614 -2.7127  0.8924
 8298TIP3   OH249088   1.340   1.093   6.580 -0.0728  0.1708  0.1142
 8298TIP3    H149089   1.363   1.130   6.495 -3.6006  2.3394 -0.1010
 8298TIP3    H249090   1.269   1.032   6.560  0.2429 -0.6227  1.3499
 8299TIP3   OH249091   6.651   1.291   7.686 -0.6676  0.0960 -0.6846
 8299TIP3    H149092   6.630   1.328   7.600 -0.5666 -0.1719 -0.8251
 8299TIP3    H249093   6.673   1.200   7.668  0.4414  0.3223 -0.5149
 8300TIP3   OH249094   1.950   4.672   5.981 -0.7251 -0.1650 -0.6673
 8300TIP3    H149095   1.936   4.666   6.075 -0.8688 -0.9852 -0.7333
 8300TIP3    H249096   1.904   4.751   5.954 -0.5792  0.1394 -0.0336
 8301TIP3   OH249097   3.622   2.757   6.778 -0.5970  0.1739 -0.4891
 8301TIP3    H149098   3.557   2.692   6.752 -0.9816  0.6016 -0.6059
 8301TIP3    H249099   3.706   2.720   6.749 -0.6608 -0.8529  0.5648
 8302TIP3   OH249100   5.795   1.981   7.293  0.2534 -0.4013  0.3329
 8302TIP3    H149101   5.710   2.004   7.254  0.2740  1.6523  1.3709
 8302TIP3    H249102   5.802   2.039   7.369  2.8546 -0.0971 -0.0762
 8303TIP3   OH249103   2.254   1.616   6.507  0.2843 -0.2784 -0.2911
 8303TIP3    H149104   2.179   1.569   6.470  0.9967 -1.5783 -0.1463
 8303TIP3    H249105   2.218   1.659   6.585  0.0321 -2.4137  0.8504
 8304TIP3   OH249106   2.993   0.037   7.022  0.0823 -0.2520  0.1619
 8304TIP3    H149107   2.907   0.076   7.038  0.2121 -0.2794  0.9489
 8304TIP3    H249108   2.988  -0.050   7.061  0.7531  0.0687  0.9883
 8305TIP3   OH249109   3.635   4.533   7.587  0.5676  0.0337 -0.0620
 8305TIP3    H149110   3.560   4.561   7.535  1.2766 -0.6346 -1.4795
 8305TIP3    H249111   3.659   4.447   7.553  0.9689 -0.5137  1.4816
 8306TIP3   OH249112   0.726   2.212   7.309  0.2156  0.0921  0.2604
 8306TIP3    H149113   0.805   2.263   7.326 -0.1294  0.5331  0.5465
 8306TIP3    H249114   0.739   2.131   7.358  0.4040  0.2405  0.4556
 8307TIP3   OH249115   0.734   3.158   7.139  0.6682  0.3260 -0.1310
 8307TIP3    H149116   0.828   3.141   7.147  0.3596 -0.6493  2.5905
 8307TIP3    H249117   0.714   3.218   7.210 -0.9705 -0.5841  0.2383
 8308TIP3   OH249118   2.053   1.487   7.129 -0.1929  0.4641  0.6050
 8308TIP3    H149119   1.960   1.474   7.113  0.1780 -0.6490 -0.8343
 8308TIP3    H249120   2.059   1.573   7.171 -1.8527  0.5462  0.7217
 8309TIP3   OH249121   4.845   0.900   6.466 -0.0858  0.1394 -0.2548
 8309TIP3    H149122   4.826   0.810   6.492 -0.1594 -0.4689 -2.2609
 8309TIP3    H249123   4.760   0.944   6.466 -0.4719 -0.5392 -1.8408
 8310TIP3   OH249124   0.373   3.068   8.272 -0.5879 -0.1667 -0.5069
 8310TIP3    H149125   0.331   3.026   8.347  0.0813 -0.4819 -0.2969
 8310TIP3    H249126   0.440   3.005   8.245 -1.1098 -0.2527 -1.6525
 8311TIP3   OH249127   4.026   5.235   6.556  0.0472  0.6277 -0.2882
 8311TIP3    H149128   4.119   5.212   6.558 -0.3021 -0.9235 -0.5222
 8311TIP3    H249129   3.986   5.175   6.619 -1.1378 -0.5577 -2.0885
 8312TIP3   OH249130   5.429   0.898   7.826  0.5071 -0.1111  0.1181
 8312TIP3    H149131   5.517   0.865   7.846  0.2385 -1.8002 -1.2255
 8312TIP3    H249132   5.437   0.939   7.740 -0.0371 -0.4857 -0.1225
 8313TIP3   OH249133   4.590   2.267   5.807  0.1918  0.1202  0.1668
 8313TIP3    H149134   4.680   2.300   5.796  0.4977 -0.9119 -0.5446
 8313TIP3    H249135   4.595   2.175   5.781 -0.3368 -0.9306  3.3849
 8314TIP3   OH249136   4.540   3.194   7.284  0.2050 -0.6026  0.0329
 8314TIP3    H149137   4.571   3.111   7.321  0.2284 -0.4910  0.2636
 8314TIP3    H249138   4.556   3.185   7.190  2.2174 -0.0280  0.2655
 8315TIP3   OH249139   6.319   1.498   6.694 -0.2535  0.3043 -0.0260
 8315TIP3    H149140   6.267   1.554   6.751 -0.7501 -1.0342  0.8790
 8315TIP3    H249141   6.256   1.439   6.653  0.5082 -1.4773  1.2379
 8316TIP3   OH249142   2.945   3.384   6.282 -0.1920 -0.3029 -0.5328
 8316TIP3    H149143   3.040   3.377   6.277 -0.0711  0.7481  0.0308
 8316TIP3    H249144   2.919   3.318   6.347  0.0465 -1.2000 -1.3212
 8317TIP3   OH249145   3.628   0.070   6.197  0.1303  0.3254 -0.5798
 8317TIP3    H149146   3.691   0.012   6.153 -0.0740 -0.4224  0.0987
 8317TIP3    H249147   3.671   0.092   6.280  0.0670  0.9045 -0.6949
 8318TIP3   OH249148   0.703   1.425   7.004 -0.5533  0.6346  0.1647
 8318TIP3    H149149   0.626   1.480   6.990 -1.1897 -0.6031 -1.5084
 8318TIP3    H249150   0.746   1.422   6.919  0.8167  0.4997  0.8427
 8319TIP3   OH249151   0.938   3.714   5.947 -0.3444 -0.3523  0.0482
 8319TIP3    H149152   0.970   3.671   6.027 -1.1955  1.4715  1.4426
 8319TIP3    H249153   0.879   3.650   5.907  0.2705 -1.3851  0.7537
 8320TIP3   OH249154   6.066   4.042   5.729  0.0612 -0.1304 -0.3850
 8320TIP3    H149155   5.982   4.079   5.704  0.0284  1.1377  1.4377
 8320TIP3    H249156   6.048   3.992   5.808  0.6315 -1.7905 -1.2610
 8321TIP3   OH249157   4.712   1.101   5.917 -0.1034  0.5985  0.7415
 8321TIP3    H149158   4.797   1.067   5.945  0.4047  0.6587 -0.6176
 8321TIP3    H249159   4.648   1.053   5.969  0.4986 -3.4510 -1.7959
 8322TIP3   OH249160   2.933   5.935   6.220 -0.1258  0.1406 -0.3519
 8322TIP3    H149161   2.877   5.862   6.195  0.7165 -1.4024  1.9753
 8322TIP3    H249162   3.022   5.905   6.201  0.2911  0.1884  1.3511
 8323TIP3   OH249163   2.250   4.614   8.107  0.1572  0.7199  0.3067
 8323TIP3    H149164   2.257   4.707   8.086 -1.1386  0.6351 -0.6834
 8323TIP3    H249165   2.167   4.587   8.067 -0.6394 -0.3465  2.4976
 8324TIP3   OH249166   5.945   4.683   6.042  0.2953 -0.0616 -0.3123
 8324TIP3    H149167   6.013   4.751   6.039  0.4887 -0.2864 -1.2366
 8324TIP3    H249168   5.948   4.642   5.956  0.8237 -1.8876  0.5368
 8325TIP3   OH249169   2.327   6.691   6.506 -0.1146  0.2339 -0.2444
 8325TIP3    H149170   2.350   6.783   6.522  1.4077 -0.2926  0.8364
 8325TIP3    H249171   2.377   6.668   6.428 -2.0383  0.8289 -1.7211
 8326TIP3   OH249172   3.545   3.021   8.281 -0.2765  0.4428  0.1373
 8326TIP3    H149173   3.460   3.065   8.269 -0.5565 -0.1489 -0.1043
 8326TIP3    H249174   3.526   2.929   8.263  0.4102  0.2990  0.1515
 8327TIP3   OH249175   5.742   3.118   7.699  0.2175  0.3626 -0.2632
 8327TIP3    H149176   5.797   3.193   7.674 -0.4792  0.4282 -1.7288
 8327TIP3    H249177   5.736   3.066   7.619 -2.0172  0.4758 -0.2163
 8328TIP3   OH249178   4.042   5.603   6.918 -0.3911 -0.3455 -0.5127
 8328TIP3    H149179   4.113   5.586   6.857 -0.5042  2.3785 -1.5504
 8328TIP3    H249180   4.085   5.609   7.003  0.3610 -0.4304 -0.8756
 8329TIP3   OH249181   4.908   6.680   7.416  0.1725 -0.6065 -0.0374
 8329TIP3    H149182   4.962   6.602   7.404  0.9213 -0.1607  0.3775
 8329TIP3    H249183   4.886   6.707   7.327  0.7780 -0.6950 -0.2197
 8330TIP3   OH249184   0.910   3.100   5.926  0.1189  1.0506 -0.0390
 8330TIP3    H149185   0.879   3.170   5.983  2.9983  1.3696  1.3394
 8330TIP3    H249186   0.993   3.133   5.890  0.7077 -0.9777 -0.6845
 8331TIP3   OH249187   5.206   5.569   7.796 -0.1776  0.3193  0.4510
 8331TIP3    H149188   5.244   5.649   7.759 -1.4374  0.7790  0.0715
 8331TIP3    H249189   5.127   5.600   7.841 -0.2019 -0.6130  1.0616
 8332TIP3   OH249190   0.736   0.973   8.573 -0.2353  0.6805 -0.2543
 8332TIP3    H149191   0.783   1.032   8.633  0.6845 -0.5572  0.2884
 8332TIP3    H249192   0.677   0.923   8.630 -0.5141  0.5914 -0.6166
 8333TIP3   OH249193   3.868   4.223   8.035  0.4856 -0.1808  0.0457
 8333TIP3    H149194   3.863   4.127   8.029  1.9595 -0.4270  1.9467
 8333TIP3    H249195   3.961   4.242   8.045  0.1376  1.3917  0.5214
 8334TIP3   OH249196   0.645   1.413   6.370  1.0296 -0.6088  0.1236
 8334TIP3    H149197   0.687   1.360   6.302 -2.3972 -1.9330 -1.1594
 8334TIP3    H249198   0.597   1.350   6.424 -2.5556  0.9202 -0.9815
 8335TIP3   OH249199   6.288   2.057   8.153  0.1044 -0.0421  0.1637
 8335TIP3    H149200   6.246   1.990   8.099  0.2356  0.4678 -0.5800
 8335TIP3    H249201   6.379   2.058   8.123 -0.4509  2.2718 -1.6876
 8336TIP3   OH249202   2.855   6.536  15.255 -0.5397  0.6017  0.1238
 8336TIP3    H149203   2.896   6.607  15.305 -1.9551  2.0159 -0.6456
 8336TIP3    H249204   2.768   6.527  15.294 -0.7914  0.0759 -0.5504
 8337TIP3   OH249205   5.810   2.873   7.801 -0.3643 -0.1676  0.6738
 8337TIP3    H149206   5.901   2.899   7.787 -0.0133 -0.9629  1.4467
 8337TIP3    H249207   5.761   2.956   7.799  0.4330  0.3172  0.7870
 8338TIP3   OH249208   5.725   5.809   5.513  0.1549 -0.2559 -0.1917
 8338TIP3    H149209   5.778   5.788   5.590 -1.7783 -0.3751  1.1849
 8338TIP3    H249210   5.775   5.878   5.468 -0.0506  2.1301  2.8677
 8339TIP3   OH249211   1.266   6.467   8.002  0.3427 -0.0734  0.5294
 8339TIP3    H149212   1.280   6.429   8.089  0.1336 -2.4914 -0.4051
 8339TIP3    H249213   1.354   6.491   7.972  0.4268  0.6786  1.3523
 8340TIP3   OH249214   3.066   4.134   7.892  0.6298 -0.0871  0.1340
 8340TIP3    H149215   2.980   4.178   7.889  0.0200 -1.2792 -0.7095
 8340TIP3    H249216   3.095   4.133   7.801  1.7193  0.5880  0.4546
 8341TIP3   OH249217   6.347   4.979   8.919  0.4010 -0.7284 -0.4679
 8341TIP3    H149218   6.414   5.032   8.962 -1.2385 -0.6801  2.2469
 8341TIP3    H249219   6.265   5.027   8.933 -0.3501 -1.0377 -3.2176
 8342TIP3   OH249220   1.708   2.966   8.727 -0.1960 -0.3771 -0.2305
 8342TIP3    H149221   1.791   3.012   8.741 -0.3906 -0.1423  0.1674
 8342TIP3    H249222   1.725   2.907   8.654  0.2948 -0.2586 -0.2128
 8343TIP3   OH249223   1.286   1.957   8.176 -0.3615  0.2081  0.3504
 8343TIP3    H149224   1.309   1.973   8.085  1.9100 -2.8659  0.2095
 8343TIP3    H249225   1.308   2.039   8.221 -0.5767  1.4468 -1.6536
 8344TIP3   OH249226   1.735   0.021   5.953 -0.2146  0.2190 -0.6793
 8344TIP3    H149227   1.690  -0.009   6.032 -0.0831  0.3395 -0.5580
 8344TIP3    H249228   1.689   0.101   5.928 -0.6238 -0.1312 -1.0547
 8345TIP3   OH249229   4.842   3.067   7.776  0.4614 -0.0832 -0.6399
 8345TIP3    H149230   4.873   3.103   7.693  1.7092  0.1173 -0.1183
 8345TIP3    H249231   4.919   3.070   7.833 -0.1797 -0.8913  0.3027
 8346TIP3   OH249232   4.004   0.896   6.240  0.3220 -0.4376 -0.1573
 8346TIP3    H149233   3.948   0.885   6.317  1.2806 -0.0200  0.6137
 8346TIP3    H249234   3.943   0.920   6.170 -0.5804 -0.9568  0.4260
 8347TIP3   OH249235   0.820   3.048   8.133  0.2859  0.5875  0.1604
 8347TIP3    H149236   0.758   3.118   8.113  0.3467  0.7457  0.5250
 8347TIP3    H249237   0.903   3.077   8.093  0.3796  0.8508  0.5479
 8348TIP3   OH249238   5.493   1.310  17.079 -0.2417  0.4603  0.0537
 8348TIP3    H149239   5.484   1.405  17.086 -0.2678  0.4045  0.8218
 8348TIP3    H249240   5.551   1.286  17.151  1.0767  0.0765 -1.0831
 8349TIP3   OH249241   2.550   0.764   6.660 -0.1995  0.0115 -0.3102
 8349TIP3    H149242   2.638   0.800   6.650 -0.5062  1.4037  1.3665
 8349TIP3    H249243   2.563   0.679   6.702  0.3418  0.5031  0.5588
 8350TIP3   OH249244   2.446   5.285   7.913 -0.3447  0.6577  0.4635
 8350TIP3    H149245   2.482   5.271   8.000  0.4293 -0.5995 -0.0198
 8350TIP3    H249246   2.459   5.201   7.868  0.3171  1.5904 -1.2087
 8351TIP3   OH249247   3.747   2.831   6.038  0.7753  0.0824 -0.0058
 8351TIP3    H149248   3.839   2.852   6.057  0.9486 -0.4084 -0.2910
 8351TIP3    H249249   3.700   2.859   6.117  1.0353  1.2287 -0.2363
 8352TIP3   OH249250   2.226   5.063   7.060  0.1164 -0.1222 -0.1063
 8352TIP3    H149251   2.255   4.979   7.093  0.0691 -0.5120 -1.0221
 8352TIP3    H249252   2.303   5.099   7.014  0.1558  0.3648  0.3236
 8353TIP3   OH249253   3.389   5.306   6.675  0.5581 -0.5720 -0.0331
 8353TIP3    H149254   3.447   5.302   6.599  0.4094 -0.8730 -0.1324
 8353TIP3    H249255   3.385   5.215   6.707  0.0270 -0.5783 -0.1148
 8354TIP3   OH249256   6.298   3.623   7.359  0.2460  0.1920 -0.4313
 8354TIP3    H149257   6.276   3.531   7.373  1.1012 -0.2782 -2.0092
 8354TIP3    H249258   6.391   3.629   7.382  0.0778  0.7770  0.1252
 8355TIP3   OH249259   4.939   1.958   6.976 -0.4504  0.1083  0.7946
 8355TIP3    H149260   4.930   2.046   6.939 -0.4197  0.1247  0.8257
 8355TIP3    H249261   4.852   1.920   6.969 -0.3980  0.0363  0.5189
 8356TIP3   OH249262   1.481   2.366   8.607  0.9953 -0.1893 -0.3682
 8356TIP3    H149263   1.439   2.441   8.650 -2.0828 -0.5395 -2.4432
 8356TIP3    H249264   1.495   2.395   8.517 -0.8980 -2.2202 -1.4052
 8357TIP3   OH249265   2.475   2.492   7.168 -0.1842  0.0949 -0.6291
 8357TIP3    H149266   2.389   2.495   7.126 -0.2505  0.5612 -0.4629
 8357TIP3    H249267   2.501   2.400   7.163 -0.7153 -0.0582 -0.6357
 8358TIP3   OH249268   5.247   0.734   7.278 -0.4559  0.3121  0.0474
 8358TIP3    H149269   5.192   0.811   7.289 -1.3481 -0.2491 -0.3237
 8358TIP3    H249270   5.205   0.666   7.331 -0.1698 -0.1439 -0.2984
 8359TIP3   OH249271   0.620   6.471   6.547 -0.4167  0.6431 -0.1746
 8359TIP3    H149272   0.613   6.558   6.508  0.0300 -0.3299 -2.6602
 8359TIP3    H249273   0.714   6.453   6.549 -0.5731 -0.7177 -2.1346
 8360TIP3   OH249274   3.112   0.540   7.678  0.0776 -1.1185  0.0108
 8360TIP3    H149275   3.029   0.521   7.635  0.2120  1.4315 -1.5946
 8360TIP3    H249276   3.097   0.622   7.725  1.8478 -0.2028 -0.9238
 8361TIP3   OH249277   5.363   0.670   7.964  0.1197 -0.2183 -0.3842
 8361TIP3    H149278   5.451   0.644   7.933  1.4456  2.2425  1.0567
 8361TIP3    H249279   5.360   0.764   7.950 -0.1847  0.6765  4.2875
 8362TIP3   OH249280   3.525   6.531   6.335  0.6006  0.1142  0.0129
 8362TIP3    H149281   3.588   6.468   6.302  0.2314 -0.5995  0.6358
 8362TIP3    H249282   3.448   6.479   6.357 -0.2297  0.9714 -0.7689
 8363TIP3   OH249283   3.655   3.410   7.511  0.1472 -0.3036  0.0875
 8363TIP3    H149284   3.603   3.332   7.492  0.2397  0.0495 -1.7734
 8363TIP3    H249285   3.746   3.378   7.511  0.0768 -0.5793  1.5479
 8364TIP3   OH249286   3.035   4.665   7.069  1.2199 -0.0903 -0.0966
 8364TIP3    H149287   3.078   4.599   7.124  3.8254  0.3326 -1.4598
 8364TIP3    H249288   3.105   4.726   7.046 -0.7818  2.3192 -0.1624
 8365TIP3   OH249289   3.170   4.840   5.802  0.2739  0.0691  0.2120
 8365TIP3    H149290   3.203   4.895   5.873  0.5416  0.1870 -0.0041
 8365TIP3    H249291   3.189   4.751   5.830 -0.2207  0.0813  0.5934
 8366TIP3   OH249292   2.262   2.456   5.795  0.5476 -0.0375 -0.0287
 8366TIP3    H149293   2.284   2.376   5.844  0.9042  0.6267  0.9170
 8366TIP3    H249294   2.347   2.493   5.771  0.5160  1.4969  1.9456
 8367TIP3   OH249295   2.447   3.902   5.460  0.0526 -0.0518 -0.0352
 8367TIP3    H149296   2.457   3.813   5.494 -0.7942  0.5040  1.7968
 8367TIP3    H249297   2.518   3.952   5.502 -1.5061  0.8251  1.7157
 8368TIP3   OH249298   4.654   5.581   7.789 -0.3218 -0.0347 -0.2789
 8368TIP3    H149299   4.704   5.523   7.733  1.1068 -0.0186  0.9255
 8368TIP3    H249300   4.579   5.528   7.818  1.0686 -1.4071  0.9847
 8369TIP3   OH249301   4.149   0.887   7.123 -0.2824  0.0126 -0.2747
 8369TIP3    H149302   4.056   0.900   7.104 -0.8069 -2.5152  0.1102
 8369TIP3    H249303   4.186   0.855   7.040 -0.3158 -1.1976  0.1457
 8370TIP3   OH249304   5.297   4.623   6.611  0.1312 -0.4470 -0.2407
 8370TIP3    H149305   5.379   4.660   6.643 -0.9785  1.7776  0.2853
 8370TIP3    H249306   5.321   4.576   6.531  1.6399  2.2414 -1.5232
 8371TIP3   OH249307   3.468   6.116   7.571 -0.0904  0.0203 -0.6872
 8371TIP3    H149308   3.531   6.167   7.520 -0.0945 -0.3644 -1.0914
 8371TIP3    H249309   3.418   6.068   7.505 -1.6731  1.2769 -0.4575
 8372TIP3   OH249310   3.546   4.695   8.578 -0.3829  0.3510  0.7523
 8372TIP3    H149311   3.580   4.732   8.659 -1.1408 -0.3734  1.4371
 8372TIP3    H249312   3.488   4.624   8.607 -1.1472  0.4685 -0.4029
 8373TIP3   OH249313   2.448   0.768   8.065  0.7170 -0.6008  0.4671
 8373TIP3    H149314   2.408   0.690   8.027  0.0458 -0.2356  0.4130
 8373TIP3    H249315   2.470   0.824   7.990  0.0816 -0.2102  0.5653
 8374TIP3   OH249316   3.537   1.991   7.108  0.2648  0.1267 -0.1641
 8374TIP3    H149317   3.516   2.069   7.057 -1.5175 -0.3249 -0.2125
 8374TIP3    H249318   3.629   1.973   7.089  0.9117  2.5569  0.3586
 8375TIP3   OH249319   2.507   5.402   6.331  0.3652 -0.0413  0.5059
 8375TIP3    H149320   2.499   5.466   6.261 -2.8333  0.4047  1.0939
 8375TIP3    H249321   2.487   5.451   6.411  0.5271 -1.2240  1.3027
 8376TIP3   OH249322   2.325   4.856   9.070  0.4339  0.3600 -0.6172
 8376TIP3    H149323   2.406   4.811   9.046 -0.3219 -0.8509 -0.9866
 8376TIP3    H249324   2.332   4.942   9.029  1.2613  0.0305 -1.1852
 8377TIP3   OH249325   3.418   1.751   7.209 -0.2046  0.2251  0.6545
 8377TIP3    H149326   3.340   1.778   7.257  0.0082  0.4767  0.8629
 8377TIP3    H249327   3.460   1.833   7.183 -1.2072  0.1198 -1.4461
 8378TIP3   OH249328   1.343   0.583   6.398  0.2892 -0.3130 -0.1286
 8378TIP3    H149329   1.298   0.532   6.331  0.4121  0.5557 -0.8888
 8378TIP3    H249330   1.342   0.673   6.365  1.4825 -0.0747  0.4265
 8379TIP3   OH249331   6.476   0.741   6.723 -0.1973 -0.1739 -0.0640
 8379TIP3    H149332   6.535   0.682   6.770 -0.2873  1.4428  2.2388
 8379TIP3    H249333   6.531   0.784   6.658  0.1042 -1.9277 -1.0246
 8380TIP3   OH249334   1.427   1.864   6.119  0.4851 -0.1506 -0.0901
 8380TIP3    H149335   1.482   1.801   6.166 -0.6232 -0.5810  0.6870
 8380TIP3    H249336   1.347   1.815   6.099 -0.4173  1.0126  0.5617
 8381TIP3   OH249337   4.421   1.572   8.139 -0.0152 -0.5741 -0.3390
 8381TIP3    H149338   4.412   1.664   8.162  0.1893 -0.4806 -0.6322
 8381TIP3    H249339   4.334   1.535   8.155 -0.1120 -0.3204 -0.2721
 8382TIP3   OH249340   0.221   1.449   6.190 -0.3097  0.3466  0.3815
 8382TIP3    H149341   0.206   1.507   6.265  0.1336 -0.4483  1.1029
 8382TIP3    H249342   0.151   1.471   6.128 -0.8427  0.8318  1.1425
 8383TIP3   OH249343   1.082   1.591   6.414 -0.6816  0.1542  0.2976
 8383TIP3    H149344   1.116   1.531   6.480 -2.3932  0.7345  1.7803
 8383TIP3    H249345   1.110   1.554   6.331  2.5099 -0.0322  1.3070
 8384TIP3   OH249346   6.690   1.868   8.294  0.1950  0.2386  0.0289
 8384TIP3    H149347   6.753   1.869   8.366 -0.2953  0.9096  0.4623
 8384TIP3    H249348   6.738   1.830   8.220  0.9652  0.3303  0.4746
 8385TIP3   OH249349   3.992   5.610   8.155  0.2114  0.2046  0.2536
 8385TIP3    H149350   4.019   5.640   8.242  1.9189  0.4389 -0.3318
 8385TIP3    H249351   4.007   5.516   8.156  0.9607  0.3168 -0.0300
 8386TIP3   OH249352   1.260   0.778   6.709  0.7993 -0.1841 -0.2892
 8386TIP3    H149353   1.212   0.755   6.629  2.3029 -1.8254 -0.7711
 8386TIP3    H249354   1.336   0.720   6.709  1.7358  0.9723  1.4768
 8387TIP3   OH249355   4.535   1.477   6.291 -0.3181  0.1439 -0.5595
 8387TIP3    H149356   4.449   1.517   6.275 -0.1622  0.5670 -0.3550
 8387TIP3    H249357   4.522   1.422   6.368 -1.1202 -2.0405 -2.1490
 8388TIP3   OH249358   5.262   5.949   5.484 -0.0965  0.5841  0.7264
 8388TIP3    H149359   5.306   5.893   5.420 -1.6415  0.7279 -0.5285
 8388TIP3    H249360   5.299   6.036   5.468 -0.9233  0.7481 -0.4664
 8389TIP3   OH249361   2.907   5.412   8.219  0.1420 -0.2659 -0.1160
 8389TIP3    H149362   2.941   5.378   8.136  0.5032 -0.3957  0.0780
 8389TIP3    H249363   2.934   5.346   8.284  2.0626  1.0321  0.4816
 8390TIP3   OH249364   6.098   3.548   7.764  0.7882 -0.2930  0.5181
 8390TIP3    H149365   6.057   3.611   7.824 -0.5622  0.2584 -0.9164
 8390TIP3    H249366   6.175   3.516   7.811 -0.1319  0.2392  2.4532
 8391TIP3   OH249367   5.399   1.007   6.488  0.3716 -0.1584  0.2058
 8391TIP3    H149368   5.371   1.056   6.565  2.3136  1.6810 -0.1719
 8391TIP3    H249369   5.412   0.918   6.519 -2.6065 -0.3916  1.0778
 8392TIP3   OH249370   0.956   6.296   5.886 -0.5010  0.1614  0.2473
 8392TIP3    H149371   1.044   6.278   5.918  0.2371  1.2047 -1.0766
 8392TIP3    H249372   0.957   6.390   5.865 -2.3914  0.5416  1.5704
 8393TIP3   OH249373   3.401   6.253   7.796  0.1993 -0.2102  0.2382
 8393TIP3    H149374   3.415   6.204   7.714 -1.6625 -0.3965 -0.0192
 8393TIP3    H249375   3.372   6.339   7.767  0.5574  0.0683  0.7107
 8394TIP3   OH249376   1.861   3.919   5.553  0.1819  0.1210 -0.2348
 8394TIP3    H149377   1.946   3.880   5.570  0.3430  0.7782  0.5065
 8394TIP3    H249378   1.878   3.986   5.486  0.3541  0.6058  0.2810
 8395TIP3   OH249379   1.831   5.769   7.206 -0.1084 -0.2506 -0.1628
 8395TIP3    H149380   1.792   5.853   7.232  0.8353  0.0243  0.4119
 8395TIP3    H249381   1.858   5.729   7.289  0.1093 -0.7952 -0.4926
 8396TIP3   OH249382   5.525   0.290   8.467 -0.0580  0.7429  0.1315
 8396TIP3    H149383   5.604   0.286   8.414 -0.1594  2.0418 -0.1369
 8396TIP3    H249384   5.551   0.252   8.551  0.8561  1.1698  0.0484
 8397TIP3   OH249385   6.511   3.269   7.733  0.2509  0.1455 -0.3841
 8397TIP3    H149386   6.421   3.295   7.753  0.5201  0.3236  0.6673
 8397TIP3    H249387   6.553   3.350   7.704  0.2035  0.1759 -0.3690
 8398TIP3   OH249388   5.129   6.039   7.216  0.0731  0.2377 -0.6761
 8398TIP3    H149389   5.101   6.094   7.143 -0.0690 -0.3450 -1.0694
 8398TIP3    H249390   5.183   6.097   7.271 -0.5936  0.9292 -0.7432
 8399TIP3   OH249391   5.000   2.572   5.446 -0.0355  0.4261  0.5297
 8399TIP3    H149392   4.931   2.563   5.380 -0.5677 -0.0012  1.1307
 8399TIP3    H249393   5.006   2.486   5.487  0.1480  0.7395  1.1751
 8400TIP3   OH249394   1.579   4.228   7.758 -0.0945  0.1994  0.5638
 8400TIP3    H149395   1.663   4.234   7.804  0.1055 -1.0669  0.3957
 8400TIP3    H249396   1.601   4.236   7.666 -0.2423  0.5747  0.5606
 8401TIP3   OH249397   4.203   5.989   7.890 -0.4835  0.1426 -0.3289
 8401TIP3    H149398   4.227   6.003   7.798 -1.7703  1.5512 -0.4980
 8401TIP3    H249399   4.189   5.895   7.897  3.7194 -0.6712 -0.4731
 8402TIP3   OH249400   5.699   3.394   7.367 -0.0578  0.2405 -0.3463
 8402TIP3    H149401   5.718   3.488   7.362 -1.7055  0.5748 -2.1368
 8402TIP3    H249402   5.607   3.390   7.395 -0.1939 -0.7955 -0.8910
 8403TIP3   OH249403   1.894   5.960   6.743  0.5357  0.5798  0.4241
 8403TIP3    H149404   1.920   5.934   6.832  2.6927  1.1284  0.0160
 8403TIP3    H249405   1.904   5.880   6.691 -0.1707  0.4030  0.5467
 8404TIP3   OH249406   2.395   3.509   7.565  0.2263  0.5468  0.8144
 8404TIP3    H149407   2.438   3.585   7.602  1.3234  0.2630  0.1725
 8404TIP3    H249408   2.353   3.465   7.640 -0.3723  1.7223  1.1917
 8405TIP3   OH249409   3.422   3.422   7.209 -0.6244 -0.1837 -0.6104
 8405TIP3    H149410   3.384   3.392   7.292 -1.2054  0.9197 -0.4627
 8405TIP3    H249411   3.349   3.423   7.148 -0.5428  0.5896 -0.6996
 8406TIP3   OH249412   2.508   3.598   7.317  0.0988  0.3231  0.2500
 8406TIP3    H149413   2.438   3.567   7.259  0.0584  0.3439  0.2875
 8406TIP3    H249414   2.489   3.556   7.401  0.5113 -0.2002  0.0850
 8407TIP3   OH249415   5.778   1.708   7.457  0.2211  0.1736 -0.3230
 8407TIP3    H149416   5.859   1.718   7.507  0.0802  0.1275 -0.0835
 8407TIP3    H249417   5.777   1.784   7.398 -0.5905  1.3403  1.1253
 8408TIP3   OH249418   3.434   0.039   5.782 -0.6221  0.4076  0.1511
 8408TIP3    H149419   3.453   0.012   5.872 -0.6273  3.5065  1.2028
 8408TIP3    H249420   3.340   0.028   5.773 -0.6379  0.1620  0.5745
 8409TIP3   OH249421   1.729   2.261   7.539  0.3378 -0.0795 -0.0902
 8409TIP3    H149422   1.761   2.347   7.564  0.1746  0.2436 -0.9752
 8409TIP3    H249423   1.806   2.216   7.504  0.6895 -0.7245  1.4143
 8410TIP3   OH249424   6.492   3.059   7.060  0.4127 -0.0846  0.4044
 8410TIP3    H149425   6.443   2.986   7.023 -0.8864 -0.3001  2.4050
 8410TIP3    H249426   6.444   3.137   7.029 -0.8017 -0.2696  1.7164
 8411TIP3   OH249427   6.438   2.466   7.443  0.0883 -0.0580 -0.2135
 8411TIP3    H149428   6.514   2.439   7.494 -0.8070 -0.4856  0.9341
 8411TIP3    H249429   6.456   2.557   7.419  0.4063  0.2604  1.1465
 8412TIP3   OH249430   0.011   2.509   7.332 -0.5564  0.3456  0.1965
 8412TIP3    H149431  -0.011   2.600   7.314  2.4533  0.7004 -2.4986
 8412TIP3    H249432  -0.042   2.458   7.270 -0.6872  0.4209  0.2458
 8413TIP3   OH249433   6.579   2.087   8.426 -0.3910 -0.3638 -0.0443
 8413TIP3    H149434   6.603   2.074   8.517 -0.5594 -0.4031 -0.0048
 8413TIP3    H249435   6.621   2.015   8.379  1.9190  1.1050 -0.3907
 8414TIP3   OH249436   3.563   6.424   8.423  0.1007 -0.0265  0.1035
 8414TIP3    H149437   3.629   6.492   8.413  0.9547 -1.0232 -1.4257
 8414TIP3    H249438   3.611   6.349   8.460 -0.5735 -0.1870  0.6851
 8415TIP3   OH249439   4.160   3.473   6.178 -0.7499 -0.5364 -0.3151
 8415TIP3    H149440   4.222   3.400   6.185 -0.3163 -0.4559 -2.5413
 8415TIP3    H249441   4.205   3.537   6.123 -2.4934 -0.1239 -1.3350
 8416TIP3   OH249442   0.456   0.970   7.503  0.1321  0.5656  0.0039
 8416TIP3    H149443   0.548   0.970   7.532  0.0635  1.0662  0.2304
 8416TIP3    H249444   0.421   0.887   7.534  0.3641  0.6083  0.3823
 8417TIP3   OH249445   2.119   4.450   8.481  0.0610 -0.0769  0.7594
 8417TIP3    H149446   2.171   4.394   8.539  0.6831  0.7249  0.9926
 8417TIP3    H249447   2.032   4.411   8.483  0.6156 -1.4145  0.4214
 8418TIP3   OH249448   1.595   6.742   6.660 -0.3208  0.0445 -0.2967
 8418TIP3    H149449   1.683   6.717   6.632  1.5378  4.3986  0.8288
 8418TIP3    H249450   1.568   6.809   6.598 -1.0450  1.6511  1.6481
 8419TIP3   OH249451   0.953   2.773   6.566 -0.2582  0.3368  0.2639
 8419TIP3    H149452   0.900   2.738   6.638 -0.7066  0.4364 -0.0131
 8419TIP3    H249453   0.901   2.755   6.488 -0.0792  0.8176  0.0299
 8420TIP3   OH249454   1.811   5.263   6.098  0.4273 -0.2665  0.0428
 8420TIP3    H149455   1.723   5.236   6.074  0.4479  0.3015 -0.7248
 8420TIP3    H249456   1.859   5.181   6.108 -0.1870 -0.5782  0.4728
 8421TIP3   OH249457   3.473   5.870   5.749 -0.3567  1.0870 -0.0984
 8421TIP3    H149458   3.499   5.788   5.789  0.4011  0.6662 -1.3765
 8421TIP3    H249459   3.504   5.938   5.809  2.2445  0.5442 -0.6817
 8422TIP3   OH249460   1.940   1.032   8.417  0.2319 -0.4337 -0.0822
 8422TIP3    H149461   1.847   1.053   8.416  0.1725 -0.6621  0.3264
 8422TIP3    H249462   1.970   1.051   8.328  0.5209  2.8423  0.5856
 8423TIP3   OH249463   1.494   5.083   6.896  0.9480 -0.5906 -0.8940
 8423TIP3    H149464   1.422   5.043   6.945  0.8909 -1.8106 -1.9199
 8423TIP3    H249465   1.571   5.065   6.950  1.0542 -2.8963 -1.6718
 8424TIP3   OH249466   0.382   6.444   5.612 -0.7656  0.0264 -0.6198
 8424TIP3    H149467   0.432   6.524   5.593 -0.5586 -0.2405 -1.1950
 8424TIP3    H249468   0.449   6.376   5.620 -0.8836  0.0111  0.5067
 8425TIP3   OH249469   3.299   5.593   6.205  0.3236  0.4231  0.1528
 8425TIP3    H149470   3.362   5.595   6.276  0.4494 -0.6852  0.0870
 8425TIP3    H249471   3.276   5.501   6.195  1.4230  0.3213 -2.2102
 8426TIP3   OH249472   5.203   1.324   6.968 -0.3362 -0.3006  0.0114
 8426TIP3    H149473   5.251   1.397   6.931 -0.9977 -0.1459 -0.5595
 8426TIP3    H249474   5.244   1.309   7.053 -0.2079  0.7555  0.1502
 8427TIP3   OH249475   6.314   2.275   7.971 -0.5189 -0.2226  0.0880
 8427TIP3    H149476   6.226   2.312   7.984  0.7219  1.9827  3.5408
 8427TIP3    H249477   6.329   2.222   8.049  2.0353  1.3827  0.7796
 8428TIP3   OH249478   3.889   1.975   7.543  0.1567  0.5295  0.1946
 8428TIP3    H149479   3.826   2.006   7.478  0.8680 -0.5809 -1.0654
 8428TIP3    H249480   3.857   1.887   7.567  1.0352  0.0880 -0.2202
 8429TIP3   OH249481   5.109   3.375   7.808 -0.1251  0.6269  0.0953
 8429TIP3    H149482   5.055   3.348   7.735  0.6407  1.3998 -0.7849
 8429TIP3    H249483   5.048   3.384   7.881 -0.9036 -0.1235 -0.4524
 8430TIP3   OH249484   4.089   4.512   7.104  0.0712  0.4028  0.0210
 8430TIP3    H149485   4.088   4.554   7.018  1.9916  0.4018 -0.0332
 8430TIP3    H249486   4.160   4.555   7.151 -1.0538  0.5213  1.7075
 8431TIP3   OH249487   0.799   2.825   8.719 -0.5425 -0.1819 -0.1127
 8431TIP3    H149488   0.761   2.864   8.797 -1.2599 -2.7042  0.9001
 8431TIP3    H249489   0.871   2.771   8.751 -0.1507 -0.4173 -1.3132
 8432TIP3   OH249490   3.681   1.125   8.158  0.5732 -0.3189  0.6169
 8432TIP3    H149491   3.754   1.137   8.096  0.7899 -1.7525  0.5578
 8432TIP3    H249492   3.626   1.059   8.117  0.3666 -0.8012  1.6602
 8433TIP3   OH249493   0.328   5.067   7.550 -0.2055  0.0396 -0.3216
 8433TIP3    H149494   0.403   5.126   7.561  0.2268 -0.2385 -1.5151
 8433TIP3    H249495   0.360   5.000   7.489 -0.6827 -1.4325  0.9975
 8434TIP3   OH249496   3.600   6.097   6.156  0.2934  0.1440  0.0008
 8434TIP3    H149497   3.544   6.089   6.233 -0.1200  1.0865 -0.1982
 8434TIP3    H249498   3.657   6.171   6.175  2.1493 -1.3517  0.6013
 8435TIP3   OH249499   4.826   0.168   7.224 -0.3221  0.2398 -0.3171
 8435TIP3    H149500   4.868   0.248   7.192 -0.2912 -0.0233 -0.9668
 8435TIP3    H249501   4.735   0.174   7.192 -0.1928 -0.2014 -0.7946
 8436TIP3   OH249502   2.921   5.113   6.926  0.7571  0.2102  0.1747
 8436TIP3    H149503   2.847   5.159   6.885 -0.0278 -2.0026 -1.0216
 8436TIP3    H249504   2.924   5.148   7.015 -2.0584  0.0683  0.4184
 8437TIP3   OH249505   3.717   1.762   6.388  0.1768 -0.2902  0.6806
 8437TIP3    H149506   3.714   1.857   6.381 -0.3797 -0.3121  0.6305
 8437TIP3    H249507   3.643   1.739   6.444  0.3522 -0.6867  0.7522
 8438TIP3   OH249508   1.990   4.514   8.748 -0.1444  0.1145  0.1799
 8438TIP3    H149509   1.939   4.557   8.817  0.9671  0.9327  0.5225
 8438TIP3    H249510   2.066   4.571   8.736 -0.2729 -0.0593 -1.6824
 8439TIP3   OH249511   6.645   2.062   8.667 -0.4984  0.0560 -0.2736
 8439TIP3    H149512   6.624   2.114   8.744 -0.2129  0.3119 -0.3640
 8439TIP3    H249513   6.706   1.995   8.698 -0.9728 -0.3064 -0.1300
 8440TIP3   OH249514   6.539   4.806   7.948  0.5475 -0.4644  0.0099
 8440TIP3    H149515   6.551   4.740   7.880 -0.5581  1.2635 -1.9827
 8440TIP3    H249516   6.623   4.852   7.953  0.2551  0.2332 -1.1683
 8441TIP3   OH249517   5.678   2.339   5.726 -0.0397 -0.1630  0.4383
 8441TIP3    H149518   5.619   2.267   5.747 -0.2520  0.0883  0.7294
 8441TIP3    H249519   5.682   2.391   5.806  2.8237 -1.6817  1.4218
 8442TIP3   OH249520   2.610   2.894   6.153  0.0013 -0.3244 -0.0647
 8442TIP3    H149521   2.631   2.880   6.061 -0.1049  0.4566 -0.2182
 8442TIP3    H249522   2.604   2.989   6.162  0.4434 -0.3703  0.8468
 8443TIP3   OH249523   6.228   4.141   6.946  0.0539 -0.7115  0.1453
 8443TIP3    H149524   6.139   4.157   6.915  0.3087 -1.0987 -0.8158
 8443TIP3    H249525   6.270   4.227   6.946  0.0464 -0.6996 -0.6100
 8444TIP3   OH249526   5.770   4.140   7.917 -0.9790  0.4429  0.1119
 8444TIP3    H149527   5.830   4.183   7.857  0.1001 -0.7001  0.3254
 8444TIP3    H249528   5.817   4.139   8.001 -0.6553 -1.6946 -0.0385
 8445TIP3   OH249529   3.202   2.078   6.141 -0.1755 -0.4014  0.5300
 8445TIP3    H149530   3.257   2.131   6.199 -1.0092  0.9314  0.1377
 8445TIP3    H249531   3.124   2.058   6.192 -0.8191  0.5987 -0.0242
 8446TIP3   OH249532   4.116   5.767   9.003 -0.3497  0.4028 -0.0658
 8446TIP3    H149533   4.194   5.814   8.972 -0.0212 -0.7474 -1.0796
 8446TIP3    H249534   4.144   5.675   9.006 -2.1485 -0.2744 -2.1129
 8447TIP3   OH249535   5.762   0.285   7.116 -0.7526 -0.4943  0.7134
 8447TIP3    H149536   5.806   0.221   7.060  0.2346  0.7334  0.0334
 8447TIP3    H249537   5.694   0.323   7.060 -1.7987 -1.4201  1.3336
 8448TIP3   OH249538   4.773   4.459   6.033  0.4502 -0.3377  0.0798
 8448TIP3    H149539   4.806   4.393   5.972 -0.6378 -0.7834 -0.0598
 8448TIP3    H249540   4.682   4.433   6.049 -0.6841  2.2437 -1.5487
 8449TIP3   OH249541   6.621   1.497   6.749  0.2004  0.1966 -0.0648
 8449TIP3    H149542   6.540   1.515   6.701 -0.3902 -1.3318  0.2957
 8449TIP3    H249543   6.680   1.459   6.684  0.3060  0.4545 -0.1219
 8450TIP3   OH249544   6.390   2.867   6.208  0.1210 -0.8568  0.3167
 8450TIP3    H149545   6.296   2.864   6.192 -0.1674  1.1514  1.2754
 8450TIP3    H249546   6.427   2.799   6.152 -1.8055 -1.0889 -0.7399
 8451TIP3   OH249547   0.294   4.394   7.476  0.0704 -0.5136  0.7069
 8451TIP3    H149548   0.234   4.369   7.545 -0.2551 -0.2758  0.5088
 8451TIP3    H249549   0.381   4.374   7.511 -0.0114  0.6897  1.6403
 8452TIP3   OH249550   1.086   5.276   5.574 -0.5437 -0.2247 -0.2097
 8452TIP3    H149551   1.139   5.214   5.624 -0.7788 -0.1405  0.1453
 8452TIP3    H249552   0.995   5.255   5.597 -0.5862  1.1790  1.0380
 8453TIP3   OH249553   6.583   0.231   6.664 -0.1036  0.5400 -0.3221
 8453TIP3    H149554   6.617   0.229   6.575 -0.1855 -3.9641 -0.4963
 8453TIP3    H249555   6.652   0.192   6.718 -1.3111  0.1109  0.9826
 8454TIP3   OH249556   6.143   2.165   7.426  0.2641  0.3261 -0.3944
 8454TIP3    H149557   6.134   2.198   7.515 -0.0518  0.5004 -0.4891
 8454TIP3    H249558   6.183   2.078   7.436 -0.6049 -0.0410 -0.0203
 8455TIP3   OH249559   5.163   3.928   7.352  0.6876 -0.5019 -0.5426
 8455TIP3    H149560   5.096   3.974   7.301  1.5634  1.0625 -0.3463
 8455TIP3    H249561   5.116   3.895   7.429 -0.1577 -0.7941 -1.1701
 8456TIP3   OH249562   6.143   2.216   7.689  0.3598 -0.3513 -0.1489
 8456TIP3    H149563   6.235   2.199   7.670  0.3969 -0.5662  0.2143
 8456TIP3    H249564   6.134   2.196   7.783  0.2975  1.1258  0.1866
 8457TIP3   OH249565   4.797   1.670   6.333  0.1649 -0.2582  0.3083
 8457TIP3    H149566   4.747   1.690   6.412 -0.5107  1.0564 -0.4087
 8457TIP3    H249567   4.884   1.647   6.366  0.1996  1.2631  1.4153
 8458TIP3   OH249568   5.240   6.547   5.760 -0.0467  0.0967 -0.6093
 8458TIP3    H149569   5.268   6.482   5.696 -1.2819 -0.6604 -0.4227
 8458TIP3    H249570   5.174   6.502   5.813 -1.3644  1.6609 -0.8383
 8459TIP3   OH249571   4.731   1.562   6.903 -0.0786 -0.4720 -0.4630
 8459TIP3    H149572   4.779   1.479   6.912  1.5959  0.2476 -2.1019
 8459TIP3    H249573   4.799   1.629   6.909 -1.6042  1.0076  2.9413
 8460TIP3   OH249574   3.689   4.107   8.640  0.2082  0.3016 -0.1587
 8460TIP3    H149575   3.616   4.084   8.698  0.9097 -0.6450  0.3881
 8460TIP3    H249576   3.650   4.118   8.554 -0.3659 -2.0890 -0.2819
 8461TIP3   OH249577   3.195   1.428   8.392  0.2466 -0.0170 -0.1153
 8461TIP3    H149578   3.169   1.513   8.427 -0.2606 -0.3082  0.2287
 8461TIP3    H249579   3.275   1.446   8.342 -0.4131  0.8292 -0.8908
 8462TIP3   OH249580   1.858   4.779   8.795 -0.1753  0.0473  0.0556
 8462TIP3    H149581   1.935   4.825   8.762 -1.7312  2.2078 -0.8010
 8462TIP3    H249582   1.859   4.794   8.890 -0.7641  2.1835 -0.2188
 8463TIP3   OH249583   5.380   2.198   7.070 -0.3995 -0.6376  0.1307
 8463TIP3    H149584   5.342   2.271   7.120 -1.1806 -0.6643 -0.4132
 8463TIP3    H249585   5.370   2.223   6.979  0.6975 -0.7572 -0.0343
 8464TIP3   OH249586   3.316   0.059   6.989  0.4967  0.1003  0.0676
 8464TIP3    H149587   3.224   0.039   7.004  0.7570 -0.2043  1.3370
 8464TIP3    H249588   3.359   0.045   7.074  2.0104 -1.4011 -0.8555
 8465TIP3   OH249589   5.664   2.442   6.588  0.1320 -0.3237  0.6517
 8465TIP3    H149590   5.752   2.476   6.569  0.2092 -0.5276  0.6489
 8465TIP3    H249591   5.677   2.381   6.660 -0.0220 -0.2810  0.7137
 8466TIP3   OH249592   0.966   1.021   9.174 -0.2857 -0.0991  0.2135
 8466TIP3    H149593   0.951   1.073   9.253 -0.0010  0.0379  0.1782
 8466TIP3    H249594   0.919   1.068   9.105 -1.2690 -0.6848  0.4592
 8467TIP3   OH249595   5.358   6.134   6.751  0.5729  0.2032 -0.4329
 8467TIP3    H149596   5.382   6.118   6.660  0.4286 -0.0306 -0.4305
 8467TIP3    H249597   5.440   6.160   6.793  0.5618  0.7372 -0.7211
 8468TIP3   OH249598   5.371   3.166   6.960  0.5585  0.4426  0.2128
 8468TIP3    H149599   5.423   3.210   7.027  1.4268 -0.7157  0.3471
 8468TIP3    H249600   5.434   3.110   6.915 -0.3016  0.1224 -0.6190
 8469TIP3   OH249601   1.632   0.672   6.119  0.1184  0.2739 -0.3538
 8469TIP3    H149602   1.716   0.714   6.102  0.5115 -0.6419 -0.7547
 8469TIP3    H249603   1.611   0.695   6.210  2.9278 -2.9069  1.3227
 8470TIP3   OH249604   5.083   2.729   6.127  0.5953  0.5751  0.3815
 8470TIP3    H149605   5.124   2.772   6.052  1.9089 -0.9228  0.2087
 8470TIP3    H249606   5.002   2.693   6.093 -0.3728  2.5272  0.4455
 8471TIP3   OH249607   3.502   3.218   9.234  0.4785 -0.3306 -0.3581
 8471TIP3    H149608   3.542   3.159   9.297 -1.7762 -1.7505 -0.1600
 8471TIP3    H249609   3.573   3.239   9.173  2.1553 -0.6262  1.3949
 8472TIP3   OH249610   2.891   5.855   6.582 -0.2477 -0.1493 -0.8139
 8472TIP3    H149611   2.958   5.893   6.526  0.2126  1.0424  0.4942
 8472TIP3    H249612   2.907   5.761   6.579  3.4355  0.2078  1.7469
 8473TIP3   OH249613   6.743   4.069   6.879  0.0698 -0.4547 -0.2953
 8473TIP3    H149614   6.771   4.053   6.970  2.6223 -0.2033 -0.9596
 8473TIP3    H249615   6.648   4.074   6.884  0.1523 -0.0060  2.4410
 8474TIP3   OH249616   2.872   5.765   9.149 -0.0373  0.5333  0.0981
 8474TIP3    H149617   2.931   5.691   9.162  1.7961  1.6733 -1.2556
 8474TIP3    H249618   2.785   5.731   9.173  0.9092 -1.6455  0.7164
 8475TIP3   OH249619   0.843   1.689   7.212 -0.2944 -0.3425  0.1123
 8475TIP3    H149620   0.808   1.684   7.123  3.2073 -0.2329 -1.4544
 8475TIP3    H249621   0.866   1.781   7.224  1.3612 -0.7186  0.1442
 8476TIP3   OH249622   5.760   1.613   7.867  0.6413 -0.1541  0.0499
 8476TIP3    H149623   5.754   1.676   7.795  0.2644 -0.8311 -0.5241
 8476TIP3    H249624   5.756   1.667   7.946 -0.1228  0.5186 -0.4241
 8477TIP3   OH249625   0.072   4.580   8.689 -0.9402  0.2646 -0.0998
 8477TIP3    H149626   0.005   4.643   8.716 -0.0300  0.5761  1.5907
 8477TIP3    H249627   0.154   4.616   8.723 -0.2668 -1.3471  0.0879
 8478TIP3   OH249628   3.050   6.307   7.748  0.1236  0.4704 -0.8089
 8478TIP3    H149629   3.102   6.242   7.793  0.1382 -0.4270 -2.0747
 8478TIP3    H249630   3.111   6.379   7.730  0.2450  0.6009  0.0812
 8479TIP3   OH249631   2.478   1.294   6.664 -0.6628 -0.4461 -0.0255
 8479TIP3    H149632   2.510   1.271   6.752 -0.7801 -0.6825 -0.0451
 8479TIP3    H249633   2.390   1.328   6.679  0.2656  2.0429  0.2608
 8480TIP3   OH249634   2.654   2.865   7.529  0.4525 -0.0368 -0.0445
 8480TIP3    H149635   2.626   2.827   7.446  0.2615 -1.3559  0.5945
 8480TIP3    H249636   2.704   2.795   7.571  1.3611  0.9365  0.5496
 8481TIP3   OH249637   1.255   6.110   7.449 -0.3428 -0.3962 -0.5237
 8481TIP3    H149638   1.303   6.041   7.404 -0.7408 -1.8685  1.1871
 8481TIP3    H249639   1.303   6.124   7.531 -0.1238  1.5850 -0.9395
 8482TIP3   OH249640   1.221   0.954   8.504 -0.6034 -0.0656  0.1407
 8482TIP3    H149641   1.268   0.967   8.586 -2.1645  0.0571  1.0489
 8482TIP3    H249642   1.264   0.878   8.463  0.7144  0.3792  0.6511
 8483TIP3   OH249643   1.094   0.538   8.500 -0.1151 -0.2587 -0.0325
 8483TIP3    H149644   1.166   0.544   8.438  2.1674 -0.2280  2.4212
 8483TIP3    H249645   1.027   0.596   8.464  0.3144 -1.5960 -3.2769
 8484TIP3   OH249646   6.119   1.854   8.021  0.5411 -0.3207 -0.2828
 8484TIP3    H149647   6.042   1.864   8.077  1.4235 -0.2520  0.9507
 8484TIP3    H249648   6.147   1.763   8.034 -0.0438 -0.7290 -1.6986
 8485TIP3   OH249649   1.143   3.497   7.027  0.2895 -0.5768  0.1109
 8485TIP3    H149650   1.103   3.531   6.946 -0.7226  2.0122  1.5933
 8485TIP3    H249651   1.201   3.567   7.056 -0.3927 -0.8738  2.3214
 8486TIP3   OH249652   1.978   6.524   6.075 -0.1052  0.1076 -0.5751
 8486TIP3    H149653   1.993   6.619   6.076 -0.4351  0.1645  1.1486
 8486TIP3    H249654   1.937   6.505   6.159 -2.1090 -1.2663 -1.7743
 8487TIP3   OH249655   0.710   3.654   7.022  0.1350  0.1167  0.6171
 8487TIP3    H149656   0.769   3.584   6.993 -0.9800 -0.9740  0.9190
 8487TIP3    H249657   0.624   3.612   7.030 -0.5101  1.4595  1.0732
 8488TIP3   OH249658   4.185   0.311   7.242  0.0270 -0.2796  0.0046
 8488TIP3    H149659   4.265   0.308   7.294 -0.0862  0.7589  0.2618
 8488TIP3    H249660   4.201   0.380   7.177  0.1172 -1.4646 -1.2850
 8489TIP3   OH249661   6.320   3.870   7.184 -0.1192 -0.0203 -0.5722
 8489TIP3    H149662   6.304   3.797   7.244 -1.9530  0.1098 -0.8619
 8489TIP3    H249663   6.240   3.923   7.188  0.2576  0.7186 -2.1337
 8490TIP3   OH249664   6.024   1.631   7.601  0.1408 -0.3751 -0.2827
 8490TIP3    H149665   6.033   1.545   7.642 -0.5826 -0.0672  0.5453
 8490TIP3    H249666   6.096   1.635   7.538  1.6305 -0.6698  1.3233
 8491TIP3   OH249667   2.806   3.814   8.126 -0.0993 -0.0368  0.7141
 8491TIP3    H149668   2.849   3.783   8.047 -0.9033  0.9063 -0.1196
 8491TIP3    H249669   2.718   3.774   8.122  0.6488 -2.0471  2.4490
 8492TIP3   OH249670   5.996   1.211   6.383 -0.0962  0.3813  0.2931
 8492TIP3    H149671   6.071   1.230   6.326  0.2273  0.2922  0.6867
 8492TIP3    H249672   5.920   1.212   6.324  0.1553  0.9339 -0.0296
 8493TIP3   OH249673   3.877   1.599   6.551 -0.2062 -0.0637 -0.6500
 8493TIP3    H149674   3.838   1.657   6.486 -2.1623 -1.0448 -0.4403
 8493TIP3    H249675   3.879   1.651   6.632 -0.7551  0.1372 -0.7597
 8494TIP3   OH249676   0.428   0.412   6.959 -0.8158  0.3329 -0.6649
 8494TIP3    H149677   0.341   0.406   6.919 -0.7331  1.4189 -1.0606
 8494TIP3    H249678   0.448   0.506   6.956 -0.7898  0.4602  1.9082
 8495TIP3   OH249679   0.266   0.789   8.804 -0.0896 -0.3639  0.1488
 8495TIP3    H149680   0.212   0.721   8.763 -2.5461  1.3337  0.3138
 8495TIP3    H249681   0.255   0.776   8.898  2.7895 -2.1600  0.3438
 8496TIP3   OH249682   3.144   1.070   7.827  0.7027  0.0838 -0.2667
 8496TIP3    H149683   3.119   1.138   7.765  0.0711  1.3036  1.2291
 8496TIP3    H249684   3.142   0.989   7.777  1.7649  1.1880 -2.1940
 8497TIP3   OH249685   1.003   6.700   8.795 -0.5781 -0.0749 -0.0917
 8497TIP3    H149686   1.094   6.707   8.825 -1.0250 -0.4359  1.4214
 8497TIP3    H249687   1.006   6.729   8.704  1.0575 -0.1177 -0.0843
 8498TIP3   OH249688   5.540   0.195   7.755 -0.1973  0.0663  0.1913
 8498TIP3    H149689   5.585   0.169   7.674  0.2015  2.3052 -0.3967
 8498TIP3    H249690   5.610   0.206   7.819 -0.6136 -2.8439  1.2817
 8499TIP3   OH249691   5.939   0.311   7.624  0.2552  0.5508 -0.1669
 8499TIP3    H149692   5.949   0.405   7.612 -0.0567  0.8709  1.8486
 8499TIP3    H249693   5.850   0.292   7.594  0.3596  0.8556 -0.6888
 8500TIP3   OH249694   0.334   0.511   5.685  0.1875 -0.2868 -0.0897
 8500TIP3    H149695   0.255   0.512   5.739 -0.6402 -0.4672 -1.2372
 8500TIP3    H249696   0.386   0.438   5.718  0.1254  0.1504  1.0052
 8501TIP3   OH249697   4.307   2.527   7.058 -0.4827  1.0161  0.1959
 8501TIP3    H149698   4.263   2.612   7.049  0.1031  1.4018  0.7755
 8501TIP3    H249699   4.390   2.539   7.012 -1.1010  0.1855 -1.1848
 8502TIP3   OH249700   6.572   0.489   6.062  0.4396  0.0380 -0.2226
 8502TIP3    H149701   6.648   0.431   6.061  0.8675  0.4554  1.8443
 8502TIP3    H249702   6.520   0.459   6.136 -1.2352  0.0167 -1.3641
 8503TIP3   OH249703   2.665   2.202   6.501  0.0569  0.0649 -0.4177
 8503TIP3    H149704   2.633   2.205   6.591 -1.4257  0.3758 -0.9373
 8503TIP3    H249705   2.600   2.250   6.451  0.1618 -1.2605 -1.8844
 8504TIP3   OH249706   6.248   0.585   7.425 -0.1720 -0.1962  0.3566
 8504TIP3    H149707   6.259   0.609   7.517 -2.1997  4.4060 -0.3484
 8504TIP3    H249708   6.331   0.608   7.384 -0.5355  1.5742  0.5141
 8505TIP3   OH249709   0.970   3.307   8.373  0.2751 -0.0722  1.0313
 8505TIP3    H149710   0.899   3.243   8.366 -0.5450  0.9740 -3.6053
 8505TIP3    H249711   0.928   3.385   8.409 -0.8897  0.3246 -1.0514
 8506TIP3   OH249712   4.900   6.301   6.103 -0.6700 -0.4546  0.0412
 8506TIP3    H149713   4.850   6.259   6.033 -1.3864  0.0096  0.2720
 8506TIP3    H249714   4.987   6.261   6.096  0.0481  1.2655 -2.6715
 8507TIP3   OH249715   5.249   0.338   7.248  1.0071  0.3405 -0.1108
 8507TIP3    H149716   5.182   0.347   7.316  1.9025  3.2838  0.5074
 8507TIP3    H249717   5.325   0.303   7.294  0.7170 -0.5578 -0.2854
 8508TIP3   OH249718   5.714   5.282   5.826  0.1961 -0.1806 -0.3117
 8508TIP3    H149719   5.789   5.270   5.884  0.4836  0.7772 -0.4604
 8508TIP3    H249720   5.662   5.351   5.868  0.0021 -0.0305 -0.7874
 8509TIP3   OH249721   1.025   4.010   6.803 -0.1849  0.1527 -0.0043
 8509TIP3    H149722   1.030   4.013   6.898  0.6829 -2.7189  0.1157
 8509TIP3    H249723   0.976   3.930   6.783 -1.6362  1.4331 -2.0049
 8510TIP3   OH249724   6.206   1.634   7.367  0.0106  0.3023  0.3827
 8510TIP3    H149725   6.166   1.578   7.301  0.9395 -0.6859  0.6382
 8510TIP3    H249726   6.265   1.577   7.415  2.2701  1.8407 -0.3969
 8511TIP3   OH249727   2.984   2.670   8.271  0.3001  0.4376  0.3156
 8511TIP3    H149728   2.973   2.730   8.197 -0.7119  0.2069  0.2570
 8511TIP3    H249729   2.994   2.584   8.231  1.0366  0.4665  0.4215
 8512TIP3   OH249730   2.642   2.596   7.991  0.6161  0.0300 -0.0436
 8512TIP3    H149731   2.594   2.653   8.051  1.4485  0.1220  0.5601
 8512TIP3    H249732   2.701   2.655   7.944  0.1183 -0.0724 -0.8190
 8513TIP3   OH249733   5.724   2.910   7.509 -0.0051 -0.3290 -0.8205
 8513TIP3    H149734   5.669   2.865   7.574  0.5219 -1.0519 -0.8586
 8513TIP3    H249735   5.793   2.847   7.489  0.4118  0.2800 -1.3341
 8514TIP3   OH249736   1.263   1.700   8.271  0.0325 -0.4659 -0.1830
 8514TIP3    H149737   1.327   1.658   8.213  0.5015  1.4004 -1.0835
 8514TIP3    H249738   1.258   1.790   8.240 -0.6941  0.2633  1.8914
 8515TIP3   OH249739   2.072   4.451   9.171  0.5049  0.5734 -0.1383
 8515TIP3    H149740   2.137   4.507   9.214  0.2914  0.1830  0.6930
 8515TIP3    H249741   2.123   4.397   9.111  1.0113 -0.0390  0.8288
 8516TIP3   OH249742   4.137   5.301   7.898 -0.5249  0.0453  0.1710
 8516TIP3    H149743   4.053   5.314   7.853 -1.5341 -1.5597  1.4772
 8516TIP3    H249744   4.113   5.269   7.985  1.4520 -0.8785  0.4278
 8517TIP3   OH249745   3.452   6.405   6.962  0.5202 -0.3378  0.2105
 8517TIP3    H149746   3.524   6.434   6.905  0.3275 -1.8084 -0.8222
 8517TIP3    H249747   3.449   6.310   6.950 -1.3634 -0.3404  0.5237
 8518TIP3   OH249748   2.165   6.005   7.266  0.5052  0.3849  0.6401
 8518TIP3    H149749   2.248   6.046   7.291  0.6323 -0.5538  1.8567
 8518TIP3    H249750   2.113   6.004   7.347  0.3896 -1.5042  0.5841
 8519TIP3   OH249751   1.937   2.044   7.524 -0.0870 -0.2140  0.0634
 8519TIP3    H149752   1.987   2.054   7.605 -1.9090 -0.8109  1.3199
 8519TIP3    H249753   1.986   2.094   7.459  1.0572  0.8516  1.6849
 8520TIP3   OH249754   6.218   6.505   9.414 -0.5090  0.1481  0.4130
 8520TIP3    H149755   6.234   6.411   9.427  0.6656  0.2086 -0.5034
 8520TIP3    H249756   6.162   6.509   9.337 -0.8165  0.1998  0.6348
 8521TIP3   OH249757   1.659   5.467   6.646  0.7107  0.4218 -0.3150
 8521TIP3    H149758   1.690   5.398   6.587 -1.1572 -1.5978  0.9274
 8521TIP3    H249759   1.578   5.498   6.607 -0.0170 -0.2329  0.6155
 8522TIP3   OH249760   4.387   1.866   7.050  0.0067 -0.4331  0.5457
 8522TIP3    H149761   4.370   1.893   7.141 -2.7975  1.3690 -0.3878
 8522TIP3    H249762   4.381   1.770   7.052  0.0888 -0.4372  2.2504
 8523TIP3   OH249763   3.650   3.881   6.937  0.1121  0.3630 -0.0602
 8523TIP3    H149764   3.625   3.807   6.883  2.3201  0.6607 -1.6151
 8523TIP3    H249765   3.675   3.842   7.021  1.0501 -0.6450 -0.7913
 8524TIP3   OH249766   1.583   0.238   5.916  0.2594 -0.1803 -0.2279
 8524TIP3    H149767   1.491   0.225   5.893  0.1738  0.8574 -0.5461
 8524TIP3    H249768   1.628   0.243   5.832  0.3174  1.1308 -0.1437
 8525TIP3   OH249769   1.229   6.613   8.466  0.3086 -0.1773  0.4936
 8525TIP3    H149770   1.240   6.573   8.552  2.3370  1.0192  0.8472
 8525TIP3    H249771   1.174   6.690   8.483  1.3658  0.5099  0.8948
 8526TIP3   OH249772   0.997   1.299   7.560  0.1155 -0.5565 -0.2241
 8526TIP3    H149773   0.930   1.345   7.609  0.9552  1.8921 -1.1944
 8526TIP3    H249774   1.073   1.297   7.618  0.9359  1.8578 -1.0703
 8527TIP3   OH249775   0.365   1.971   8.432 -0.0019  0.2804 -0.2678
 8527TIP3    H149776   0.395   2.048   8.383 -0.1724  0.6927  0.2706
 8527TIP3    H249777   0.427   1.902   8.407  1.9365  1.3202  1.4319
 8528TIP3   OH249778   3.091   5.907   5.871 -0.5750  0.0521  0.2569
 8528TIP3    H149779   3.120   5.903   5.961 -1.0206  3.5848  0.6996
 8528TIP3    H249780   3.169   5.930   5.821 -0.9906  1.6974  0.3174
 8529TIP3   OH249781   3.358   0.206   9.243  0.7139 -0.1332 -0.4191
 8529TIP3    H149782   3.420   0.227   9.313  1.3251 -0.4897 -0.8429
 8529TIP3    H249783   3.406   0.146   9.186  0.1947  0.0953 -1.1043
 8530TIP3   OH249784   1.662   5.827   8.532  0.0210  0.1219  0.3074
 8530TIP3    H149785   1.617   5.781   8.603  1.1928  0.3263  1.2240
 8530TIP3    H249786   1.604   5.820   8.457 -1.1808 -0.2492  1.2522
 8531TIP3   OH249787   4.499   1.455   7.018 -0.4067 -0.2749 -0.7099
 8531TIP3    H149788   4.450   1.522   7.067 -0.4060 -0.8521  0.0966
 8531TIP3    H249789   4.589   1.486   7.018 -0.3943 -0.3015 -0.2795
 8532TIP3   OH249790   4.696   4.115   5.733  0.2879 -0.2714  0.3715
 8532TIP3    H149791   4.620   4.057   5.733  0.8696 -1.0539  0.5951
 8532TIP3    H249792   4.768   4.059   5.703  0.7933  0.4250  0.2825
 8533TIP3   OH249793   4.284   0.561   7.154 -0.1623  0.0597 -0.3210
 8533TIP3    H149794   4.230   0.633   7.184 -0.7092  1.6168 -4.4290
 8533TIP3    H249795   4.371   0.600   7.140  0.3196 -0.8156  0.1578
 8534TIP3   OH249796   3.942   2.131   6.357  0.4836  0.3310  0.0939
 8534TIP3    H149797   3.909   2.088   6.278  0.0479 -1.1102  1.0067
 8534TIP3    H249798   3.947   2.224   6.334  0.3032 -0.0397 -1.5855
 8535TIP3   OH249799   6.537   5.559   5.822 -0.4302 -0.2165 -0.0329
 8535TIP3    H149800   6.590   5.483   5.802 -0.2988 -0.5147  1.3417
 8535TIP3    H249801   6.587   5.633   5.787 -0.4708 -0.7324 -1.2081
 8536TIP3   OH249802   2.638   4.547   6.451  0.3054  0.5062 -0.3733
 8536TIP3    H149803   2.647   4.512   6.362 -0.0296  2.3787 -1.1975
 8536TIP3    H249804   2.686   4.630   6.449 -1.1236  1.4108  0.6660
 8537TIP3   OH249805   6.135   4.535   9.161 -0.5757 -0.3616  0.2272
 8537TIP3    H149806   6.200   4.505   9.224  1.3970  0.7955 -1.1406
 8537TIP3    H249807   6.142   4.631   9.163  0.7014 -0.2724 -2.7528
 8538TIP3   OH249808   2.227   5.123   6.715  0.2992  0.2675 -0.3233
 8538TIP3    H149809   2.261   5.201   6.671 -0.7464 -0.1540 -1.9606
 8538TIP3    H249810   2.282   5.052   6.682 -2.2031 -0.4955 -3.3534
 8539TIP3   OH249811   2.851   4.920   8.274  0.1772 -0.1451 -0.2096
 8539TIP3    H149812   2.903   4.943   8.198 -0.1423 -1.8658 -1.0022
 8539TIP3    H249813   2.872   4.828   8.291  0.4220  0.2455  1.9430
 8540TIP3   OH249814   3.066   4.191   6.375  0.3262  0.1384 -0.2274
 8540TIP3    H149815   3.094   4.282   6.371  0.4812  0.1214  0.3385
 8540TIP3    H249816   3.111   4.148   6.303  0.6309  0.4148 -0.2001
 8541TIP3   OH249817   4.184   5.804   5.695 -0.1273  0.0422 -0.1716
 8541TIP3    H149818   4.232   5.722   5.702 -0.5951 -0.2782 -0.6247
 8541TIP3    H249819   4.245   5.864   5.652  0.0922 -0.1699 -0.1593
 8542TIP3   OH249820   6.083   2.264   6.743  0.0485 -0.8793 -0.6735
 8542TIP3    H149821   6.169   2.295   6.714 -1.1279  1.4725 -1.8578
 8542TIP3    H249822   6.042   2.232   6.663 -1.1093  0.3871 -0.6103
 8543TIP3   OH249823   2.338   0.844   7.159 -0.2404 -0.2497  0.0390
 8543TIP3    H149824   2.296   0.813   7.078  2.3889 -0.7463 -1.2205
 8543TIP3    H249825   2.344   0.766   7.214 -2.7253  0.2390  1.1278
 8544TIP3   OH249826   4.392   5.940   8.149 -0.0967 -0.1414  0.2197
 8544TIP3    H149827   4.311   5.926   8.196  0.3912 -0.2256  1.0603
 8544TIP3    H249828   4.368   5.993   8.073 -0.9335 -0.2173  0.4326
 8545TIP3   OH249829   6.687   5.192   6.929 -0.1725 -0.9080  0.0244
 8545TIP3    H149830   6.738   5.116   6.900 -0.1764 -0.7750 -0.3316
 8545TIP3    H249831   6.750   5.246   6.977  0.1093 -0.5851 -0.6932
 8546TIP3   OH249832   6.596   0.441   8.411 -0.1217  0.2769 -0.4880
 8546TIP3    H149833   6.537   0.381   8.365  0.7972  1.1033 -2.9233
 8546TIP3    H249834   6.545   0.521   8.423 -0.5874 -0.1644  0.6439
 8547TIP3   OH249835   6.616   2.940   5.803  0.6057 -0.1797  0.0538
 8547TIP3    H149836   6.646   2.979   5.885  1.5862  1.9117 -1.1967
 8547TIP3    H249837   6.673   2.979   5.736 -0.9607 -0.8415 -1.7564
 8548TIP3   OH249838   3.722   6.467   6.832 -0.2833  0.3729  0.1177
 8548TIP3    H149839   3.739   6.385   6.786  2.3706 -0.2486  1.9938
 8548TIP3    H249840   3.681   6.523   6.767 -2.0231 -2.3353 -1.2819
 8549TIP3   OH249841   4.260   1.318   8.023 -0.2425 -0.1529 -0.0320
 8549TIP3    H149842   4.290   1.355   7.941 -1.3946  1.1120  0.0916
 8549TIP3    H249843   4.296   1.229   8.023 -1.2691 -0.6393 -2.4853
 8550TIP3   OH249844   6.360   0.826  15.445 -0.2524  0.7743  0.5961
 8550TIP3    H149845   6.422   0.797  15.512 -2.6789 -2.3476  1.7358
 8550TIP3    H249846   6.320   0.905  15.482  1.0974  1.2881  1.0234
 8551TIP3   OH249847   0.978   0.929   9.515 -0.5395  0.0020  0.0202
 8551TIP3    H149848   0.942   0.910   9.602  0.4302  0.5172  0.5562
 8551TIP3    H249849   0.945   1.016   9.494 -0.6236 -0.0462 -0.0480
 8552TIP3   OH249850   6.008   5.650   6.570 -0.0319 -0.2391  0.4768
 8552TIP3    H149851   6.042   5.675   6.483 -0.2919  1.1497  0.7491
 8552TIP3    H249852   6.084   5.614   6.615 -0.2108 -2.3898 -0.8026
 8553TIP3   OH249853   3.365   4.008   6.360  0.2761 -0.1270  0.0922
 8553TIP3    H149854   3.443   4.052   6.325  0.2758 -0.4709 -0.3575
 8553TIP3    H249855   3.304   4.006   6.286 -0.2325  0.2962  0.4921
 8554TIP3   OH249856   4.872   1.605   5.967 -0.2202 -0.0840  0.1110
 8554TIP3    H149857   4.854   1.546   6.040 -1.8234  1.0016  0.6517
 8554TIP3    H249858   4.874   1.548   5.890 -1.8527 -0.8562  0.5985
 8555TIP3   OH249859   2.045   6.619   7.041  0.0163  0.3382 -0.5369
 8555TIP3    H149860   2.023   6.554   6.974  0.0177 -0.8583  0.5803
 8555TIP3    H249861   1.971   6.679   7.041 -0.3491 -0.1029 -1.0728
 8556TIP3   OH249862   2.903   1.072   6.419  0.2125 -0.0416 -0.6119
 8556TIP3    H149863   2.852   1.025   6.352 -0.0467 -0.8047  0.1097
 8556TIP3    H249864   2.994   1.062   6.390  0.0994 -0.3083 -0.8924
 8557TIP3   OH249865   5.577   4.711   6.067  0.3767  0.2394  0.6449
 8557TIP3    H149866   5.489   4.748   6.061 -0.2703 -1.3395 -0.4214
 8557TIP3    H249867   5.565   4.628   6.114  1.2606 -0.0624  0.3625
 8558TIP3   OH249868   2.288   5.816   8.774 -0.4813  0.5469  0.6647
 8558TIP3    H149869   2.264   5.869   8.850  1.4485  1.4258  0.7154
 8558TIP3    H249870   2.315   5.732   8.811  1.9298  1.4747  1.1620
 8559TIP3   OH249871   2.502   3.697   8.271 -0.5519 -0.3125 -0.5921
 8559TIP3    H149872   2.559   3.640   8.322 -1.2582 -1.1192 -0.6963
 8559TIP3    H249873   2.471   3.643   8.199  0.7754  0.9255 -2.1782
 8560TIP3   OH249874   1.641   1.908   5.883  0.2127 -0.1486  0.4301
 8560TIP3    H149875   1.729   1.876   5.900  0.4561  0.0878 -0.3676
 8560TIP3    H249876   1.602   1.919   5.970  0.8482 -0.5712  0.7737
 8561TIP3   OH249877   6.731   1.202   6.565  0.6905  0.2236 -0.0939
 8561TIP3    H149878   6.752   1.208   6.659  0.8770 -0.5699 -0.0753
 8561TIP3    H249879   6.681   1.121   6.558 -2.1824  1.8799 -0.1812
 8562TIP3   OH249880   3.449   3.705  15.303  0.1113  0.4471  0.3527
 8562TIP3    H149881   3.454   3.619  15.344  1.9997  0.8711  1.1024
 8562TIP3    H249882   3.366   3.741  15.334 -0.4840 -0.9060  0.3910
 8563TIP3   OH249883   3.944   0.981   7.539  0.7186 -0.6061 -0.3409
 8563TIP3    H149884   3.954   1.076   7.546  0.6980 -0.5948 -0.4608
 8563TIP3    H249885   4.028   0.946   7.566  0.6267 -0.5660  0.0107
 8564TIP3   OH249886   6.443   2.243   9.059 -0.3441  0.2521  0.4082
 8564TIP3    H149887   6.455   2.207   9.146 -0.7545  1.1464  0.8479
 8564TIP3    H249888   6.529   2.236   9.018 -0.2700 -0.6317  0.6919
 8565TIP3   OH249889   0.191   3.375   7.463  0.6868  0.2735 -0.2353
 8565TIP3    H149890   0.269   3.385   7.519  1.4419 -1.3757 -0.9141
 8565TIP3    H249891   0.183   3.459   7.418  1.1359  1.0071  0.9882
 8566TIP3   OH249892   0.721   3.564   5.881  1.2016  0.0828  0.1331
 8566TIP3    H149893   0.714   3.469   5.869 -0.0256  0.0128  1.1722
 8566TIP3    H249894   0.631   3.592   5.896  1.8950  0.9051  3.3772
 8567TIP3   OH249895   2.031   4.178   6.801  0.4310 -0.0078  0.3122
 8567TIP3    H149896   2.004   4.204   6.714  2.7348 -0.0131 -0.4680
 8567TIP3    H249897   1.955   4.195   6.856 -1.6168 -1.4275 -1.9085
 8568TIP3   OH249898   0.036   3.458   8.226  0.5406  0.4818 -0.2745
 8568TIP3    H149899  -0.015   3.384   8.192  0.1857  0.8086 -0.4605
 8568TIP3    H249900   0.108   3.467   8.164  0.6739  0.1937 -0.1648
 8569TIP3   OH249901   2.088   0.111   8.716  0.1766 -0.0793 -0.0220
 8569TIP3    H149902   2.032   0.143   8.645 -0.0338  0.9504  0.5970
 8569TIP3    H249903   2.101   0.187   8.773  0.6983 -0.7829  0.8189
 8570TIP3   OH249904   0.821   0.865   7.312  0.0845 -0.0056 -0.0632
 8570TIP3    H149905   0.889   0.931   7.303  1.0055 -0.7189  1.3305
 8570TIP3    H249906   0.828   0.812   7.232  0.8103  0.2403 -0.1719
 8571TIP3   OH249907   0.500   0.737   7.814  0.3585 -0.2613 -0.3874
 8571TIP3    H149908   0.525   0.650   7.845  0.9893 -0.4586 -1.3886
 8571TIP3    H249909   0.498   0.728   7.718 -2.6247  0.0129 -0.4468
 8572TIP3   OH249910   2.017   6.373   6.921 -0.9964  0.3179 -0.2617
 8572TIP3    H149911   1.957   6.370   6.847 -0.7003 -0.8476 -0.4709
 8572TIP3    H249912   2.088   6.313   6.897 -0.7682  0.1240  0.8538
 8573TIP3   OH249913   3.959   6.485   6.240  0.2231 -0.7211  0.4889
 8573TIP3    H149914   3.915   6.570   6.245  2.5946  0.5889  0.4489
 8573TIP3    H249915   3.992   6.480   6.151  1.0641 -1.1480  0.8136
 8574TIP3   OH249916   3.217   6.194   8.009  0.0447 -0.5182 -0.2948
 8574TIP3    H149917   3.256   6.225   8.091  0.5223  0.7406 -0.9743
 8574TIP3    H249918   3.286   6.203   7.944 -0.7639 -0.1606 -1.1208
 8575TIP3   OH249919   4.628   6.241   6.246  0.3735  0.0256  0.0717
 8575TIP3    H149920   4.620   6.147   6.228  1.2463  0.0348 -0.4232
 8575TIP3    H249921   4.701   6.269   6.192 -0.9935  1.3701 -1.1776
 8576TIP3   OH249922   5.332   6.176   9.129 -0.0603  0.2913 -0.4041
 8576TIP3    H149923   5.362   6.169   9.039  1.1473  0.9934 -0.0759
 8576TIP3    H249924   5.249   6.223   9.124  0.5570  1.3457 -1.0632
 8577TIP3   OH249925   1.601   1.994   7.173  0.1555 -0.0622 -0.0393
 8577TIP3    H149926   1.689   2.028   7.154 -0.0065 -0.6858 -2.0916
 8577TIP3    H249927   1.604   1.903   7.143 -0.8781 -0.4167  0.8915
 8578TIP3   OH249928   4.186   2.432   6.792 -0.0752 -0.3297 -0.0611
 8578TIP3    H149929   4.173   2.470   6.880  1.7839 -0.0520  0.1286
 8578TIP3    H249930   4.201   2.508   6.736  2.6227 -0.6386  0.1312
 8579TIP3   OH249931   3.849   3.183   7.270 -0.5599 -0.6391  0.0340
 8579TIP3    H149932   3.893   3.111   7.224  1.1284  0.6438 -0.4299
 8579TIP3    H249933   3.899   3.194   7.351 -0.8297  0.0067  0.1126
 8580TIP3   OH249934   5.312   5.373   7.645  0.7032  0.0768 -0.4974
 8580TIP3    H149935   5.269   5.437   7.702 -0.5362  0.0859 -1.4069
 8580TIP3    H249936   5.377   5.424   7.598  1.3124  0.1933  0.4384
 8581TIP3   OH249937   0.133   4.935   6.833 -0.1298  0.3845  0.9312
 8581TIP3    H149938   0.153   4.843   6.817  0.2617  0.4512  1.0121
 8581TIP3    H249939   0.096   4.967   6.751 -1.7799 -0.2401  1.3896
 8582TIP3   OH249940   4.135   4.451   7.765  0.7210  0.1538  0.3903
 8582TIP3    H149941   4.055   4.472   7.718  2.1152  1.3866 -1.5941
 8582TIP3    H249942   4.143   4.356   7.759  1.1852  0.2932 -2.5939
 8583TIP3   OH249943   5.081   1.741   6.718  0.1357  0.6104  0.7528
 8583TIP3    H149944   5.100   1.714   6.808  0.8225  2.2309  1.1292
 8583TIP3    H249945   5.153   1.801   6.695 -0.4586  0.8566 -0.5902
 8584TIP3   OH249946   0.112   1.226   7.112 -0.2953 -0.4284  0.0517
 8584TIP3    H149947   0.022   1.201   7.134 -0.6407  0.4606 -0.3130
 8584TIP3    H249948   0.145   1.267   7.192 -1.0923  1.5661 -0.5957
 8585TIP3   OH249949   5.388   5.434   7.285  0.0652  0.2357 -0.2353
 8585TIP3    H149950   5.429   5.498   7.227 -1.5279  1.7431  0.2406
 8585TIP3    H249951   5.447   5.430   7.361  0.0310  1.3984 -0.1276
 8586TIP3   OH249952   4.119   1.465   6.604  0.6820  0.1448 -0.0010
 8586TIP3    H149953   4.025   1.468   6.623  1.0048 -0.3670  1.8800
 8586TIP3    H249954   4.138   1.550   6.564 -0.4305  0.5587  0.3119
 8587TIP3   OH249955   0.679   1.501   7.343  0.2475 -0.3666 -0.0825
 8587TIP3    H149956   0.756   1.528   7.293  0.1829 -0.2917 -0.1429
 8587TIP3    H249957   0.620   1.577   7.337  0.2875 -0.3135  0.2036
 8588TIP3   OH249958   1.045   3.555   6.777 -0.6958  0.5294 -0.1823
 8588TIP3    H149959   0.978   3.506   6.730 -1.3911  0.7589  0.5573
 8588TIP3    H249960   1.127   3.511   6.753 -1.3010 -1.0627  0.5267
 8589TIP3   OH249961   0.824   5.270   7.617 -0.3990 -0.6067 -0.1916
 8589TIP3    H149962   0.798   5.349   7.664 -1.3812 -1.0098 -0.0144
 8589TIP3    H249963   0.918   5.280   7.602 -0.6029  0.8276 -0.6449
 8590TIP3   OH249964   2.365   3.397   6.759 -0.0093 -0.2137 -0.3502
 8590TIP3    H149965   2.415   3.369   6.683  0.1760 -0.4456 -0.1402
 8590TIP3    H249966   2.421   3.461   6.802 -0.5264  0.6765 -0.9591
 8591TIP3   OH249967   1.238   0.291   7.044  0.1022  0.3865  0.0915
 8591TIP3    H149968   1.194   0.372   7.017 -0.8051 -0.8290 -2.4146
 8591TIP3    H249969   1.330   0.307   7.024 -0.1723  0.5747 -1.1574
 8592TIP3   OH249970   6.475   4.658   6.840 -0.7584 -0.1265  0.2544
 8592TIP3    H149971   6.530   4.674   6.764 -0.5919  0.1591  0.4296
 8592TIP3    H249972   6.386   4.652   6.805 -0.5438 -1.2907 -0.1132
 8593TIP3   OH249973   2.351   5.856   9.183  0.7543  0.2175 -0.2364
 8593TIP3    H149974   2.313   5.919   9.122  2.7784  1.5222 -0.2454
 8593TIP3    H249975   2.276   5.812   9.222 -0.7370  2.2882 -0.6098
 8594TIP3   OH249976   0.809   5.279   8.784  0.5987 -0.4130 -0.4670
 8594TIP3    H149977   0.756   5.201   8.803 -0.5168  0.3030 -0.5400
 8594TIP3    H249978   0.792   5.338   8.858 -2.7561  1.8657 -2.7369
 8595TIP3   OH249979   1.257   5.782   6.302 -0.0836 -0.1964 -0.2675
 8595TIP3    H149980   1.323   5.797   6.370 -0.7369 -0.7875  0.5126
 8595TIP3    H249981   1.179   5.755   6.350 -0.7862  0.1240 -1.2074
 8596TIP3   OH249982   6.593   3.767   6.119  0.3723  0.2186 -0.3013
 8596TIP3    H149983   6.670   3.760   6.063  0.2161  0.7235 -0.5779
 8596TIP3    H249984   6.545   3.842   6.086  1.2186  1.6996  1.6416
 8597TIP3   OH249985   3.344   2.572   9.131  0.7267  0.0325  0.5038
 8597TIP3    H149986   3.262   2.597   9.087  0.6600  2.3053  1.7694
 8597TIP3    H249987   3.411   2.626   9.089  1.3316 -0.6877  0.5280
 8598TIP3   OH249988   0.650   6.700   5.946  0.2613 -0.2149  0.6962
 8598TIP3    H149989   0.678   6.646   5.872 -1.6262 -0.3927  0.0361
 8598TIP3    H249990   0.588   6.644   5.994  0.8131  0.2059  1.9360
 8599TIP3   OH249991   2.419   5.501   8.332  0.4613 -0.1769 -0.4886
 8599TIP3    H149992   2.346   5.479   8.390 -0.4960  1.7463 -0.8990
 8599TIP3    H249993   2.497   5.467   8.378 -0.5569 -1.2928  0.4746
 8600TIP3   OH249994   3.033   0.750   7.844 -0.1357  0.3622  0.1787
 8600TIP3    H149995   3.067   0.817   7.902 -0.1803  2.2657 -1.8582
 8600TIP3    H249996   2.961   0.792   7.797 -0.6087 -1.3143 -0.6954
 8601TIP3   OH249997   6.150   4.286   7.573  0.9580  0.2671  0.2173
 8601TIP3    H149998   6.078   4.269   7.634  0.1771 -0.4874 -0.8722
 8601TIP3    H249999   6.184   4.200   7.551  2.7837  0.6519  1.3558
 8602TIP3   OH250000   5.696   3.478   6.414  0.2547  0.2211 -0.5665
 8602TIP3    H150001   5.653   3.409   6.363  0.4637  1.1968 -2.1274
 8602TIP3    H250002   5.768   3.433   6.458 -1.2846 -1.0917  0.7389
 8603TIP3   OH250003   3.951   3.743   6.818  0.6405 -0.1685 -0.0828
 8603TIP3    H150004   3.993   3.801   6.755 -0.3135  0.3227 -0.2907
 8603TIP3    H250005   3.904   3.802   6.877  0.3065 -0.6923  0.1848
 8604TIP3   OH250006   4.814   5.629   5.953 -0.0362  0.0537  0.6515
 8604TIP3    H150007   4.835   5.637   6.046 -0.1757  2.5318  0.5417
 8604TIP3    H250008   4.722   5.656   5.947 -0.3579 -1.1277 -0.0996
 8605TIP3   OH250009   3.538   5.386   7.200  0.0702  0.4017 -0.2836
 8605TIP3    H150010   3.617   5.433   7.173  0.5689 -0.1977  0.1110
 8605TIP3    H250011   3.475   5.404   7.130  1.0158 -0.3122 -1.3526
 8606TIP3   OH250012   1.985   5.028   7.584 -0.6149 -0.1239  0.0752
 8606TIP3    H150013   2.051   5.078   7.536 -0.7422 -0.1286 -0.1091
 8606TIP3    H250014   2.003   5.045   7.676  1.4256 -2.3752  0.1716
 8607TIP3   OH250015   1.534   6.251   7.319 -0.3020  0.1118 -0.1779
 8607TIP3    H150016   1.564   6.288   7.402 -2.3575 -1.2179  1.2594
 8607TIP3    H250017   1.532   6.325   7.258 -0.0563  1.4060  1.3278
 8608TIP3   OH250018   6.297   3.273   7.022  0.0679 -0.1771  0.7141
 8608TIP3    H150019   6.205   3.260   7.047 -0.0979 -0.0037  0.2123
 8608TIP3    H250020   6.315   3.365   7.043 -0.3752  0.2604 -0.6982
 8609TIP3   OH250021   3.582   6.064   8.218  0.2445 -0.4406  0.1043
 8609TIP3    H150022   3.634   6.118   8.158 -0.8225 -0.3216 -0.7312
 8609TIP3    H250023   3.543   6.126   8.279 -0.3076 -0.3464 -0.3405
 8610TIP3   OH250024   1.987   4.890   8.219 -0.3422  0.3799  0.2869
 8610TIP3    H150025   1.961   4.978   8.194  1.6449  0.8560 -0.2898
 8610TIP3    H250026   1.995   4.843   8.136 -0.2415  0.0061  0.5025
 8611TIP3   OH250027   1.920   5.714   6.637 -0.3696  0.5425  0.2585
 8611TIP3    H150028   1.994   5.657   6.617 -0.9520 -0.6718  1.4142
 8611TIP3    H250029   1.855   5.692   6.570 -0.7124 -0.4227  0.8866
 8612TIP3   OH250030   0.769   2.644   7.110 -0.3962  0.1419 -0.4386
 8612TIP3    H150031   0.723   2.560   7.111  0.4882 -0.3430  0.2977
 8612TIP3    H250032   0.821   2.644   7.190  1.3176  0.4369 -1.5017
 8613TIP3   OH250033   1.243   0.175   8.725 -0.2894  0.4166 -0.4305
 8613TIP3    H150034   1.273   0.085   8.732  0.5918  0.6011 -1.6220
 8613TIP3    H250035   1.213   0.197   8.813 -0.8181 -1.1316 -0.1981
 8614TIP3   OH250036   0.072   0.985   6.934 -0.1551 -0.2846  0.4754
 8614TIP3    H150037   0.043   0.972   6.844 -0.1833  0.9291  0.2882
 8614TIP3    H250038   0.027   1.064   6.963 -0.1904 -0.6850  1.5813
 8615TIP3   OH250039   4.394   0.125   8.308 -0.1502  0.3128  0.1676
 8615TIP3    H150040   4.308   0.145   8.344 -0.4521  0.8199 -0.8155
 8615TIP3    H250041   4.382   0.042   8.262 -0.1665  0.4702 -0.1171
 8616TIP3   OH250042   2.991   1.024   7.415 -0.2424 -0.3913 -0.0820
 8616TIP3    H150043   3.008   1.029   7.320 -0.4023 -3.9543 -0.4287
 8616TIP3    H250044   3.068   0.980   7.450  0.2016  1.6130  1.6846
 8617TIP3   OH250045   0.945   4.107   8.159 -0.3480 -0.1051  0.1309
 8617TIP3    H150046   0.933   4.106   8.064  1.1234  2.0764 -0.1576
 8617TIP3    H250047   0.983   4.021   8.179 -0.0864 -0.3691 -1.3555
 8618TIP3   OH250048   1.754   5.701   6.890 -0.1111 -0.2607  0.8813
 8618TIP3    H150049   1.793   5.645   6.957  2.0944 -1.2631 -1.0669
 8618TIP3    H250050   1.797   5.674   6.809  1.2687  4.2979 -0.2308
 8619TIP3   OH250051   6.183   6.452   6.184  0.3275 -0.1239  0.6770
 8619TIP3    H150052   6.166   6.514   6.113  3.7877  0.0362 -0.1495
 8619TIP3    H250053   6.223   6.377   6.141 -1.1083 -1.7686  2.0536
 8620TIP3   OH250054   4.169   0.683   6.939  0.0994 -0.4334 -0.4736
 8620TIP3    H150055   4.075   0.682   6.917 -0.1541  0.7621  0.4952
 8620TIP3    H250056   4.185   0.598   6.979 -0.9065 -0.1253  0.6336
 8621TIP3   OH250057   5.433   4.057   7.414  0.7476 -0.1752  0.2627
 8621TIP3    H150058   5.445   4.058   7.509  0.2726  0.0889  0.3244
 8621TIP3    H250059   5.355   4.003   7.400  1.5252 -1.2377 -0.0718
 8622TIP3   OH250060   2.544   2.498   7.710  0.5198 -0.6616  0.0689
 8622TIP3    H150061   2.490   2.424   7.737 -0.3093  0.0486  0.4120
 8622TIP3    H250062   2.514   2.518   7.621  0.8402 -0.8302 -0.0755
 8623TIP3   OH250063   4.332   5.591   6.244  0.1448  0.0565  0.5484
 8623TIP3    H150064   4.348   5.671   6.293 -0.0713 -0.6482  1.8192
 8623TIP3    H250065   4.252   5.555   6.283 -0.8330  0.1644 -1.2541
 8624TIP3   OH250066   3.376   2.336   8.183 -0.2470  0.3448  0.0775
 8624TIP3    H150067   3.442   2.295   8.239  0.3009  1.1153  0.0051
 8624TIP3    H250068   3.409   2.323   8.094 -1.3844 -1.3591 -0.1466
 8625TIP3   OH250069   5.783   0.164   9.046  0.3786 -0.0798  0.0282
 8625TIP3    H150070   5.743   0.250   9.042 -1.6872 -0.9190  1.2167
 8625TIP3    H250071   5.767   0.134   9.135 -0.4671 -2.3709 -0.8204
 8626TIP3   OH250072   4.362   0.379   8.173 -0.2554  0.0418 -0.5735
 8626TIP3    H150073   4.275   0.420   8.179  0.1607  0.8090  0.4616
 8626TIP3    H250074   4.350   0.294   8.216 -0.4007  0.3125 -0.0680
 8627TIP3   OH250075   4.096   3.615   5.789  0.5691 -0.0402  0.0165
 8627TIP3    H150076   4.146   3.688   5.753 -0.9285  0.9755 -0.0997
 8627TIP3    H250077   4.113   3.619   5.883 -1.0263  1.7250  0.2747
 8628TIP3   OH250078   2.775   6.043   7.967 -0.5161 -0.0296  0.3623
 8628TIP3    H150079   2.861   6.021   8.004 -1.5076 -0.0354  2.7858
 8628TIP3    H250080   2.758   5.973   7.904  1.7055  0.5670 -1.0374
 8629TIP3   OH250081   3.137   0.175   7.612  0.6333 -0.0402  0.6865
 8629TIP3    H150082   3.045   0.152   7.626  0.6453 -0.1325  0.6110
 8629TIP3    H250083   3.173   0.183   7.701  0.3328  0.8815  0.7391
 8630TIP3   OH250084   4.977   5.175   7.032  0.0193  0.1271 -0.3875
 8630TIP3    H150085   4.997   5.229   7.108 -2.1421  0.4890  0.0037
 8630TIP3    H250086   5.062   5.152   6.995  1.0530  2.3665  0.4359
 8631TIP3   OH250087   3.202   2.490   8.582 -0.7572  0.2616  0.0045
 8631TIP3    H150088   3.206   2.486   8.486 -0.3052 -0.5366  0.0506
 8631TIP3    H250089   3.284   2.450   8.611 -1.2886 -0.3213  0.7353
 8632TIP3   OH250090   2.730   4.828   6.456 -0.4791  0.3789  0.2609
 8632TIP3    H150091   2.792   4.902   6.456  0.0957 -0.0868 -0.6354
 8632TIP3    H250092   2.699   4.822   6.366 -0.6149 -0.4009  0.3525
 8633TIP3   OH250093   3.820   3.748   8.297 -0.1774 -0.0708  0.7863
 8633TIP3    H150094   3.770   3.671   8.271 -0.7852  0.9290 -1.1517
 8633TIP3    H250095   3.903   3.741   8.249 -0.2571  0.5049  0.5547
 8634TIP3   OH250096   1.875   3.015   6.722 -0.0877  0.1888 -0.2978
 8634TIP3    H150097   1.951   2.958   6.712 -0.5171 -0.7895  1.5687
 8634TIP3    H250098   1.910   3.103   6.705  1.2466 -0.3224 -0.3685
 8635TIP3   OH250099   5.551   0.854   5.991 -0.2721  0.3168  0.0220
 8635TIP3    H150100   5.638   0.862   5.952  0.9010  1.3864  2.5762
 8635TIP3    H250101   5.538   0.759   6.001  0.4000  0.1304 -0.7871
 8636TIP3   OH250102   5.841   2.027   5.527 -0.0172  0.4807  0.4901
 8636TIP3    H150103   5.846   2.091   5.598 -1.6400  1.5650 -0.2845
 8636TIP3    H250104   5.887   2.069   5.454  0.2464  0.0878  0.4297
 8637TIP3   OH250105   4.502   2.486   6.683  0.2252 -0.7325 -0.3385
 8637TIP3    H150106   4.423   2.491   6.629 -1.5370 -1.2408  1.9990
 8637TIP3    H250107   4.574   2.486   6.621 -1.5190  1.4107 -2.5438
 8638TIP3   OH250108   5.473   0.696   7.542  0.2074  0.5907  0.1828
 8638TIP3    H150109   5.435   0.784   7.544 -0.1694  0.4467 -0.2555
 8638TIP3    H250110   5.522   0.693   7.459  0.9023  0.6608  0.5874
 8639TIP3   OH250111   4.389   4.729   8.653 -0.0826  0.0379  0.1756
 8639TIP3    H150112   4.465   4.674   8.672  0.2490  0.1894 -0.6519
 8639TIP3    H250113   4.366   4.768   8.737  0.6437 -0.1520  0.4729
 8640TIP3   OH250114   3.737   1.704   6.069 -0.2042 -0.3214 -0.2180
 8640TIP3    H150115   3.791   1.626   6.086  0.5121  0.3274  0.5568
 8640TIP3    H250116   3.710   1.734   6.156  0.0635  0.6681 -0.4613
 8641TIP3   OH250117   6.351   2.005   7.117 -0.7221  0.0559 -0.5918
 8641TIP3    H150118   6.268   1.959   7.126 -0.8656  0.4321  0.0853
 8641TIP3    H250119   6.327   2.098   7.113 -0.3244  0.1915 -0.0086
 8642TIP3   OH250120   6.447   6.392   6.792 -0.5148 -0.6077 -0.1421
 8642TIP3    H150121   6.458   6.297   6.799  2.9594 -0.1970  3.0438
 8642TIP3    H250122   6.507   6.418   6.722  0.0998 -0.6028  0.3804
 8643TIP3   OH250123   5.293   6.699   8.221  0.5843  0.7402 -0.2669
 8643TIP3    H150124   5.248   6.761   8.279  1.0335  0.2304  0.6350
 8643TIP3    H250125   5.328   6.754   8.151  0.2882  1.3996  0.0884
 8644TIP3   OH250126   2.000   5.287   6.519  0.1565  0.1036  0.4730
 8644TIP3    H150127   1.917   5.303   6.564  0.0713  1.8037 -0.2199
 8644TIP3    H250128   2.025   5.198   6.545 -1.5733 -0.2116  1.1633
 8645TIP3   OH250129   2.870   6.272   7.544  0.3072 -0.0385 -0.3524
 8645TIP3    H150130   2.947   6.258   7.599  0.0897 -0.1004 -0.0636
 8645TIP3    H250131   2.904   6.266   7.455  0.4092 -1.3733 -0.2406
 8646TIP3   OH250132   3.342   1.951   6.639 -0.5273  0.1546  0.1081
 8646TIP3    H150133   3.311   1.890   6.705  0.0582  0.6308  0.8372
 8646TIP3    H250134   3.425   1.914   6.609 -1.3019 -0.6378 -1.1824
 8647TIP3   OH250135   4.761   5.019   7.037 -0.2650  0.0263  0.1260
 8647TIP3    H150136   4.793   4.983   7.120 -1.8534  1.5716  1.4850
 8647TIP3    H250137   4.820   5.091   7.018  0.7019 -0.9409 -0.6584
 8648TIP3   OH250138   3.215   6.131   6.822  0.7920  0.7316  0.5722
 8648TIP3    H150139   3.195   6.053   6.771  1.0609  2.0582 -1.6802
 8648TIP3    H250140   3.283   6.103   6.883 -0.2968 -1.1674  1.0300
 8649TIP3   OH250141   4.781   0.401   9.044 -0.1464 -0.1178  0.0935
 8649TIP3    H150142   4.740   0.486   9.026  1.0782  0.6160  0.6835
 8649TIP3    H250143   4.790   0.399   9.139  0.9064 -0.3832 -0.0026
 8650TIP3   OH250144   4.618   5.163   5.491  0.0134 -0.2777  0.0913
 8650TIP3    H150145   4.606   5.072   5.514 -0.2714 -0.3166 -0.2015
 8650TIP3    H250146   4.682   5.162   5.419  0.5550 -0.1930  0.5687
 8651TIP3   OH250147   2.460   2.779   7.046  0.5487  0.3023 -0.0847
 8651TIP3    H150148   2.534   2.752   7.101 -0.2781  2.0422  2.0380
 8651TIP3    H250149   2.384   2.737   7.087  0.1713 -0.4175 -1.4684
 8652TIP3   OH250150   6.080   0.443   6.606 -0.0792 -0.0899  0.2743
 8652TIP3    H150151   6.133   0.520   6.624 -0.0349  0.0850 -0.5443
 8652TIP3    H250152   6.136   0.368   6.629 -0.3903  0.1049  1.7943
 8653TIP3   OH250153   0.565   6.749   7.196  0.5172  0.1659  0.3180
 8653TIP3    H150154   0.531   6.798   7.271  2.2142 -0.0464  1.2815
 8653TIP3    H250155   0.520   6.786   7.120 -0.5140  1.0710  1.3330
 8654TIP3   OH250156   1.760   4.165   7.974  0.1052 -0.2619 -0.1005
 8654TIP3    H150157   1.758   4.245   8.027  0.4851 -0.5259  0.3094
 8654TIP3    H250158   1.852   4.142   7.968  0.0319 -0.4309 -0.5825
 8655TIP3   OH250159   3.258   1.938   5.699  0.6992  0.0849 -0.2256
 8655TIP3    H150160   3.188   1.932   5.634 -1.0118  0.7722  1.4620
 8655TIP3    H250161   3.324   1.876   5.669 -0.4066 -0.2397 -2.1412
 8656TIP3   OH250162   1.120   4.915   6.085 -0.2336 -0.0735 -0.3499
 8656TIP3    H150163   1.086   4.998   6.117  0.7536  1.0873 -2.1549
 8656TIP3    H250164   1.212   4.933   6.065 -0.2625 -1.2912 -1.7517
 8657TIP3   OH250165   3.124   5.649   8.325 -0.2329  0.0526 -0.6198
 8657TIP3    H150166   3.153   5.564   8.359 -0.5321  1.2694  3.1891
 8657TIP3    H250167   3.201   5.685   8.281  0.4938 -1.3968 -0.5729
 8658TIP3   OH250168   0.935   1.774   6.739 -0.5248  0.5554  0.5949
 8658TIP3    H150169   0.879   1.789   6.815 -0.3301  0.6308  0.7240
 8658TIP3    H250170   1.020   1.750   6.775 -0.9963 -1.5871  0.3972
 8659TIP3   OH250171   5.649   2.295   6.827  0.4567  0.2482 -0.6723
 8659TIP3    H150172   5.570   2.345   6.843  0.6334 -0.0796  1.5289
 8659TIP3    H250173   5.677   2.265   6.914  1.2704 -2.2445 -1.6893
 8660TIP3   OH250174   0.596   0.317   6.633 -0.1831 -0.1273 -0.0319
 8660TIP3    H150175   0.617   0.410   6.635 -1.5395  0.2623 -1.6970
 8660TIP3    H250176   0.671   0.277   6.588  0.2146  0.2035  0.3228
 8661TIP3   OH250177   1.297   5.288   7.111 -0.2465  0.3008  0.0016
 8661TIP3    H150178   1.269   5.199   7.134 -0.6424  0.0666 -1.2656
 8661TIP3    H250179   1.390   5.278   7.089 -0.4659  0.0443 -0.8419
 8662TIP3   OH250180   2.686   5.765   7.181 -0.0879  0.1010 -0.7718
 8662TIP3    H150181   2.765   5.744   7.132 -0.8206 -0.1477 -1.8995
 8662TIP3    H250182   2.647   5.839   7.133  0.3370  1.3776  0.7686
 8663TIP3   OH250183   5.828   5.710   8.964  0.2049 -0.1572  0.0446
 8663TIP3    H150184   5.880   5.692   9.043 -1.4884  1.5390  1.6577
 8663TIP3    H250185   5.891   5.702   8.892  1.8746 -1.5825  1.5419
 8664TIP3   OH250186   2.196   3.147   6.722 -0.0647 -0.3541  0.3510
 8664TIP3    H150187   2.251   3.076   6.753  0.5764 -1.0009 -2.0841
 8664TIP3    H250188   2.257   3.215   6.694 -0.5978  0.1533  0.3924
 8665TIP3   OH250189   2.869   4.275   6.024 -0.0368  0.0792 -0.2452
 8665TIP3    H150190   2.841   4.206   5.964  0.2255  0.2075 -0.5152
 8665TIP3    H250191   2.848   4.241   6.111  1.4896 -0.9913 -0.2684
 8666TIP3   OH250192   6.010   2.108   7.945  1.1835 -0.4655  0.6087
 8666TIP3    H150193   5.963   2.128   8.026  1.6124  0.0970  0.7231
 8666TIP3    H250194   6.072   2.040   7.969  1.5702 -0.0346  0.8463
 8667TIP3   OH250195   6.508   0.733   8.663 -0.0134 -0.1679 -0.3572
 8667TIP3    H150196   6.473   0.822   8.664  2.5277  0.9163  0.7436
 8667TIP3    H250197   6.501   0.705   8.572  1.1319  2.0590 -1.1942
 8668TIP3   OH250198   0.983   1.376   7.295 -0.0010  0.2306 -0.6607
 8668TIP3    H150199   0.971   1.364   7.389  1.2334  0.8893 -0.4080
 8668TIP3    H250200   0.923   1.312   7.256 -0.0002 -0.5682  0.5742
 8669TIP3   OH250201   1.562   0.828   6.347  0.0467  0.9710 -0.4270
 8669TIP3    H150202   1.559   0.775   6.427 -0.6291  0.0550 -1.0394
 8669TIP3    H250203   1.630   0.893   6.364  0.2261  0.5079  0.7184
 8670TIP3   OH250204   0.682   2.600   6.543 -0.5841  0.2384 -0.1891
 8670TIP3    H150205   0.595   2.632   6.519 -0.7468 -0.0529  0.0054
 8670TIP3    H250206   0.686   2.608   6.638  0.1308  1.5527 -0.3158
 8671TIP3   OH250207   2.581   5.567   6.559  0.2543 -0.3834 -0.4746
 8671TIP3    H150208   2.531   5.630   6.612 -1.1943 -1.1669 -0.8575
 8671TIP3    H250209   2.636   5.621   6.504  0.7822  0.4863  0.8463
 8672TIP3   OH250210   2.718   0.951   7.419 -0.1104 -0.3220  0.2693
 8672TIP3    H150211   2.810   0.973   7.408 -0.0018 -0.7424  0.3034
 8672TIP3    H250212   2.672   1.004   7.353 -0.0195  1.0647  1.2928
 8673TIP3   OH250213   3.274   6.426   7.213 -0.2679  0.6452 -0.2040
 8673TIP3    H150214   3.308   6.401   7.127 -0.6825 -1.5056  0.1922
 8673TIP3    H250215   3.194   6.475   7.193 -0.1155  0.5745 -1.0500
 8674TIP3   OH250216   3.089   3.556   8.318  0.1262  0.1153  0.5699
 8674TIP3    H150217   3.100   3.499   8.394 -0.6729 -1.9228 -0.7825
 8674TIP3    H250218   3.002   3.536   8.285 -0.7938  3.1862  0.8129
 8675TIP3   OH250219   6.323   5.438   7.091 -0.0200  0.3811 -0.3577
 8675TIP3    H150220   6.361   5.396   7.014  0.5785 -1.3112  0.8097
 8675TIP3    H250221   6.325   5.532   7.071  2.9349  0.2300 -1.1951
 8676TIP3   OH250222   0.675   6.607   8.045 -0.1032 -0.0222 -0.0230
 8676TIP3    H150223   0.654   6.518   8.016 -0.5648  0.6216 -1.7775
 8676TIP3    H250224   0.753   6.596   8.100  0.3153 -1.4132 -0.8454
 8677TIP3   OH250225   6.297   5.648   6.076  0.3400 -0.0423  0.4766
 8677TIP3    H150226   6.223   5.587   6.065 -2.0144  2.3799  1.7444
 8677TIP3    H250227   6.302   5.694   5.993 -0.6089  0.7714  0.8428
 8678TIP3   OH250228   4.655   2.679   8.587 -0.0337  0.2485  0.2554
 8678TIP3    H150229   4.575   2.691   8.639 -0.2240  2.2344 -0.4192
 8678TIP3    H250230   4.698   2.604   8.627 -2.3533 -1.0713  0.4882
 8679TIP3   OH250231   6.486   4.349   7.398  0.3369 -0.3548 -0.2120
 8679TIP3    H150232   6.506   4.305   7.316 -0.0748 -1.8718  0.4656
 8679TIP3    H250233   6.488   4.279   7.464 -0.6459  0.5893  0.8645
 8680TIP3   OH250234   2.319   5.856   6.927 -0.2785  0.3845  0.0587
 8680TIP3    H150235   2.324   5.852   6.831 -1.1025  0.1292  0.0208
 8680TIP3    H250236   2.240   5.906   6.945 -0.3140  0.1320  0.6124
 8681TIP3   OH250237   4.040   5.861   8.630  0.3557  0.0805  0.2452
 8681TIP3    H150238   4.104   5.932   8.625  2.9156 -2.1433 -0.4254
 8681TIP3    H250239   4.015   5.859   8.722  0.0243  1.9638  0.2432
 8682TIP3   OH250240   2.630   5.615   6.891  0.0138 -0.0942  0.2154
 8682TIP3    H150241   2.551   5.647   6.848  0.7917  1.1054 -0.3661
 8682TIP3    H250242   2.600   5.588   6.978 -1.3559 -1.4103 -0.6133
 8683TIP3   OH250243   3.523   3.952   5.736  0.5536 -0.3002 -0.4967
 8683TIP3    H150244   3.534   3.887   5.667 -0.6399 -0.4532 -0.5661
 8683TIP3    H250245   3.466   4.019   5.698 -1.0617 -0.9463  0.6727
 8684TIP3   OH250246   4.702   2.746   6.316  0.2841  0.0826  0.1044
 8684TIP3    H150247   4.632   2.794   6.359 -0.2389 -0.4164 -0.1766
 8684TIP3    H250248   4.778   2.757   6.374 -0.2629 -0.1224  0.8829
 8685TIP3   OH250249   2.796   0.578   6.697  0.3120  0.0697  0.1301
 8685TIP3    H150250   2.827   0.643   6.760 -1.5698  2.7098 -1.4348
 8685TIP3    H250251   2.718   0.541   6.737  0.0569  0.5395  0.0818
 8686TIP3   OH250252   2.095   4.498   5.662 -0.3300 -0.0901 -0.1102
 8686TIP3    H150253   2.102   4.593   5.676  0.2815  0.1705 -1.8683
 8686TIP3    H250254   2.182   4.464   5.684 -0.1981 -0.0631 -0.5715
 8687TIP3   OH250255   4.889   1.052   7.041 -0.1019 -0.0316 -0.8156
 8687TIP3    H150256   4.849   1.130   7.004 -0.7540  0.0508  0.0161
 8687TIP3    H250257   4.893   1.069   7.135  0.2895 -0.7592 -0.6867
 8688TIP3   OH250258   6.416   3.196   8.048  0.0376  0.1128  0.0319
 8688TIP3    H150259   6.372   3.219   8.130 -1.9087  0.3861 -1.0195
 8688TIP3    H250260   6.366   3.121   8.015  1.0602 -0.2646 -0.7099
 8689TIP3   OH250261   2.424   0.939   6.875  0.5261 -0.3845 -0.0273
 8689TIP3    H150262   2.485   0.893   6.817  0.9346  0.2639 -0.1188
 8689TIP3    H250263   2.415   0.881   6.951 -0.9435 -1.8158 -1.2301
 8690TIP3   OH250264   0.644   0.609   6.184 -0.3873  0.0077  1.1295
 8690TIP3    H150265   0.690   0.677   6.136 -0.8604 -0.1618  0.4118
 8690TIP3    H250266   0.617   0.546   6.117 -0.2613 -0.7143  1.7333
 8691TIP3   OH250267   1.937   6.693   8.214 -0.5136 -0.3617 -0.0102
 8691TIP3    H150268   1.955   6.605   8.247  0.7273 -0.1748 -0.1286
 8691TIP3    H250269   1.934   6.747   8.293  2.5424  0.1000 -0.0546
 8692TIP3   OH250270   6.133   3.878   6.300 -0.2076 -0.0909  0.1944
 8692TIP3    H150271   6.124   3.783   6.288  1.8398 -0.6323  2.1769
 8692TIP3    H250272   6.059   3.903   6.355 -0.0114 -0.8273  0.8119
 8693TIP3   OH250273   2.931   2.799   8.039  0.0217  0.4276  0.0842
 8693TIP3    H150274   2.933   2.891   8.014  0.4934  0.0348 -1.4490
 8693TIP3    H250275   2.981   2.755   7.970  0.9108 -0.8221  1.4800
 8694TIP3   OH250276   5.684   5.715   9.457 -0.8664  0.2871 -0.2715
 8694TIP3    H150277   5.642   5.667   9.528  0.0137  0.5077  0.4215
 8694TIP3    H250278   5.772   5.677   9.451 -0.6313  0.8698 -0.6394
 8695TIP3   OH250279   6.270   5.726   7.413  0.3335  0.4117 -0.5245
 8695TIP3    H150280   6.233   5.659   7.470 -0.4456 -1.0832 -2.6477
 8695TIP3    H250281   6.261   5.808   7.462  0.7246 -0.9137  1.8833
 8696TIP3   OH250282   1.895   5.010   5.774 -0.2887  0.2090  0.1205
 8696TIP3    H150283   1.905   5.102   5.751 -1.5222  0.2255 -0.4247
 8696TIP3    H250284   1.979   4.970   5.751  0.5195  1.3126  1.0375
 8697TIP3   OH250285   0.706   5.166   5.601 -0.5816  0.6575  0.0349
 8697TIP3    H150286   0.761   5.188   5.676 -1.3233  0.5892  0.6054
 8697TIP3    H250287   0.768   5.138   5.534  0.0382 -0.3123  0.9722
 8698TIP3   OH250288   4.832   0.119   5.726 -0.1876 -0.0375 -0.0473
 8698TIP3    H150289   4.866   0.073   5.803  1.5977 -0.6136 -1.1081
 8698TIP3    H250290   4.891   0.193   5.714 -0.6148  0.2115 -0.6902
 8699TIP3   OH250291   3.677   0.621   6.212  0.0406 -0.2874 -0.0616
 8699TIP3    H150292   3.772   0.611   6.212  0.0991  0.2549 -0.8528
 8699TIP3    H250293   3.651   0.608   6.121 -0.6675 -0.5858  0.1727
 8700TIP3   OH250294   3.959   2.555   6.952  0.0043 -0.2445  0.1771
 8700TIP3    H150295   4.025   2.605   7.000  0.0905  1.0439 -1.2196
 8700TIP3    H250296   3.897   2.527   7.019 -0.8922  3.0533  0.9087
 8701TIP3   OH250297   2.085   4.516   5.136 -0.2792 -0.5384 -0.5848
 8701TIP3    H150298   2.026   4.522   5.061 -0.9092  0.8230 -0.0018
 8701TIP3    H250299   2.041   4.456   5.197 -1.2400  0.7153 -0.0162
 8702TIP3   OH250300   2.488   1.051   7.252 -0.0013  0.7772 -0.3028
 8702TIP3    H150301   2.571   1.050   7.205  1.0188 -0.0920  1.4036
 8702TIP3    H250302   2.439   0.977   7.216  1.2386 -0.6079  0.7199
 8703TIP3   OH250303   5.147   2.338   6.699 -0.0866  0.2063 -0.6172
 8703TIP3    H150304   5.202   2.416   6.691  0.4616 -0.1243 -0.1714
 8703TIP3    H250305   5.209   2.266   6.711 -0.5810 -0.3156 -1.1220
 8704TIP3   OH250306   3.029   1.978   6.325  0.1445 -0.2664  0.5537
 8704TIP3    H150307   3.056   1.947   6.412 -0.1227  0.0885  0.7664
 8704TIP3    H250308   2.955   2.036   6.342 -1.5734 -2.1360 -0.0989
 8705TIP3   OH250309   1.054   1.599   7.637  0.0212  0.0343  0.2381
 8705TIP3    H150310   1.072   1.550   7.717  1.4542  1.2443  0.6975
 8705TIP3    H250311   0.958   1.607   7.634 -0.3128 -3.0316 -0.0586
 8706TIP3   OH250312   1.149   5.556   9.153  0.3719  0.1621 -0.3186
 8706TIP3    H150313   1.140   5.481   9.212 -0.7908  1.0128  0.6449
 8706TIP3    H250314   1.243   5.574   9.151  0.6828 -1.3527 -0.6449
 8707TIP3   OH250315   2.775   0.193   6.812 -0.4227  0.3164 -0.1654
 8707TIP3    H150316   2.859   0.240   6.806  2.2081 -3.5138  2.3315
 8707TIP3    H250317   2.741   0.215   6.898 -1.7236  1.2462 -0.8738
 8708TIP3   OH250318   6.058   4.778   7.443 -0.4100  0.2250  0.0840
 8708TIP3    H150319   5.985   4.783   7.380  0.2232 -0.6935 -0.7431
 8708TIP3    H250320   6.091   4.689   7.434 -0.3620  0.0355  1.8129
 8709TIP3   OH250321   1.132   3.014   6.906 -0.5945  0.3241  0.1638
 8709TIP3    H150322   1.088   2.932   6.886 -2.6081  1.2617  0.4925
 8709TIP3    H250323   1.225   2.993   6.901 -1.0298 -1.5599 -1.4321
 8710TIP3   OH250324   3.556   5.727   7.547 -0.2117  0.0775  0.2735
 8710TIP3    H150325   3.572   5.646   7.595  0.9699  0.0989 -0.0502
 8710TIP3    H250326   3.544   5.794   7.615  1.5607  0.1335  0.5743
 8711TIP3   OH250327   3.035   4.468   8.156  0.0069 -0.2757 -0.1273
 8711TIP3    H150328   2.967   4.486   8.091 -0.1350  4.2298  0.9235
 8711TIP3    H250329   2.986   4.445   8.235 -0.6150  3.5338  0.7948
 8712TIP3   OH250330   1.175   0.294   8.313 -0.0588 -0.1310  0.7664
 8712TIP3    H150331   1.205   0.380   8.285  0.6411 -0.7100 -0.3390
 8712TIP3    H250332   1.246   0.260   8.368  0.5521 -0.7522 -0.3561
 8713TIP3   OH250333   1.131   6.422   9.120 -0.2023 -0.2121 -0.2940
 8713TIP3    H150334   1.047   6.421   9.075 -1.1229 -1.1527  1.3397
 8713TIP3    H250335   1.111   6.454   9.208  1.7314  2.8498 -0.7941
 8714TIP3   OH250336   1.984   5.282   5.397 -0.1952  0.1260  0.1289
 8714TIP3    H150337   1.912   5.296   5.336 -1.3505  0.1160  1.4222
 8714TIP3    H250338   1.943   5.287   5.484  1.3683  0.1239  0.9111
 8715TIP3   OH250339   6.002   3.634   6.352  0.4776 -0.3613 -0.2214
 8715TIP3    H150340   6.069   3.588   6.301 -0.1295  0.0745 -1.4466
 8715TIP3    H250341   5.979   3.573   6.422  0.6256 -1.3984 -1.0524
 8716TIP3   OH250342   1.381   5.096   6.392  0.6706  0.0888  0.3916
 8716TIP3    H150343   1.354   5.006   6.412  0.3458  0.0328 -0.2705
 8716TIP3    H250344   1.415   5.129   6.475  0.5951 -0.5728  0.6991
 8717TIP3   OH250345   2.055   1.248   7.514  0.3216 -0.6099  0.4724
 8717TIP3    H150346   2.087   1.237   7.425 -0.2355  0.3831  0.1416
 8717TIP3    H250347   2.091   1.173   7.562 -0.1133 -1.6403 -0.7851
 8718TIP3   OH250348   3.873   5.097   6.766  0.3252  0.0808 -0.0978
 8718TIP3    H150349   3.806   5.131   6.825 -0.9947 -0.5042 -1.2229
 8718TIP3    H250350   3.852   5.005   6.756  1.2341 -0.0830 -0.5778
 8719TIP3   OH250351   3.806   6.635   6.050  0.2545 -0.1445 -0.4835
 8719TIP3    H150352   3.824   6.548   6.015  1.4106 -0.1129 -0.0266
 8719TIP3    H250353   3.845   6.695   5.986 -1.4933  0.1185 -1.3679
 8720TIP3   OH250354   6.427   3.660   5.849 -0.0312  0.6400 -0.3057
 8720TIP3    H150355   6.444   3.754   5.854 -0.7176  0.8137 -1.0023
 8720TIP3    H250356   6.336   3.650   5.877  0.2006  0.1088  0.2914
 8721TIP3   OH250357   2.941   1.557   8.665 -0.2147 -0.7152 -0.0762
 8721TIP3    H150358   2.962   1.464   8.674 -1.0577 -1.0441 -1.3399
 8721TIP3    H250359   2.916   1.584   8.754 -0.6191 -1.8563  0.1767
 8722TIP3   OH250360   1.772   4.426   8.102 -0.1887 -0.7372  0.3976
 8722TIP3    H150361   1.729   4.479   8.035  1.8795  1.4763  0.7016
 8722TIP3    H250362   1.826   4.488   8.151 -0.2805 -2.5721  3.0467
 8723TIP3   OH250363   1.415   2.761   8.058  0.6885  0.0610 -0.2070
 8723TIP3    H150364   1.479   2.784   8.125  0.7154  3.3279 -1.1674
 8723TIP3    H250365   1.466   2.720   7.988  0.9514 -1.5368  0.8718
 8724TIP3   OH250366   2.532   4.183   8.560 -0.0820  0.4321  0.4075
 8724TIP3    H150367   2.559   4.268   8.523  0.9444 -1.0649 -2.6099
 8724TIP3    H250368   2.606   4.125   8.543 -0.8058 -1.1475  2.3063
 8725TIP3   OH250369   6.634   0.921   7.398 -0.1050 -0.6693 -0.2702
 8725TIP3    H150370   6.668   0.832   7.394  0.4868 -0.3900 -1.7395
 8725TIP3    H250371   6.566   0.923   7.331 -1.2249 -0.4522  0.8387
 8726TIP3   OH250372   1.091   3.654   8.454 -0.2884 -0.3267 -0.6647
 8726TIP3    H150373   1.186   3.654   8.445 -0.2540 -0.9702 -0.3627
 8726TIP3    H250374   1.060   3.617   8.371 -0.3140  0.5708 -1.0618
 8727TIP3   OH250375   6.507   6.528   7.107 -0.1166 -0.4859  0.0840
 8727TIP3    H150376   6.433   6.512   7.049 -0.5888  2.6227 -0.3358
 8727TIP3    H250377   6.529   6.442   7.143 -2.5873 -1.8085 -1.3546
 8728TIP3   OH250378   1.891   0.070   8.445 -0.7686 -0.3043  0.6811
 8728TIP3    H150379   1.911   0.001   8.509  1.7533 -0.1062  0.1896
 8728TIP3    H250380   1.897   0.151   8.494  0.5297 -0.1978  0.3964
 8729TIP3   OH250381   3.411   2.602   6.634 -0.9547  0.0256  0.1799
 8729TIP3    H150382   3.357   2.631   6.707 -1.4338  2.0878 -0.9226
 8729TIP3    H250383   3.358   2.535   6.590 -2.3830  1.5095 -0.4637
 8730TIP3   OH250384   5.552   4.303   7.817  0.1317  0.4688 -0.7222
 8730TIP3    H150385   5.632   4.255   7.841 -0.6412 -1.5266 -1.8837
 8730TIP3    H250386   5.542   4.368   7.886  2.9046  0.9949 -0.6724
 8731TIP3   OH250387   2.761   1.910   7.594 -0.3177  0.0769  0.5430
 8731TIP3    H150388   2.810   1.893   7.513  0.0702  1.1130  0.5450
 8731TIP3    H250389   2.743   1.823   7.629  0.3841 -0.3639 -0.1393
 8732TIP3   OH250390   5.394   0.027   6.890 -0.5104  0.2100  0.0977
 8732TIP3    H150391   5.471   0.063   6.847  1.0405 -1.7922  1.0161
 8732TIP3    H250392   5.327   0.027   6.822  0.0117  2.7048 -0.5136
 8733TIP3   OH250393   5.070   3.642   5.801  0.6097  0.5033 -0.3613
 8733TIP3    H150394   5.131   3.571   5.821 -0.3109 -0.2274 -0.0814
 8733TIP3    H250395   5.081   3.704   5.872 -0.3136 -0.5390  0.7345
 8734TIP3   OH250396   2.864   2.221   7.057  0.0211 -0.2892  0.2978
 8734TIP3    H150397   2.861   2.308   7.018  0.5774 -0.1063  0.6569
 8734TIP3    H250398   2.774   2.188   7.049 -0.4390  0.7153  1.0642
 8735TIP3   OH250399   6.689   0.461   7.047 -0.0983 -0.7078  0.2395
 8735TIP3    H150400   6.679   0.550   7.082  1.2413 -0.6616  0.5520
 8735TIP3    H250401   6.771   0.429   7.085 -1.2492 -2.6430  1.2805
 8736TIP3   OH250402   5.662   0.792   7.888  0.6630 -0.2585  0.5744
 8736TIP3    H150403   5.659   0.705   7.849 -0.3730  0.4038 -0.9439
 8736TIP3    H250404   5.681   0.777   7.980  0.2049 -2.1005  0.4021
 8737TIP3   OH250405   0.705   0.964   7.562 -0.0994  0.6040 -0.0003
 8737TIP3    H150406   0.769   0.915   7.615 -0.9610  0.5218  1.0036
 8737TIP3    H250407   0.738   0.959   7.473  0.2152 -1.1907  0.1936
 8738TIP3   OH250408   6.351   4.875   7.276  0.4999 -0.1169  0.1447
 8738TIP3    H150409   6.351   4.946   7.340 -0.4363 -2.5118  3.0236
 8738TIP3    H250410   6.263   4.878   7.238  0.4089  0.1407  0.3698
 8739TIP3   OH250411   3.138   6.493   6.892 -0.4313  0.0619 -0.3255
 8739TIP3    H150412   3.171   6.524   6.807  1.4762 -0.9849 -0.0293
 8739TIP3    H250413   3.216   6.481   6.945 -1.5008 -0.4755  1.1973
 8740TIP3   OH250414   3.603   3.969   9.230  0.3940  0.0910  1.2123
 8740TIP3    H150415   3.698   3.969   9.226  0.3947  1.6167  0.4350
 8740TIP3    H250416   3.577   4.050   9.186 -1.3606 -1.5096 -0.9216
 8741TIP3   OH250417   3.219   5.334   6.202  0.0988  0.3934 -0.5534
 8741TIP3    H150418   3.206   5.321   6.296 -1.8472  1.7546 -0.5595
 8741TIP3    H250419   3.166   5.265   6.161  0.2739  0.3127 -0.6434
 8742TIP3   OH250420   3.857   0.032   5.823 -0.4684 -0.7068 -0.0113
 8742TIP3    H150421   3.939  -0.011   5.799 -0.5201 -1.9438  1.8424
 8742TIP3    H250422   3.820   0.062   5.740  1.2023 -1.2954 -1.0125
 8743TIP3   OH250423   4.910   2.603   6.552 -0.0858 -0.3028 -0.9507
 8743TIP3    H150424   4.877   2.517   6.576  0.5454  0.1473  1.9984
 8743TIP3    H250425   4.838   2.663   6.570  0.1816 -0.0039 -0.8469
 8744TIP3   OH250426   0.977   4.486   8.327 -0.0986 -0.1255  0.8702
 8744TIP3    H150427   1.065   4.519   8.309  0.1042 -0.6976  0.8187
 8744TIP3    H250428   0.927   4.508   8.248  0.5223 -1.6664 -0.0012
 8745TIP3   OH250429   4.430   1.391   7.281  0.5219 -0.3184 -0.1655
 8745TIP3    H150430   4.456   1.379   7.190 -1.1569  1.0338 -0.8842
 8745TIP3    H250431   4.498   1.346   7.332  2.5933  0.5563 -1.9807
 8746TIP3   OH250432   3.759   3.683   5.988  0.5894 -0.1835 -0.1371
 8746TIP3    H150433   3.748   3.592   6.016  1.1563 -0.4378 -0.7331
 8746TIP3    H250434   3.841   3.711   6.027 -0.3018  0.5780  1.3087
 8747TIP3   OH250435   6.670   3.607   6.345 -0.3033 -0.2789 -0.2723
 8747TIP3    H150436   6.636   3.535   6.292  0.3964  0.2594 -1.4968
 8747TIP3    H250437   6.622   3.684   6.313 -0.5718 -0.0936  0.5637
 8748TIP3   OH250438   0.484   6.356   8.203 -0.3365 -0.3955 -0.3008
 8748TIP3    H150439   0.402   6.312   8.180 -0.6534  0.3821 -0.7020
 8748TIP3    H250440   0.533   6.360   8.122  0.8103 -2.2640  0.2516
 8749TIP3   OH250441   6.443   4.746   6.148  0.2377 -0.3553 -0.0117
 8749TIP3    H150442   6.447   4.724   6.054  0.6910 -0.3629  0.0090
 8749TIP3    H250443   6.411   4.666   6.189  0.6797 -0.5702 -0.0835
 8750TIP3   OH250444   3.403   0.727   6.599  0.3857 -0.6393 -0.0345
 8750TIP3    H150445   3.443   0.657   6.547 -2.5274 -1.2857 -1.6044
 8750TIP3    H250446   3.437   0.808   6.560 -0.4688 -1.1391 -1.9459
 8751TIP3   OH250447   3.020   6.676   7.824  0.0033  0.2713 -0.3316
 8751TIP3    H150448   2.965   6.704   7.897  0.3288 -2.6928  1.2204
 8751TIP3    H250449   3.109   6.679   7.860  0.0572 -2.4559 -0.0397
 8752TIP3   OH250450   0.813   4.938   5.920  0.1656  0.3964  0.2131
 8752TIP3    H150451   0.828   4.868   5.984 -0.2100  0.5001  0.4165
 8752TIP3    H250452   0.730   4.914   5.878  0.1385  0.6128  0.1431
 8753TIP3   OH250453   2.980   2.463   7.671  0.0631 -1.0260  0.6942
 8753TIP3    H150454   2.937   2.411   7.739 -0.7416  0.4673  1.3801
 8753TIP3    H250455   2.956   2.420   7.589 -1.0337 -1.4220  1.2030
 8754TIP3   OH250456   0.193   4.132   8.669  0.5702 -0.6497 -0.2027
 8754TIP3    H150457   0.177   4.050   8.717  0.9388  0.9767  2.9209
 8754TIP3    H250458   0.110   4.180   8.675  1.1192  0.2566  0.1892
 8755TIP3   OH250459   1.729   5.028   7.499  0.1882  0.1490 -0.3264
 8755TIP3    H150460   1.819   5.049   7.523  0.7130 -0.5495 -1.5772
 8755TIP3    H250461   1.709   5.088   7.427 -0.0538 -0.2557 -0.5980
 8756TIP3   OH250462   6.447   1.752   7.701  0.3951  0.5128  0.1301
 8756TIP3    H150463   6.406   1.691   7.639 -0.4613 -0.5715  1.6826
 8756TIP3    H250464   6.534   1.714   7.717 -0.1605 -0.3922  1.1454
 8757TIP3   OH250465   2.863   4.012   5.913  0.0319 -0.0016  0.4168
 8757TIP3    H150466   2.857   3.925   5.874 -1.7597  1.2501 -2.3686
 8757TIP3    H250467   2.772   4.038   5.930  0.3803  1.9183 -0.3390
 8758TIP3   OH250468   5.779   1.611   7.144 -0.1047  0.3799  0.3191
 8758TIP3    H150469   5.690   1.584   7.121  0.5845  0.2607 -2.6242
 8758TIP3    H250470   5.793   1.575   7.231 -2.5636 -0.4840  0.4408
 8759TIP3   OH250471   4.056   4.134   7.209  0.5563  0.3512 -0.0544
 8759TIP3    H150472   4.149   4.112   7.207  0.5953  0.5273 -0.2088
 8759TIP3    H250473   4.023   4.089   7.287  0.9813  1.1048  0.5923
 8760TIP3   OH250474   5.174   6.645   6.358  0.5686  0.2889  0.0838
 8760TIP3    H150475   5.230   6.615   6.430  0.1396 -1.1322 -0.1568
 8760TIP3    H250476   5.155   6.567   6.307 -0.8510  0.8982 -0.3932
 8761TIP3   OH250477   0.084   0.907   6.672  0.2033  0.1629  0.2352
 8761TIP3    H150478   0.003   0.926   6.625 -0.1917 -0.6743  0.5521
 8761TIP3    H250479   0.118   0.828   6.630 -0.2177 -0.6695  1.3984
 8762TIP3   OH250480   5.099   2.679   6.750 -0.4297  0.5060 -0.3465
 8762TIP3    H150481   5.051   2.629   6.816  0.6776  0.3322  0.3579
 8762TIP3    H250482   5.056   2.658   6.667 -1.7484  0.6011  0.2892
 8763TIP3   OH250483   3.077   0.739   6.285 -0.1387 -0.4049  0.3276
 8763TIP3    H150484   2.999   0.738   6.230 -0.8293  0.1647  1.2868
 8763TIP3    H250485   3.045   0.728   6.374  0.8405  0.2530  0.7765
 8764TIP3   OH250486   1.518   2.572  16.875 -0.0199  0.1037 -0.0893
 8764TIP3    H150487   1.603   2.574  16.919  0.5606  0.6752 -1.1996
 8764TIP3    H250488   1.515   2.487  16.832 -0.6785 -0.5453  1.1602
 8765TIP3   OH250489   1.293   3.500   8.052 -0.4617  0.3179 -0.6677
 8765TIP3    H150490   1.255   3.444   7.985  0.7916 -0.2983 -0.8890
 8765TIP3    H250491   1.386   3.480   8.051 -0.3131  0.7713  0.8123
 8766TIP3   OH250492   6.493   5.741   6.946 -0.1549 -0.1567 -0.6216
 8766TIP3    H150493   6.434   5.756   6.872 -1.2452 -2.1994 -0.2304
 8766TIP3    H250494   6.438   5.750   7.024  0.4894 -0.2303 -0.1451
 8767TIP3   OH250495   0.632   5.165   6.866  0.2857  0.4460  0.4814
 8767TIP3    H150496   0.651   5.225   6.794 -0.1209 -0.1234 -0.1172
 8767TIP3    H250497   0.700   5.098   6.860 -1.1961 -1.0169 -1.0079
 8768TIP3   OH250498   2.221   1.850   7.584  0.6636 -0.2256  0.3495
 8768TIP3    H150499   2.270   1.785   7.634 -1.6462 -2.6144 -0.2722
 8768TIP3    H250500   2.205   1.808   7.499  0.0624  1.6445 -0.5139
 8769TIP3   OH250501   0.892   5.417   8.173  0.4542  0.3251  0.3260
 8769TIP3    H150502   0.872   5.511   8.183  1.1317  0.5292 -0.1907
 8769TIP3    H250503   0.925   5.391   8.259 -1.1622  0.1841  0.9369
 8770TIP3   OH250504   2.748   2.662   8.391  0.0445 -0.2927 -0.6415
 8770TIP3    H150505   2.750   2.677   8.486 -1.3818  1.3561 -0.8260
 8770TIP3    H250506   2.840   2.665   8.365  0.3422  2.7827  0.2653
 8771TIP3   OH250507   2.200   2.991   6.392  0.2278  0.1276  0.6140
 8771TIP3    H150508   2.151   3.000   6.473  1.4073 -0.2900  1.3932
 8771TIP3    H250509   2.229   2.899   6.391  1.0695  0.3853  0.2195
 8772TIP3   OH250510   6.740   6.102   7.945 -0.0447  0.1438 -0.3385
 8772TIP3    H150511   6.827   6.062   7.935  0.2021  0.6805 -0.3577
 8772TIP3    H250512   6.706   6.065   8.026  1.1674  1.6583  0.9320
 8773TIP3   OH250513   2.203   5.437   7.579  0.2763  1.0104  0.2665
 8773TIP3    H150514   2.214   5.416   7.671  0.4964 -1.4240 -0.2537
 8773TIP3    H250515   2.281   5.401   7.536 -0.3952  1.0387 -1.0248
 8774TIP3   OH250516   2.629   5.761   9.242  0.0150 -0.1430 -0.1075
 8774TIP3    H150517   2.558   5.822   9.223  0.5859  0.0951 -1.6927
 8774TIP3    H250518   2.621   5.742   9.335 -1.1748  1.0792  0.0719
 8775TIP3   OH250519   2.269   6.226   6.179  0.3072 -0.1121  0.2870
 8775TIP3    H150520   2.273   6.321   6.167 -1.5139  0.1819  1.6537
 8775TIP3    H250521   2.328   6.191   6.111  0.0521  1.9079 -1.0631
 8776TIP3   OH250522   0.716   5.031  14.406 -0.0495  0.3845  0.2391
 8776TIP3    H150523   0.789   4.973  14.427  0.8784  2.3181  2.9097
 8776TIP3    H250524   0.756   5.118  14.397 -1.7829  1.1751 -0.2276
 8777TIP3   OH250525   4.599   2.559   5.971 -0.1977 -0.0528  0.8243
 8777TIP3    H150526   4.637   2.517   6.048 -0.4773  0.2781  1.1447
 8777TIP3    H250527   4.614   2.497   5.900 -0.0784 -0.4288  1.1755
 8778TIP3   OH250528   3.186   4.471   6.383  0.1597 -0.2902  0.2173
 8778TIP3    H150529   3.277   4.483   6.356 -0.1669  1.1150 -0.3281
 8778TIP3    H250530   3.176   4.526   6.460 -0.6755  0.9969 -0.7690
 8779TIP3   OH250531   6.604   4.915   8.221 -0.1398 -0.3678  0.3352
 8779TIP3    H150532   6.585   4.862   8.298  1.3111 -1.1909  0.1551
 8779TIP3    H250533   6.547   4.879   8.153 -0.6792 -0.3067  0.7425
 8780TIP3   OH250534   6.541   3.408   6.194  0.1600  0.6864  0.4597
 8780TIP3    H150535   6.620   3.354   6.200  0.1825  0.6340 -0.2431
 8780TIP3    H250536   6.471   3.353   6.229  0.4728  0.8263  1.3292
 8781TIP3   OH250537   5.804   0.817   7.145 -0.1612  0.1772  0.1854
 8781TIP3    H150538   5.899   0.812   7.131 -0.5031 -0.5462 -2.3968
 8781TIP3    H250539   5.775   0.886   7.086 -1.3279 -0.1023  0.4206
 8782TIP3   OH250540   2.600   5.146   6.386  0.2111 -0.8463 -0.1628
 8782TIP3    H150541   2.680   5.158   6.335  0.0859 -1.6839 -0.5808
 8782TIP3    H250542   2.542   5.216   6.359 -0.0047 -1.5058 -1.4903
 8783TIP3   OH250543   3.299   3.367   6.090  0.1905  0.6116  0.3601
 8783TIP3    H150544   3.234   3.437   6.099  0.6589  1.1991 -0.6219
 8783TIP3    H250545   3.275   3.303   6.157 -1.6419  0.6111 -0.2389
 8784TIP3   OH250546   3.111   6.506   6.230  0.3380  0.6525 -0.0432
 8784TIP3    H150547   3.038   6.446   6.215  1.3763 -0.8303  0.5820
 8784TIP3    H250548   3.133   6.538   6.142  0.6269 -0.9742 -0.6115
 8785TIP3   OH250549   5.406   3.157   6.541  0.4701 -0.5206 -0.4215
 8785TIP3    H150550   5.318   3.126   6.565  0.1312 -0.4857 -1.5724
 8785TIP3    H250551   5.418   3.128   6.451  1.1871  0.4798 -0.6580
 8786TIP3   OH250552   2.871   1.722   6.641  1.0205 -0.2431 -0.1893
 8786TIP3    H150553   2.783   1.744   6.671  0.2585 -2.2139 -0.8669
 8786TIP3    H250554   2.912   1.807   6.623 -0.9932  0.6803 -0.6190
 8787TIP3   OH250555   3.094   6.697   6.478 -0.3926  0.2527  0.0888
 8787TIP3    H150556   3.042   6.625   6.442 -1.2210  1.2807 -0.8320
 8787TIP3    H250557   3.165   6.709   6.416 -0.4117  0.4043  0.0963
 8788TIP3   OH250558   2.937   2.381   7.393  0.5537 -0.3569  0.4550
 8788TIP3    H150559   2.989   2.334   7.328  0.8474  1.1181 -0.4223
 8788TIP3    H250560   2.850   2.343   7.386  0.5478 -0.1487 -0.9195
 8789TIP3   OH250561   1.078   6.260   5.473 -0.5884  0.1374 -0.0396
 8789TIP3    H150562   1.136   6.328   5.508  2.9393 -1.8199 -1.5332
 8789TIP3    H250563   1.072   6.279   5.380  0.8953 -1.7060 -0.5871
 8790TIP3   OH250564   4.145   3.126   9.095 -0.0542 -0.1734  0.5591
 8790TIP3    H150565   4.195   3.045   9.081  0.1093 -0.6978  3.4905
 8790TIP3    H250566   4.055   3.097   9.110 -0.3282  0.3490 -0.0465
 8791TIP3   OH250567   5.682   4.262   7.161  0.3242 -0.0430  0.8583
 8791TIP3    H150568   5.773   4.249   7.190  0.5967 -0.2105 -0.0137
 8791TIP3    H250569   5.647   4.173   7.154  1.0570 -0.2208 -1.6608
 8792TIP3   OH250570   4.178   4.650   6.040 -0.1303 -0.0327 -0.0407
 8792TIP3    H150571   4.191   4.739   6.007 -0.8545 -0.6043 -1.9889
 8792TIP3    H250572   4.148   4.600   5.964 -0.9420 -1.6729  1.2865
 8793TIP3   OH250573   1.114   5.562   6.014  0.1927 -0.6222  0.0157
 8793TIP3    H150574   1.188   5.606   6.055  1.1366 -1.2343 -0.9527
 8793TIP3    H250575   1.142   5.550   5.923 -1.0088 -1.0777 -0.3070
 8794TIP3   OH250576   5.617   1.641   8.412 -0.3380  0.4556  0.4603
 8794TIP3    H150577   5.605   1.636   8.317 -1.0756  1.2060  0.5079
 8794TIP3    H250578   5.571   1.721   8.438 -1.1693 -0.3643  1.6127
 8795TIP3   OH250579   5.237   5.905   6.324 -0.4735  0.3876  0.0093
 8795TIP3    H150580   5.315   5.929   6.375  1.6514 -2.7107 -1.4465
 8795TIP3    H250581   5.190   5.844   6.381  0.7860 -1.4214 -0.7776
 8796TIP3   OH250582   2.120   3.886   5.584 -0.0577 -0.0529  0.5138
 8796TIP3    H150583   2.173   3.957   5.620 -1.9275  1.0182  1.3385
 8796TIP3    H250584   2.126   3.896   5.489  0.4499  0.6226  0.6129
 8797TIP3   OH250585   0.208   2.377   7.457 -0.1558 -0.2301  0.3094
 8797TIP3    H150586   0.234   2.358   7.367  2.2186  2.0912  0.3847
 8797TIP3    H250587   0.128   2.429   7.448  0.3062  0.3652 -0.5138
 8798TIP3   OH250588   2.521   4.921   7.551 -0.0850  0.0507  0.4802
 8798TIP3    H150589   2.526   4.907   7.456 -1.4906  0.4671  0.3164
 8798TIP3    H250590   2.607   4.896   7.584  0.7009  0.6620 -1.0117
 8799TIP3   OH250591   5.967   5.624   9.184  0.0303  1.1113 -0.7208
 8799TIP3    H150592   6.034   5.692   9.193 -1.6667  2.9952 -1.4998
 8799TIP3    H250593   5.938   5.608   9.274  0.3211  1.5666 -0.5383
 8800TIP3   OH250594   0.902   3.447   6.479  0.2911 -0.8290 -0.1788
 8800TIP3    H150595   0.960   3.376   6.450  0.5027 -1.8585  2.4953
 8800TIP3    H250596   0.817   3.405   6.492 -0.4634  0.1503 -1.6784
 8801TIP3   OH250597   3.041   1.672   7.458 -0.4514  0.6008  0.1128
 8801TIP3    H150598   2.979   1.615   7.414 -0.6185 -0.5784  1.7499
 8801TIP3    H250599   3.067   1.736   7.392 -3.0638  0.8879 -0.7421
 8802TIP3   OH250600   5.910   1.720   6.714 -0.1419 -0.0676 -0.2555
 8802TIP3    H150601   6.003   1.739   6.719 -0.0270 -0.8279  0.8008
 8802TIP3    H250602   5.870   1.771   6.785 -0.4016 -0.4418 -0.1267
 8803TIP3   OH250603   6.295   0.135   6.347 -0.1359 -0.5160 -0.0693
 8803TIP3    H150604   6.285   0.147   6.253 -0.1392 -0.5460 -0.0727
 8803TIP3    H250605   6.367   0.073   6.357  1.3135  1.0803 -0.0018
 8804TIP3   OH250606   2.959   2.974   6.404 -0.0166 -1.1116 -0.0427
 8804TIP3    H150607   2.954   2.897   6.348  1.7993 -0.9525 -0.4621
 8804TIP3    H250608   3.036   2.959   6.460  1.1833  0.9421 -1.0330
 8805TIP3   OH250609   3.577   6.288   8.783  0.4439 -0.1388  0.3739
 8805TIP3    H150610   3.646   6.302   8.719  0.2065  0.6570  0.2768
 8805TIP3    H250611   3.500   6.267   8.731  0.2156  0.6512  0.3723
 8806TIP3   OH250612   3.828   4.740   7.531 -0.2919  0.3208 -0.1512
 8806TIP3    H150613   3.833   4.775   7.442 -1.4434 -0.5226 -0.5790
 8806TIP3    H250614   3.749   4.686   7.531  0.7455 -1.2799  0.8096
 8807TIP3   OH250615   2.154   0.372   5.627 -0.3920  0.5445 -0.0013
 8807TIP3    H150616   2.148   0.467   5.619 -0.4955  0.5489  0.1318
 8807TIP3    H250617   2.225   0.358   5.690  0.8219  0.4988 -1.3387
 8808TIP3   OH250618   6.665   4.454   6.066  0.3384 -0.6250 -0.2290
 8808TIP3    H150619   6.586   4.402   6.056  0.3668 -1.0509  1.4152
 8808TIP3    H250620   6.698   4.431   6.153  1.8306  0.1408 -0.5585
 8809TIP3   OH250621   4.691   0.060   6.885  0.5057  0.3710 -0.1117
 8809TIP3    H150622   4.612   0.020   6.848 -0.7533  0.6301  2.1044
 8809TIP3    H250623   4.737   0.096   6.810 -0.1430 -2.0448 -1.7958
 8810TIP3   OH250624   6.382   6.711   7.977  0.3696  0.2580  0.2906
 8810TIP3    H150625   6.420   6.762   8.049  4.5028 -1.9330 -0.0119
 8810TIP3    H250626   6.377   6.622   8.011 -0.5113 -0.2783 -1.1705
 8811TIP3   OH250627   3.153   2.114   8.819 -0.3415  0.5753 -0.1761
 8811TIP3    H150628   3.135   2.180   8.886  0.3628  0.6307 -0.0407
 8811TIP3    H250629   3.246   2.121   8.802  0.6834 -2.9631  2.6226
 8812TIP3   OH250630   1.199   3.637   6.188 -0.4173 -0.3868 -0.0939
 8812TIP3    H150631   1.221   3.692   6.112  1.4141 -0.7286  0.1511
 8812TIP3    H250632   1.152   3.696   6.247 -1.0204  0.1352 -1.0510
 8813TIP3   OH250633   5.657   3.801   7.720  0.1726 -0.0857 -0.3930
 8813TIP3    H150634   5.592   3.752   7.669 -0.5627  1.6728 -1.2640
 8813TIP3    H250635   5.605   3.858   7.777  0.9962 -0.9445  1.2794
 8814TIP3   OH250636   4.184   4.722   6.371 -0.7800  0.2509 -0.8216
 8814TIP3    H150637   4.109   4.781   6.366 -0.9211  0.0797 -0.7275
 8814TIP3    H250638   4.159   4.657   6.437  0.3252  1.4756  0.8920
 8815TIP3   OH250639   0.632   3.282   5.888  0.6132 -0.1696  0.4010
 8815TIP3    H150640   0.620   3.193   5.853  0.0357 -0.4807  1.3601
 8815TIP3    H250641   0.690   3.270   5.964  2.0239  0.5262 -0.5146
 8816TIP3   OH250642   0.809   4.733   6.120  0.2692 -0.0210 -0.0995
 8816TIP3    H150643   0.839   4.643   6.107  0.8921  0.2095 -0.3276
 8816TIP3    H250644   0.725   4.725   6.165 -0.4968 -0.7674 -1.5990
 8817TIP3   OH250645   5.560   0.252   8.781 -0.1495  0.1318 -0.1519
 8817TIP3    H150646   5.589   0.312   8.849 -3.0675  1.5601 -0.0495
 8817TIP3    H250647   5.519   0.180   8.829 -1.0694  0.5150 -0.3504
 8818TIP3   OH250648   3.368   1.563   9.223 -0.0939 -0.3203 -0.1945
 8818TIP3    H150649   3.453   1.530   9.253 -1.5606 -1.5893  2.9868
 8818TIP3    H250650   3.347   1.508   9.148  2.6543  1.3241 -2.3662
 8819TIP3   OH250651   2.217   3.981   5.340 -0.0642 -0.1161  0.2184
 8819TIP3    H150652   2.306   3.958   5.366  1.1277  2.1161 -1.5913
 8819TIP3    H250653   2.208   3.948   5.251 -0.4829  0.9831 -0.1672
 8820TIP3   OH250654   4.550   2.695   7.504  0.3811 -0.3895 -0.1704
 8820TIP3    H150655   4.547   2.627   7.436  1.3088 -1.5045  0.8603
 8820TIP3    H250656   4.604   2.657   7.573  1.6053  1.7443  0.1074
 8821TIP3   OH250657   2.262   0.403   7.130 -0.7806  0.3722 -0.1537
 8821TIP3    H150658   2.192   0.353   7.090 -3.2853  2.8585  0.7898
 8821TIP3    H250659   2.276   0.361   7.215  2.0496 -2.7132 -1.8983
 8822TIP3   OH250660   6.659   2.360   7.533 -0.1635 -0.3429  0.2774
 8822TIP3    H150661   6.689   2.410   7.457 -2.6680 -2.3923 -2.3442
 8822TIP3    H250662   6.687   2.270   7.514 -1.3469 -0.9990  1.4802
 8823TIP3   OH250663   6.350   1.763   6.551  0.5230 -0.0737 -0.4000
 8823TIP3    H150664   6.411   1.690   6.543 -0.9872 -1.6641  1.3974
 8823TIP3    H250665   6.385   1.817   6.622  1.0901  0.3525 -1.0057
 8824TIP3   OH250666   2.239   5.731   7.269  0.2270  0.0185 -0.4897
 8824TIP3    H150667   2.183   5.680   7.210 -0.9409  1.9368 -1.1469
 8824TIP3    H250668   2.206   5.821   7.262  0.7672  0.5327  2.2595
 8825TIP3   OH250669   4.414   6.046   6.605 -0.3531 -0.3854 -0.2154
 8825TIP3    H150670   4.500   6.083   6.586 -0.0173 -1.7130 -1.5473
 8825TIP3    H250671   4.357   6.079   6.535 -1.3160  1.5198  1.3595
 8826TIP3   OH250672   1.201   2.190   6.617 -0.1912 -0.7804  0.5407
 8826TIP3    H150673   1.225   2.121   6.679  0.5181 -1.8595 -0.8633
 8826TIP3    H250674   1.138   2.149   6.557  0.4434 -0.3253 -0.4787
 8827TIP3   OH250675   5.054   0.507   8.472 -0.7341 -0.6030  0.5161
 8827TIP3    H150676   5.036   0.415   8.492 -1.6576 -0.3202  1.0562
 8827TIP3    H250677   4.967   0.545   8.457 -0.4687  0.4673  1.5622
 8828TIP3   OH250678   2.841   0.931   7.736 -0.0549  0.3348 -0.4923
 8828TIP3    H150679   2.747   0.925   7.720 -0.0317 -1.8607 -0.1070
 8828TIP3    H250680   2.860   1.025   7.731 -2.6547  1.1092  1.6568
 8829TIP3   OH250681   5.936   4.256   7.734  0.1335 -0.3161 -0.1408
 8829TIP3    H150682   5.881   4.197   7.682 -0.3659  0.4948 -0.5600
 8829TIP3    H250683   5.886   4.337   7.738  1.5196  0.6145 -0.9689
 8830TIP3   OH250684   2.910   0.136   6.433  0.0153 -0.5780 -0.6436
 8830TIP3    H150685   2.961   0.071   6.481 -2.5052 -2.0446  0.2453
 8830TIP3    H250686   2.917   0.110   6.341  0.8958 -0.7113 -0.5410
 8831TIP3   OH250687   6.064   5.040   7.760  0.1424 -0.0158  0.7441
 8831TIP3    H150688   6.122   5.034   7.835  3.0285  0.0974 -1.2921
 8831TIP3    H250689   6.099   4.977   7.697 -0.6639  1.4941 -1.3549
 8832TIP3   OH250690   1.858   3.170   7.992  0.4506 -0.1546  0.2358
 8832TIP3    H150691   1.855   3.127   7.906 -2.0772  0.0951  0.1289
 8832TIP3    H250692   1.937   3.136   8.033 -0.1256 -3.0006 -0.8150
 8833TIP3   OH250693   0.301   5.587   5.762  0.0633  0.0259 -0.3344
 8833TIP3    H150694   0.382   5.631   5.736 -0.1400 -0.0886 -1.1660
 8833TIP3    H250695   0.300   5.505   5.713 -0.2481 -0.2743  0.1563
 8834TIP3   OH250696   1.774   5.792   9.143 -0.2584 -0.6650  0.2673
 8834TIP3    H150697   1.820   5.853   9.201 -1.1900  0.7209 -0.3953
 8834TIP3    H250698   1.782   5.707   9.187  1.9866 -0.3000  0.6945
 8835TIP3   OH250699   1.722   1.191   6.499  0.3739 -0.2114 -0.0181
 8835TIP3    H150700   1.770   1.115   6.467  1.8459  0.3240  0.8148
 8835TIP3    H250701   1.630   1.164   6.498  0.8277 -1.8535 -0.1022
 8836TIP3   OH250702   0.416   0.083   7.439  0.2582  0.1408  0.2760
 8836TIP3    H150703   0.409   0.045   7.526 -1.7020  0.2313  0.2025
 8836TIP3    H250704   0.501   0.127   7.438 -0.5842  2.1194  2.9856
 8837TIP3   OH250705   4.339   4.001   7.496 -0.3235  0.4100 -0.3216
 8837TIP3    H150706   4.347   4.090   7.530 -1.5370  0.8184 -1.0407
 8837TIP3    H250707   4.354   4.010   7.402  0.2335 -0.2614 -0.3023
 8838TIP3   OH250708   5.064   2.778   5.649  0.3015 -0.5761  0.2990
 8838TIP3    H150709   4.986   2.833   5.637  1.0804  0.2788 -1.2427
 8838TIP3    H250710   5.046   2.700   5.597 -0.2798 -1.2455  1.4699
 8839TIP3   OH250711   6.675   1.081   6.164  0.0659 -0.2444 -0.1589
 8839TIP3    H150712   6.651   0.999   6.207 -1.0063  0.0131 -0.2325
 8839TIP3    H250713   6.610   1.091   6.094 -0.0219  0.8274  0.0618
 8840TIP3   OH250714   6.671   3.202   8.191  0.0002  0.1147  0.0104
 8840TIP3    H150715   6.617   3.166   8.121  0.6630  0.3801 -0.6547
 8840TIP3    H250716   6.704   3.126   8.238 -1.4986 -0.0307  0.8573
 8841TIP3   OH250717   1.908   2.420   8.166 -0.0005  0.0352 -0.1935
 8841TIP3    H150718   1.879   2.337   8.202 -2.5667  0.2221 -1.6221
 8841TIP3    H250719   1.946   2.398   8.081 -0.5140  0.2679 -0.4914
 8842TIP3   OH250720   3.571   0.954   6.582 -0.6178  0.6754  0.3541
 8842TIP3    H150721   3.634   0.884   6.596 -1.4711 -0.8201 -2.4253
 8842TIP3    H250722   3.625   1.030   6.559  0.2562  0.5609  1.8992
 8843TIP3   OH250723   5.757   6.399   7.070 -0.4773  0.7407 -0.5146
 8843TIP3    H150724   5.752   6.404   7.166 -2.7910 -0.3209 -0.4887
 8843TIP3    H250725   5.844   6.431   7.048  0.6773 -0.3425  2.0530
 8844TIP3   OH250726   3.502   1.526   5.909  0.0081 -0.1168  0.1267
 8844TIP3    H150727   3.550   1.484   5.838  1.3678  0.1127  0.8743
 8844TIP3    H250728   3.562   1.594   5.942 -1.3731  1.1035  0.2038
 8845TIP3   OH250729   2.110   6.304   8.382 -0.5986 -0.7139 -0.6985
 8845TIP3    H150730   2.136   6.392   8.409  1.9227 -0.7765 -2.5390
 8845TIP3    H250731   2.159   6.246   8.440  0.0943 -0.8567 -1.4069
 8846TIP3   OH250732   1.046   5.604   6.457  0.5361 -0.3138 -0.2265
 8846TIP3    H150733   1.094   5.650   6.526  0.3420  0.2952 -0.4873
 8846TIP3    H250734   0.955   5.603   6.486  0.3792  0.3457 -0.6760
 8847TIP3   OH250735   3.035   3.414   7.779 -0.1186 -0.1347  0.0356
 8847TIP3    H150736   3.099   3.424   7.849 -2.2281 -1.1992  2.2582
 8847TIP3    H250737   2.961   3.469   7.805 -0.9063 -0.4245 -1.4566
 8848TIP3   OH250738   0.397   3.674   5.908 -0.1800 -0.0004  0.7430
 8848TIP3    H150739   0.317   3.698   5.862 -1.6507  0.6555  3.4187
 8848TIP3    H250740   0.405   3.579   5.895  0.0915  0.2982 -1.6384
 8849TIP3   OH250741   0.762   1.957   7.436  0.1391  0.4743  0.0897
 8849TIP3    H150742   0.680   1.936   7.481  1.8183 -0.1890  3.1014
 8849TIP3    H250743   0.788   1.874   7.395  0.1693  0.1805  0.6825
 8850TIP3   OH250744   3.728   0.876   6.281 -0.1381  0.2923 -0.0610
 8850TIP3    H150745   3.668   0.806   6.257  1.9983 -1.4402 -0.7255
 8850TIP3    H250746   3.699   0.951   6.229 -2.2900 -0.1505  0.4139
 8851TIP3   OH250747   3.586   2.720   5.843  0.1919  0.5577  0.1507
 8851TIP3    H150748   3.640   2.753   5.915 -2.6100  1.9478  1.7815
 8851TIP3    H250749   3.576   2.794   5.784 -1.6302  1.0536  1.0040
 8852TIP3   OH250750   0.670   3.479   6.242  0.8642 -0.1027 -0.5126
 8852TIP3    H150751   0.581   3.509   6.257  0.2030 -1.2294 -1.9108
 8852TIP3    H250752   0.721   3.559   6.228 -0.0782  0.5153 -0.4837
 8853TIP3   OH250753   0.917   2.279   6.205  0.4114  0.7123 -0.4690
 8853TIP3    H150754   0.935   2.371   6.224 -0.8108  1.1000 -1.0852
 8853TIP3    H250755   0.976   2.257   6.134  0.4573  1.1256 -0.5618
 8854TIP3   OH250756   3.598   6.277   7.996 -0.2876 -0.4163  0.7664
 8854TIP3    H150757   3.535   6.231   7.941 -0.1236 -2.1851  1.9991
 8854TIP3    H250758   3.544   6.325   8.059 -0.4482  0.8345 -0.2877
 8855TIP3   OH250759   0.022   1.950   7.896  0.0239 -0.0787  0.1237
 8855TIP3    H150760   0.115   1.927   7.900 -0.1912 -0.8566  2.2014
 8855TIP3    H250761   0.021   2.038   7.858  1.7623  0.5371  1.3490
 8856TIP3   OH250762   1.455   5.205   6.655 -0.1034  0.0762  0.2165
 8856TIP3    H150763   1.472   5.184   6.747  3.6658  0.4856 -0.2302
 8856TIP3    H250764   1.450   5.300   6.652  0.2596  0.0932 -0.0206
 8857TIP3   OH250765   0.900   6.434   5.598  0.2630 -0.1339  0.2867
 8857TIP3    H150766   0.937   6.355   5.558 -0.3088  0.3174 -1.2275
 8857TIP3    H250767   0.974   6.479   5.637  0.8547 -0.6446 -0.2222
 8858TIP3   OH250768   1.430   3.967   8.823  0.4399 -0.2773 -0.6862
 8858TIP3    H150769   1.414   3.992   8.732  0.4949  1.8736 -0.1541
 8858TIP3    H250770   1.467   4.045   8.863  1.3227 -1.4832  0.9733
 8859TIP3   OH250771   3.897   3.136   6.241  0.2440  0.1776 -0.2410
 8859TIP3    H150772   3.931   3.055   6.203 -0.5031 -0.2136 -0.0960
 8859TIP3    H250773   3.968   3.166   6.299  0.2139 -0.8157  0.3438
 8860TIP3   OH250774   3.390   0.237   5.560  0.4607  0.1665 -0.8127
 8860TIP3    H150775   3.344   0.168   5.607  0.3041  1.8959  1.7858
 8860TIP3    H250776   3.322   0.281   5.508 -0.1407  0.4890  0.2289
 8861TIP3   OH250777   1.718   0.190   7.782 -0.0004 -0.4741 -0.0573
 8861TIP3    H150778   1.626   0.187   7.756  0.4295  0.0453 -1.7560
 8861TIP3    H250779   1.716   0.185   7.878 -1.8878  1.1711  0.0615
 8862TIP3   OH250780   2.106   0.631   7.374  0.5297  0.0066  0.2715
 8862TIP3    H150781   2.056   0.661   7.298  1.4889 -0.0574 -0.3894
 8862TIP3    H250782   2.071   0.544   7.392  1.9775 -1.0382 -1.6558
 8863TIP3   OH250783   3.329   6.743   6.336 -0.2297  0.5554 -0.6270
 8863TIP3    H150784   3.321   6.725   6.242 -0.6458 -0.4643 -0.4154
 8863TIP3    H250785   3.385   6.673   6.369 -0.4674  0.6335 -0.0424
 8864TIP3   OH250786   6.123   6.714   7.181 -0.2588 -0.1606  0.7699
 8864TIP3    H150787   6.214   6.735   7.203 -0.3336 -0.0951  1.0301
 8864TIP3    H250788   6.127   6.680   7.092  0.1121 -0.7973  1.0153
 8865TIP3   OH250789   3.780   3.933   7.340  0.1604 -0.4459  0.3045
 8865TIP3    H150790   3.812   3.893   7.259  2.4806 -0.7621  1.3003
 8865TIP3    H250791   3.702   3.882   7.363 -0.7971 -0.0891 -1.8859
 8866TIP3   OH250792   4.306   3.448   7.354  0.1387 -0.5676  0.3378
 8866TIP3    H150793   4.376   3.385   7.372 -0.5321 -0.8012  2.2930
 8866TIP3    H250794   4.236   3.395   7.316  0.9039 -0.3622 -1.4554
 8867TIP3   OH250795   4.996   2.376   6.192  0.1996 -0.2455 -0.0706
 8867TIP3    H150796   5.081   2.383   6.235  0.2461 -0.1344 -0.1796
 8867TIP3    H250797   4.957   2.297   6.229  0.4117 -0.3771 -0.1249
 8868TIP3   OH250798   3.320   3.587   6.757  0.5895  0.0615 -0.2276
 8868TIP3    H150799   3.369   3.515   6.798  0.8584 -0.2210 -1.0118
 8868TIP3    H250800   3.385   3.632   6.704  0.1763  0.1895 -0.6320
 8869TIP3   OH250801   4.826   5.796   7.050 -0.5735 -0.0309 -0.0430
 8869TIP3    H150802   4.756   5.735   7.027 -0.3568 -0.3835  0.2286
 8869TIP3    H250803   4.780   5.878   7.070 -0.7493  0.4337 -2.1047
 8870TIP3   OH250804   5.316   0.482   7.606  0.0525  0.0817 -0.0873
 8870TIP3    H150805   5.352   0.561   7.565  0.1318  0.8937  1.4685
 8870TIP3    H250806   5.294   0.509   7.694 -2.9895 -0.7881 -0.4828
 8871TIP3   OH250807   2.641   3.538   6.336 -0.8946 -0.4256 -0.1605
 8871TIP3    H150808   2.683   3.570   6.415 -0.1762  0.4668 -0.8825
 8871TIP3    H250809   2.713   3.502   6.283 -1.2828 -0.5270 -0.6307
 8872TIP3   OH250810   6.186   1.122   7.027  0.0086  0.0345 -0.2922
 8872TIP3    H150811   6.125   1.190   7.001 -0.7894 -0.4665  0.2336
 8872TIP3    H250812   6.241   1.164   7.094  0.4055  0.5548 -0.9347
 8873TIP3   OH250813   1.727   2.054   7.800  0.4064 -0.2140 -0.1129
 8873TIP3    H150814   1.632   2.053   7.788  0.3094 -1.0445  0.6352
 8873TIP3    H250815   1.763   2.053   7.711 -0.2854 -1.3699 -0.4010
 8874TIP3   OH250816   3.591   4.288   7.109  0.7728 -0.3853  0.1573
 8874TIP3    H150817   3.574   4.218   7.172  0.6859 -0.8420 -0.3715
 8874TIP3    H250818   3.677   4.322   7.135  2.1407 -2.5533 -1.2678
 8875TIP3   OH250819   1.505   5.211   5.702  0.1212  0.0869 -0.0663
 8875TIP3    H150820   1.416   5.176   5.714 -0.6294  0.8956 -2.7066
 8875TIP3    H250821   1.495   5.305   5.713  0.8421  0.1014  0.4961
 8876TIP3   OH250822   2.047   5.932   8.289  0.3499 -0.4990  0.0417
 8876TIP3    H150823   2.132   5.911   8.326  1.0038 -1.2508 -1.7815
 8876TIP3    H250824   2.065   6.000   8.224 -0.5374 -0.2419  0.0445
 8877TIP3   OH250825   0.118   0.396   7.871  0.1793  0.4742  0.4332
 8877TIP3    H150826   0.175   0.373   7.798 -1.5931 -2.1241 -0.2621
 8877TIP3    H250827   0.158   0.353   7.947  0.0737  0.1005  0.2788
 8878TIP3   OH250828   5.556   2.395   7.290  0.3934 -0.4650 -0.3528
 8878TIP3    H150829   5.556   2.454   7.215 -0.9858 -2.9287 -2.4402
 8878TIP3    H250830   5.508   2.443   7.358 -0.0538  1.1012 -1.7023
 8879TIP3   OH250831   2.724   3.553   8.408  0.2524 -0.2819 -0.2284
 8879TIP3    H150832   2.758   3.540   8.320  4.5367  0.2817  1.0987
 8879TIP3    H250833   2.772   3.491   8.462  0.1208  1.5231  2.1296
 8880TIP3   OH250834   4.912   6.252   6.850 -0.5203  0.4243 -0.3362
 8880TIP3    H150835   4.870   6.171   6.823 -0.0238 -0.5666  1.6832
 8880TIP3    H250836   4.840   6.311   6.873 -0.8873  0.6853 -1.9835
 8881TIP3   OH250837   2.517   2.221   6.122  0.3658  0.4636  0.5631
 8881TIP3    H150838   2.491   2.134   6.152 -0.0981  0.1452 -0.7074
 8881TIP3    H250839   2.610   2.213   6.103  0.4180  0.3652  0.8574
 8882TIP3   OH250840   4.596   6.323   6.759  0.0444 -0.4204 -0.2401
 8882TIP3    H150841   4.523   6.377   6.730  0.9984  0.5771 -0.8405
 8882TIP3    H250842   4.601   6.339   6.853  1.7642  2.4394 -0.7229
 8883TIP3   OH250843   4.891   1.437   7.209  0.2974  0.1556 -0.3810
 8883TIP3    H150844   4.945   1.513   7.188 -0.4968  0.6692 -0.5948
 8883TIP3    H250845   4.816   1.473   7.257  0.9240 -0.7295  1.3375
 8884TIP3   OH250846   4.610   5.598   7.029 -0.1604  0.2359  0.0147
 8884TIP3    H150847   4.584   5.558   7.112 -0.0658  0.7490  0.2988
 8884TIP3    H250848   4.660   5.530   6.984 -0.6557 -0.2247  0.1453
 8885TIP3   OH250849   4.213   2.277   7.139  0.5715 -0.2841 -0.9377
 8885TIP3    H150850   4.297   2.234   7.157  0.0154 -1.3364 -0.7350
 8885TIP3    H250851   4.236   2.362   7.102  1.7366  0.3545  1.0997
 8886TIP3   OH250852   0.004   4.044   5.948 -0.0677  0.2367  0.1916
 8886TIP3    H150853   0.058   4.119   5.924 -0.6089  0.2659 -0.9849
 8886TIP3    H250854  -0.021   4.060   6.039  2.5124 -0.1530  1.0411
 8887TIP3   OH250855   3.340   0.561   5.457 -0.4419 -0.4106  0.0639
 8887TIP3    H150856   3.259   0.521   5.488 -0.2030 -0.4869  0.5953
 8887TIP3    H250857   3.343   0.646   5.500 -1.0993  0.3265 -1.2901
 8888TIP3   OH250858   2.684   3.929   7.441 -0.1996  0.3521 -0.7714
 8888TIP3    H150859   2.696   4.024   7.442 -0.1650  0.4093  2.1491
 8888TIP3    H250860   2.618   3.912   7.508  0.7903 -1.7539 -0.2341
 8889TIP3   OH250861   3.514   0.610   7.208 -0.0859  0.5488 -0.3621
 8889TIP3    H150862   3.553   0.558   7.138  0.1066  2.0231 -1.3988
 8889TIP3    H250863   3.588   0.659   7.244 -0.2504  0.0618  0.6580
 8890TIP3   OH250864   4.476   2.187   8.775 -0.2035  0.2093 -0.5859
 8890TIP3    H150865   4.454   2.100   8.744  0.0063  0.6618 -2.0797
 8890TIP3    H250866   4.537   2.172   8.847  0.3753 -0.8559 -1.2747
 8891TIP3   OH250867   3.495   1.247   5.678  0.2163  0.5936 -0.3602
 8891TIP3    H150868   3.461   1.161   5.651 -0.6827  1.4904 -2.2553
 8891TIP3    H250869   3.437   1.275   5.749 -0.8840  0.5796 -1.2328
 8892TIP3   OH250870   0.947   0.109   7.507 -0.6264 -1.5076 -0.1844
 8892TIP3    H150871   0.918   0.031   7.555 -3.2337 -0.0689  0.7988
 8892TIP3    H250872   0.949   0.178   7.573 -1.4775 -0.0754 -1.5821
 8893TIP3   OH250873   5.462   3.677   5.783 -0.5399 -0.2165 -0.2373
 8893TIP3    H150874   5.471   3.665   5.688 -0.0696 -1.1849 -0.0772
 8893TIP3    H250875   5.491   3.767   5.799 -0.9849  0.0841 -1.0563
 8894TIP3   OH250876   5.417   2.789   6.313  0.2161  0.5037 -1.1213
 8894TIP3    H150877   5.479   2.751   6.376  0.8521  1.4789 -1.1328
 8894TIP3    H250878   5.336   2.740   6.327  0.3119  0.7486  0.5281
 8895TIP3   OH250879   6.351   6.386   8.599  0.0236 -0.2144 -0.1448
 8895TIP3    H150880   6.432   6.434   8.582 -0.1441  0.4483  0.8724
 8895TIP3    H250881   6.350   6.317   8.533  0.9052  0.3968 -0.8157
 8896TIP3   OH250882   1.334   4.938   6.747 -0.3006  0.3837  0.7671
 8896TIP3    H150883   1.370   4.893   6.671 -1.2033 -0.0078  0.5590
 8896TIP3    H250884   1.410   4.976   6.791  0.2594  0.3434 -0.1518
 8897TIP3   OH250885   2.680   3.097   7.332 -0.1265  0.2843  0.0256
 8897TIP3    H150886   2.717   3.026   7.279  0.9615 -0.0194  1.1427
 8897TIP3    H250887   2.649   3.054   7.411 -1.8180  0.7243 -0.3489
 8898TIP3   OH250888   5.448   4.405   6.804 -0.3366  0.2198 -0.2649
 8898TIP3    H150889   5.432   4.324   6.854 -0.3109  0.3202 -0.0925
 8898TIP3    H250890   5.520   4.447   6.850 -0.6536  0.5646 -0.0836
 8899TIP3   OH250891   3.800   3.924   5.427 -0.1967  0.2643  0.2325
 8899TIP3    H150892   3.778   3.929   5.334  1.2831  2.3841 -0.0844
 8899TIP3    H250893   3.738   3.861   5.464  0.3834 -2.1383 -2.5133
 8900TIP3   OH250894   6.037   1.386   7.263  0.2024 -0.4369 -0.1597
 8900TIP3    H150895   5.987   1.332   7.202  1.9814 -0.1786 -1.9642
 8900TIP3    H250896   5.980   1.396   7.339 -0.8485 -3.4848 -0.3913
 8901TIP3   OH250897   6.650   0.204   6.393  0.2470 -0.4563  0.8845
 8901TIP3    H150898   6.723   0.145   6.417  1.3642  0.4224 -0.2241
 8901TIP3    H250899   6.586   0.147   6.352  0.4963 -1.1813  1.4611
 8902TIP3   OH250900   0.865   4.543   5.811  0.3206  0.2954  0.3855
 8902TIP3    H150901   0.837   4.562   5.722 -0.3647  0.9898  0.7440
 8902TIP3    H250902   0.816   4.465   5.835  1.5056 -0.7037 -0.3037
 8903TIP3   OH250903   0.065   2.275   8.531  0.1402  0.2205  0.5961
 8903TIP3    H150904   0.100   2.295   8.617 -1.6703 -0.5728  1.5786
 8903TIP3    H250905  -0.008   2.215   8.548 -0.0372 -0.2401 -1.5145
 8904TIP3   OH250906   6.540   6.711   8.213 -0.4299  0.6665 -0.0828
 8904TIP3    H150907   6.570   6.682   8.299 -0.3426  0.9903 -0.0042
 8904TIP3    H250908   6.615   6.697   8.155 -0.2847  1.0188  0.0167
 8905TIP3   OH250909   0.551   5.318   9.120 -0.5612 -0.2169  0.2622
 8905TIP3    H150910   0.595   5.239   9.089 -0.6811  0.3921 -1.5198
 8905TIP3    H250911   0.472   5.286   9.163 -0.4423 -1.0819 -0.1435
 8906TIP3   OH250912   5.277   1.224   6.126  0.8139 -0.1602 -0.4477
 8906TIP3    H150913   5.311   1.313   6.131 -0.2267  0.2630 -0.5836
 8906TIP3    H250914   5.235   1.210   6.211  2.0733 -1.0084  0.0704
 8907TIP3   OH250915   0.340   1.919   7.903  0.2531  0.1960  0.1279
 8907TIP3    H150916   0.328   2.004   7.944  1.7032  0.0000  1.0787
 8907TIP3    H250917   0.421   1.886   7.942 -0.1687 -1.5262 -0.3685
 8908TIP3   OH250918   5.859   5.476   6.111  0.2276 -0.3301 -0.1191
 8908TIP3    H150919   5.851   5.564   6.075 -0.3909  1.2259  3.3987
 8908TIP3    H250920   5.771   5.439   6.106  0.0473  0.0541  0.1854
 8909TIP3   OH250921   3.821   4.543   6.284  0.1527 -0.5480  0.2440
 8909TIP3    H150922   3.910   4.531   6.249  0.8083 -1.7347  2.1671
 8909TIP3    H250923   3.782   4.608   6.226  2.0879 -0.3685 -0.9817
 8910TIP3   OH250924   0.324   6.192   5.779  0.3985  0.0380  0.1818
 8910TIP3    H150925   0.379   6.216   5.705  1.9837  0.1302  1.3343
 8910TIP3    H250926   0.330   6.097   5.784 -0.2092 -0.0205 -0.1771
 8911TIP3   OH250927   0.162   1.498   7.242  0.1526  0.1437 -0.2372
 8911TIP3    H150928   0.184   1.499   7.335 -1.6313  0.9883  0.2309
 8911TIP3    H250929   0.226   1.556   7.201  1.3421 -0.7283  0.3408
 8912TIP3   OH250930   2.937   6.272   6.146 -0.1160 -0.0256 -0.5919
 8912TIP3    H150931   2.883   6.232   6.214  1.7151 -3.1350 -0.7684
 8912TIP3    H250932   2.888   6.255   6.065 -0.2943 -0.1061 -0.4691
 8913TIP3   OH250933   5.795   5.420   7.287 -0.4310  0.4937 -0.0911
 8913TIP3    H150934   5.817   5.513   7.280  1.3854  0.1913  1.0941
 8913TIP3    H250935   5.800   5.388   7.197  2.3030  0.8775 -0.1616
 8914TIP3   OH250936   0.676   4.500   6.436 -0.1841  0.2431  0.0736
 8914TIP3    H150937   0.696   4.410   6.463 -1.0359 -0.2661 -0.9384
 8914TIP3    H250938   0.753   4.550   6.462  0.4786 -0.8532  0.2920
 8915TIP3   OH250939   2.526   3.697   7.941  0.2622 -0.0025  0.3333
 8915TIP3    H150940   2.609   3.649   7.951 -0.1888 -0.9834 -0.4810
 8915TIP3    H250941   2.462   3.630   7.916 -0.6248  0.8559  0.2413
 8916TIP3   OH250942   3.924   4.797   6.505  0.2498  0.3871  0.0542
 8916TIP3    H150943   3.851   4.813   6.564  0.5603  0.0431  0.5427
 8916TIP3    H250944   4.002   4.809   6.559  0.5482  0.4243 -0.3768
 8917TIP3   OH250945   5.057   4.969   8.583  0.3546  0.1826  0.1217
 8917TIP3    H150946   4.971   4.995   8.617  0.8942  3.7685 -0.8061
 8917TIP3    H250947   5.118   4.991   8.654  0.9019  2.3890 -0.9373
 8918TIP3   OH250948   2.232   6.418   6.592 -0.0337  0.2907 -0.9134
 8918TIP3    H150949   2.171   6.428   6.664  1.7692  0.9363  0.6322
 8918TIP3    H250950   2.279   6.502   6.589  3.5734 -1.4685  0.7579
 8919TIP3   OH250951   4.511   3.150   7.027 -0.1163 -0.8046  0.1836
 8919TIP3    H150952   4.522   3.240   6.999  0.9211 -0.9065  0.2307
 8919TIP3    H250953   4.503   3.100   6.945 -1.5520 -0.5917  0.1636
 8920TIP3   OH250954   6.389   2.981   6.452  0.0556  0.1690 -0.1194
 8920TIP3    H150955   6.370   2.903   6.504 -0.6665  0.1118 -0.4527
 8920TIP3    H250956   6.392   2.950   6.362 -0.2356  0.5227 -0.2549
 8921TIP3   OH250957   0.479   5.476   6.303 -0.4578  0.2483  0.4537
 8921TIP3    H150958   0.464   5.422   6.380  2.5757 -1.2691  0.1608
 8921TIP3    H250959   0.433   5.430   6.232 -1.5534  0.5190  0.9801
 8922TIP3   OH250960   6.047   1.486   8.407  0.3106  0.2366 -0.3754
 8922TIP3    H150961   6.131   1.466   8.449  0.2995 -0.5388 -0.7081
 8922TIP3    H250962   5.989   1.509   8.480 -0.5064 -3.7427  0.4900
 8923TIP3   OH250963   4.238   0.543   7.557 -0.5553 -0.2692  0.5940
 8923TIP3    H150964   4.153   0.510   7.586 -0.3508 -1.2724  0.1051
 8923TIP3    H250965   4.219   0.593   7.477 -0.9441  1.3650  1.6602
 8924TIP3   OH250966   0.930   1.126   6.351  0.6174  0.6475  0.3915
 8924TIP3    H150967   0.868   1.139   6.422  0.6914  1.5667  0.3055
 8924TIP3    H250968   0.918   1.202   6.294 -0.4009 -0.7180 -1.3228
 8925TIP3   OH250969   0.105   3.474   7.035  0.0179 -0.1768 -0.1592
 8925TIP3    H150970   0.081   3.405   6.973  0.8331 -0.3075 -0.3378
 8925TIP3    H250971   0.083   3.555   6.989  0.6822 -0.2712 -0.6488
 8926TIP3   OH250972   1.930   1.153   6.952 -0.1085 -0.1447 -0.6098
 8926TIP3    H150973   1.900   1.242   6.969 -2.0385 -0.5862 -1.3942
 8926TIP3    H250974   2.006   1.142   7.009 -0.3243  1.7079  0.1183
 8927TIP3   OH250975   4.770   0.551   8.028  0.7512  0.8038  0.0244
 8927TIP3    H150976   4.700   0.493   7.997  0.9631  1.1212 -1.1027
 8927TIP3    H250977   4.776   0.618   7.960  1.7635  1.1006  0.4025
 8928TIP3   OH250978   6.039   5.058   9.434  0.0027 -0.4981  0.3460
 8928TIP3    H150979   6.032   5.147   9.467 -0.7122 -0.7365  0.8763
 8928TIP3    H250980   5.950   5.036   9.407  0.1091 -1.1538  0.5114
 8929TIP3   OH250981   1.452   4.328   8.097  0.3129  0.6674  0.3570
 8929TIP3    H150982   1.450   4.274   8.018  1.4017  2.9797 -1.3568
 8929TIP3    H250983   1.363   4.323   8.132  0.1838 -1.5359 -0.1718
 8930TIP3   OH250984   1.148   1.944   8.499  0.3596 -0.4675 -0.6691
 8930TIP3    H150985   1.141   1.883   8.425  2.0485 -0.9790 -0.4582
 8930TIP3    H250986   1.116   1.894   8.574 -1.1245 -0.0318 -0.9920
 8931TIP3   OH250987   1.253   0.478   8.947  0.4936  0.0888  0.1631
 8931TIP3    H150988   1.274   0.461   9.039  0.9230  0.0636  0.0612
 8931TIP3    H250989   1.202   0.402   8.920 -0.7140  0.6682  0.7253
 8932TIP3   OH250990   1.680   5.728   6.086  0.6596  0.7220  0.1828
 8932TIP3    H150991   1.763   5.765   6.117  0.6863 -0.1609  1.2123
 8932TIP3    H250992   1.613   5.787   6.120  0.8039  0.8708  0.2084
 8933TIP3   OH250993   6.365   1.908   6.279 -0.0097  0.2509 -0.5108
 8933TIP3    H150994   6.427   1.842   6.248 -1.6634 -1.9239  0.5742
 8933TIP3    H250995   6.285   1.859   6.297 -0.3034  1.8741  3.7335
 8934TIP3   OH250996   5.654   5.981   5.201  0.4164  0.1824  0.0465
 8934TIP3    H150997   5.734   6.010   5.246  0.2015 -1.1794  1.3886
 8934TIP3    H250998   5.674   5.990   5.108  1.9915  0.2133  0.3584
 8935TIP3   OH250999   5.856   1.978   6.258  0.6336 -0.1180  0.5853
 8935TIP3    H151000   5.888   2.048   6.315 -0.2424 -0.9926  2.2203
 8935TIP3    H251001   5.840   1.904   6.316 -3.6356 -0.0101 -0.1173
 8936TIP3   OH251002   0.343   5.635   7.255  0.0033  0.3223  0.1109
 8936TIP3    H151003   0.254   5.671   7.258 -0.0569  0.1960 -0.0993
 8936TIP3    H251004   0.393   5.699   7.204 -0.0854  0.1499 -0.1959
 8937TIP3   OH251005   2.937   4.385   5.311 -0.0855  0.2170 -0.0218
 8937TIP3    H151006   2.879   4.401   5.237  0.4587  0.4758 -0.3979
 8937TIP3    H251007   2.953   4.471   5.348  2.1199  0.5298 -1.4983
 8938TIP3   OH251008   5.727   4.169   7.534 -0.1158  0.9547 -0.8420
 8938TIP3    H151009   5.640   4.144   7.562 -1.3672  1.2461 -4.0435
 8938TIP3    H251010   5.713   4.246   7.477  2.3395  1.6744 -0.6039
 8939TIP3   OH251011   3.482   4.837   6.586 -0.4629 -0.0456 -0.1117
 8939TIP3    H151012   3.561   4.811   6.634  0.5232  0.3521 -1.4750
 8939TIP3    H251013   3.414   4.842   6.654  0.6532 -0.4575  1.0816
 8940TIP3   OH251014   5.226   5.133   8.091  0.0646 -0.5203  0.1079
 8940TIP3    H151015   5.309   5.128   8.044 -0.2678  0.5074 -0.6057
 8940TIP3    H251016   5.162   5.094   8.031  0.1349 -2.0284  0.9663
 8941TIP3   OH251017   6.160   6.319   5.692 -0.5921 -0.2781  0.0991
 8941TIP3    H151018   6.228   6.383   5.668  1.0916 -1.6193  1.1109
 8941TIP3    H251019   6.195   6.275   5.770 -1.4824 -2.7160 -0.7886
 8942TIP3   OH251020   0.588   5.172   7.250 -0.0852  0.2458 -0.5855
 8942TIP3    H151021   0.677   5.197   7.226 -0.4159  0.1659 -2.0150
 8942TIP3    H251022   0.590   5.159   7.344  1.5387 -0.2365 -0.6663
 8943TIP3   OH251023   1.904   4.788   5.396 -0.5913 -0.7164  0.1482
 8943TIP3    H151024   1.841   4.765   5.328 -1.1113  0.2283  0.3020
 8943TIP3    H251025   1.858   4.770   5.478 -0.1014 -1.4895  0.2633
 8944TIP3   OH251026   2.764   5.475   5.627  0.0080  0.4399 -0.5686
 8944TIP3    H151027   2.833   5.500   5.689 -1.2973  0.7882  0.7990
 8944TIP3    H251028   2.810   5.426   5.559  1.5512  0.3657  0.4749
 8945TIP3   OH251029   0.478   1.201   6.971 -0.0322 -0.0380  0.2704
 8945TIP3    H151030   0.403   1.261   6.965  0.1273  0.2882  1.3639
 8945TIP3    H251031   0.500   1.199   7.064  0.6214 -1.0011  0.1104
 8946TIP3   OH251032   5.294   2.240   6.187  0.3582 -0.1036  0.2225
 8946TIP3    H151033   5.237   2.165   6.167  1.2693 -0.9824  0.7833
 8946TIP3    H251034   5.275   2.259   6.279  0.3597  0.1486  0.1693
 8947TIP3   OH251035   5.983   4.254   6.167  0.5437 -0.5113 -0.1873
 8947TIP3    H151036   6.032   4.236   6.247  0.2841 -2.3330 -0.4156
 8947TIP3    H251037   5.931   4.332   6.189  0.7479 -0.7626  1.2861
 8948TIP3   OH251038   4.842   0.609   6.481 -0.1869 -0.4887 -0.1964
 8948TIP3    H151039   4.782   0.548   6.438 -0.7265  0.0797 -0.2836
 8948TIP3    H251040   4.801   0.626   6.566  0.0396 -0.3741 -0.1100
 8949TIP3   OH251041   1.246   2.031   7.061 -0.4905 -0.2265 -0.4722
 8949TIP3    H151042   1.159   2.070   7.061 -0.9127 -1.0809  1.1161
 8949TIP3    H251043   1.250   1.980   6.981 -2.2238 -1.7560  0.3490
 8950TIP3   OH251044   3.981   4.270   6.987  0.5017 -0.5894  0.1765
 8950TIP3    H151045   4.071   4.292   6.964 -0.2962  0.9315 -1.7402
 8950TIP3    H251046   3.989   4.217   7.067  2.9287  1.7637  1.6669
 8951TIP3   OH251047   0.452   3.396   7.982 -0.0889  0.2069  0.4449
 8951TIP3    H151048   0.457   3.491   7.968 -2.0710  0.5190  1.4544
 8951TIP3    H251049   0.397   3.387   8.060  1.6772 -1.7276  1.5313
 8952TIP3   OH251050   2.634   3.960   6.382 -0.4763  0.4110  0.1612
 8952TIP3    H151051   2.601   3.951   6.471 -0.2758  1.3890  0.3394
 8952TIP3    H251052   2.559   3.993   6.332 -0.9815 -1.3826 -0.3269
 8953TIP3   OH251053   6.639   6.569   7.427  0.7615  0.6134  0.1560
 8953TIP3    H151054   6.693   6.647   7.433 -0.4505  1.7367 -2.2069
 8953TIP3    H251055   6.549   6.601   7.423 -0.0112 -1.1008  1.9483
 8954TIP3   OH251056   3.080   5.630   6.852  0.2547  0.1560 -0.2394
 8954TIP3    H151057   3.067   5.540   6.883 -0.0481  0.4248  0.4438
 8954TIP3    H251058   3.020   5.638   6.777 -0.1139 -0.0495  0.0273
 8955TIP3   OH251059   6.081   0.010   6.455 -0.2379 -0.1607  0.3364
 8955TIP3    H151060   6.158   0.051   6.416 -1.2403 -1.0539 -2.8470
 8955TIP3    H251061   6.007   0.040   6.401 -1.8625 -0.9848  1.9669
 8956TIP3   OH251062   1.850   4.580   6.236 -0.2140  0.2373 -0.0438
 8956TIP3    H151063   1.788   4.526   6.188  1.0545  0.1395 -1.6346
 8956TIP3    H251064   1.830   4.562   6.328 -2.0404 -0.3303 -0.5070
 8957TIP3   OH251065   2.506   2.365   8.063 -0.3232  0.1145 -0.0124
 8957TIP3    H151066   2.540   2.429   8.000 -0.0300  0.1483  0.1757
 8957TIP3    H251067   2.552   2.386   8.145  1.7767 -1.9815 -0.5372
 8958TIP3   OH251068   4.495   3.487   5.978  0.0753  0.7914  0.0760
 8958TIP3    H151069   4.519   3.494   5.886 -0.2792  1.9714  0.0526
 8958TIP3    H251070   4.409   3.444   5.977  0.4231  0.0867 -0.0814
 8959TIP3   OH251071   0.823   0.019   7.102 -0.5909  0.1753 -0.0927
 8959TIP3    H151072   0.744   0.001   7.153 -0.5886  2.7710  0.9949
 8959TIP3    H251073   0.828   0.115   7.099  2.2958  0.0954 -0.4649
 8960TIP3   OH251074   4.679   6.216   8.815  0.2835 -0.0673  0.1499
 8960TIP3    H151075   4.725   6.208   8.732 -0.2173 -2.4224  0.0228
 8960TIP3    H251076   4.744   6.249   8.876  1.1896 -0.1722 -0.7376
 8961TIP3   OH251077   5.062   1.505   7.901  0.8462 -0.0092  0.2445
 8961TIP3    H151078   5.111   1.443   7.846  0.5128  0.4956 -0.6503
 8961TIP3    H251079   4.984   1.526   7.849  0.6747  0.7135  0.7880
 8962TIP3   OH251080   3.788   1.795   7.192 -0.0884 -0.3510  0.0431
 8962TIP3    H151081   3.776   1.856   7.265 -2.3982 -0.5684 -0.0871
 8962TIP3    H251082   3.830   1.848   7.123  0.8713  0.2084  1.0179
 8963TIP3   OH251083   0.382   4.172   8.867  0.1183  0.3734  0.5048
 8963TIP3    H151084   0.444   4.238   8.898  0.3384  0.2741  0.2708
 8963TIP3    H251085   0.315   4.222   8.820  0.6765  0.3594 -0.3139
 8964TIP3   OH251086   3.699   2.913   6.316 -0.3008 -0.0420 -0.2027
 8964TIP3    H151087   3.751   2.993   6.315  1.0395 -0.8855 -0.4248
 8964TIP3    H251088   3.721   2.871   6.399 -2.7001  0.8639  0.9632
 8965TIP3   OH251089   4.675   0.042   7.483  0.6026  0.0758  0.0638
 8965TIP3    H151090   4.757  -0.004   7.465  0.7543  0.6713 -0.7839
 8965TIP3    H251091   4.663   0.034   7.578  0.8134 -1.3941 -0.0116
 8966TIP3   OH251092   5.808   0.216   6.031 -0.6476 -0.5147  0.0059
 8966TIP3    H151093   5.767   0.239   5.948 -1.4504 -2.8273 -0.3032
 8966TIP3    H251094   5.749   0.251   6.098 -1.0228 -0.3446 -0.4080
 8967TIP3   OH251095   2.655   4.620   7.087  0.4092  0.8149 -0.4891
 8967TIP3    H151096   2.595   4.615   7.013  1.4912  2.0984 -1.4930
 8967TIP3    H251097   2.719   4.551   7.072 -0.7829 -0.6236  0.6357
 8968TIP3   OH251098   3.454   2.971   5.772  0.4921 -0.0951  0.0324
 8968TIP3    H151099   3.368   2.930   5.781  0.0079  0.6984 -0.8737
 8968TIP3    H251100   3.439   3.064   5.790  0.4303  0.7129 -3.5314
 8969TIP3   OH251101   4.577   1.792   6.159 -0.3951 -0.5372  0.3285
 8969TIP3    H151102   4.606   1.717   6.211 -0.8413 -0.9183  0.0361
 8969TIP3    H251103   4.553   1.754   6.074 -2.0405 -0.2914  0.6521
 8970TIP3   OH251104   3.114   5.494   7.543 -0.0431  0.2196  0.2565
 8970TIP3    H151105   3.196   5.462   7.506 -0.4670  0.8739 -1.3340
 8970TIP3    H251106   3.068   5.534   7.469 -1.5019  0.4698  1.2512
 8971TIP3   OH251107   0.451   1.393   7.476  0.2964 -0.3855  0.6648
 8971TIP3    H151108   0.524   1.419   7.420 -0.0120 -0.1639  0.3604
 8971TIP3    H251109   0.491   1.344   7.548  1.0003  1.5598  1.6795
 8972TIP3   OH251110   0.730   6.720   6.840  0.0327  0.7681  0.5886
 8972TIP3    H151111   0.777   6.740   6.921  0.8153 -0.3353  0.4333
 8972TIP3    H251112   0.686   6.637   6.858  0.1722  0.5390 -0.1067
 8973TIP3   OH251113   0.270   0.777   8.288  0.3510  0.2141 -0.3394
 8973TIP3    H151114   0.306   0.688   8.295  1.6670  0.7913  0.8590
 8973TIP3    H251115   0.304   0.822   8.366 -2.4512  1.0392  0.5308
 8974TIP3   OH251116   5.745   0.889   6.629  0.4651  0.3436 -0.1942
 8974TIP3    H151117   5.707   0.922   6.548 -0.9501  0.5237  0.5213
 8974TIP3    H251118   5.670   0.865   6.684  1.3930 -0.9305  0.6023
 8975TIP3   OH251119   4.325   1.613   7.161 -0.6275  0.1672  0.3931
 8975TIP3    H151120   4.339   1.530   7.206  1.6047  0.2770 -0.0061
 8975TIP3    H251121   4.259   1.658   7.213  0.0226 -0.7796  2.0899
 8976TIP3   OH251122   0.810   5.443   6.348  0.1347  0.2909  0.0615
 8976TIP3    H151123   0.747   5.493   6.401 -1.2785  0.5426 -1.7490
 8976TIP3    H251124   0.842   5.506   6.283 -2.1035 -1.1206 -2.6385
 8977TIP3   OH251125   4.851   3.780   7.783 -0.0619 -0.6561  0.6795
 8977TIP3    H151126   4.890   3.855   7.738 -1.6036  0.1434  0.6271
 8977TIP3    H251127   4.806   3.731   7.714  0.4087 -1.3040  0.8214
 8978TIP3   OH251128   0.073   0.015   7.640 -0.3567 -0.0807 -0.3295
 8978TIP3    H151129   0.043   0.018   7.731  0.3381 -1.8639 -0.0059
 8978TIP3    H251130   0.069   0.107   7.611 -0.0504  0.6200  1.6622
 8979TIP3   OH251131   1.813   3.310   7.560 -0.1893 -0.0846 -0.0788
 8979TIP3    H151132   1.863   3.390   7.573 -1.4839  0.4466  2.1426
 8979TIP3    H251133   1.879   3.241   7.550  0.9835  0.8076  1.2490
 8980TIP3   OH251134   0.476   1.954   7.510 -0.2301  0.1480 -0.4782
 8980TIP3    H151135   0.399   1.915   7.551  0.4823 -0.4290  0.3562
 8980TIP3    H251136   0.470   2.047   7.531 -0.9647  0.1891 -0.8628
 8981TIP3   OH251137   0.355   0.182   6.570  0.0968 -0.2264  0.4239
 8981TIP3    H151138   0.390   0.144   6.651  0.2651 -0.0838  0.4165
 8981TIP3    H251139   0.403   0.264   6.559 -0.9535  0.4845  0.9618
 8982TIP3   OH251140   5.325   6.478   7.253 -0.4042  0.7357 -0.2106
 8982TIP3    H151141   5.243   6.449   7.293 -0.4676 -0.3694 -1.0919
 8982TIP3    H251142   5.371   6.525   7.323 -1.2610  0.3426  0.6319
 8983TIP3   OH251143   4.355   3.902   6.314 -0.7020  0.2531 -0.7674
 8983TIP3    H151144   4.448   3.884   6.331 -0.8805  0.2102  0.2529
 8983TIP3    H251145   4.355   3.981   6.260  0.0367 -1.6171 -3.7305
 8984TIP3   OH251146   3.867   4.438   5.900 -0.7951 -0.1161 -0.1736
 8984TIP3    H151147   3.954   4.469   5.876 -2.0373  1.8834 -2.4370
 8984TIP3    H251148   3.864   4.348   5.868  0.6471 -0.4996  0.6557
 8985TIP3   OH251149   0.142   3.570   6.197  0.0357  0.0117  0.1925
 8985TIP3    H151150   0.127   3.590   6.105  1.7952 -3.6315 -1.0733
 8985TIP3    H251151   0.071   3.614   6.243 -2.4998 -0.2070 -3.1778
 8986TIP3   OH251152   4.235   2.238   6.576 -0.3427 -0.3654 -0.5371
 8986TIP3    H151153   4.231   2.285   6.659 -1.8983  0.1715 -0.8988
 8986TIP3    H251154   4.218   2.304   6.509  1.5222 -0.6686 -1.3613
 8987TIP3   OH251155   4.516   0.912   7.837  0.5875  0.1685  0.0876
 8987TIP3    H151156   4.422   0.925   7.847  0.6843  0.5526  0.5142
 8987TIP3    H251157   4.524   0.838   7.776 -0.0037 -0.9765  1.3597
 8988TIP3   OH251158   4.866   0.309   8.418  0.0931 -0.4968  0.7082
 8988TIP3    H151159   4.822   0.305   8.334  2.1688  0.7842 -0.5481
 8988TIP3    H251160   4.906   0.223   8.430  2.4289  0.1839 -1.2793
 8989TIP3   OH251161   4.272   1.039   7.987  0.0710  0.0919  0.3181
 8989TIP3    H151162   4.191   1.019   8.034 -0.8338 -1.2067 -1.6416
 8989TIP3    H251163   4.341   0.996   8.039 -0.7708 -0.5898  0.8967
 8990TIP3   OH251164   5.123   4.040   5.772  0.6062  0.2688  0.1691
 8990TIP3    H151165   5.207   3.995   5.773  0.2912 -0.3325  0.7543
 8990TIP3    H251166   5.144   4.131   5.796  1.0065 -0.0373  1.0230
 8991TIP3   OH251167   1.826   6.369   7.673  0.2537 -0.0432 -0.1349
 8991TIP3    H151168   1.830   6.282   7.634 -0.0206 -0.0852 -0.0721
 8991TIP3    H251169   1.835   6.354   7.767  2.5163  0.1840 -0.2719
 8992TIP3   OH251170   6.332   5.114   7.442 -0.0746  0.0213  0.6262
 8992TIP3    H151171   6.290   5.167   7.508  0.0944 -0.1447  0.8703
 8992TIP3    H251172   6.381   5.176   7.388 -1.0107  0.2675  0.0464
 8993TIP3   OH251173   2.204   1.795   6.705 -0.0457 -0.6253  0.2693
 8993TIP3    H151174   2.122   1.816   6.749 -0.7659  0.9171 -1.6227
 8993TIP3    H251175   2.243   1.880   6.685  0.5875 -1.2631 -1.3895
 8994TIP3   OH251176   3.630   5.551   6.173 -0.1931  0.0525 -0.1692
 8994TIP3    H151177   3.629   5.614   6.100 -0.1355  0.4072  0.1325
 8994TIP3    H251178   3.611   5.467   6.132 -0.5289  0.3045 -0.5407
 8995TIP3   OH251179   4.439   3.369   7.598  0.3130  0.2677 -0.3289
 8995TIP3    H151180   4.492   3.303   7.642 -0.7906 -1.3601 -1.3638
 8995TIP3    H251181   4.503   3.429   7.559  1.3210  0.2579  1.2219
 8996TIP3   OH251182   2.184   6.431   8.034  0.6063  0.0948  0.0228
 8996TIP3    H151183   2.200   6.525   8.020  0.0154  0.2129  0.1205
 8996TIP3    H251184   2.269   6.396   8.060  1.3328  0.2290 -1.9706
 8997TIP3   OH251185   2.657   1.187   8.087 -0.1008 -0.9329 -0.5476
 8997TIP3    H151186   2.694   1.186   8.176  0.7715  1.5112 -0.7947
 8997TIP3    H251187   2.691   1.108   8.046 -0.0091 -1.7920  1.1014
 8998TIP3   OH251188   2.171   4.371   6.254 -0.0266  0.1784  1.0198
 8998TIP3    H151189   2.094   4.331   6.214 -0.0762  3.3686 -2.6162
 8998TIP3    H251190   2.239   4.303   6.248 -0.8852 -0.5771 -1.9804
 8999TIP3   OH251191   3.161   0.902   7.599  0.2517  0.2351 -0.1864
 8999TIP3    H151192   3.107   0.823   7.586  0.8690  0.1278 -2.6490
 8999TIP3    H251193   3.251   0.869   7.600  0.4345  0.7403  0.6913
 9000TIP3   OH251194   5.245   0.455   7.863 -0.3521 -0.2192  0.3251
 9000TIP3    H151195   5.287   0.383   7.910 -0.6181  0.6881  2.0474
 9000TIP3    H251196   5.287   0.534   7.897 -0.3898  0.4799 -1.1733
 9001TIP3   OH251197   0.225   6.394   6.336 -0.6250 -0.2442 -0.3406
 9001TIP3    H151198   0.168   6.461   6.299 -0.3629  0.2177  0.0777
 9001TIP3    H251199   0.278   6.441   6.401  0.4541 -0.6025 -0.9531
 9002TIP3   OH251200   1.128   4.783   7.208  0.5286 -0.2469 -0.8270
 9002TIP3    H151201   1.042   4.825   7.214 -0.6069 -2.5787  0.5537
 9002TIP3    H251202   1.121   4.725   7.132  1.4393  0.6212 -1.6039
 9003TIP3   OH251203   2.850   2.310   8.232 -0.3153  0.2191  0.3690
 9003TIP3    H151204   2.854   2.347   8.143 -0.8515  0.6814  0.5266
 9003TIP3    H251205   2.942   2.300   8.258 -0.1238 -1.2941 -0.7812
 9004TIP3   OH251206   2.900   5.448   6.149  0.0208 -0.4484 -0.1941
 9004TIP3    H151207   2.946   5.512   6.203 -1.1600 -0.6692  1.1362
 9004TIP3    H251208   2.917   5.364   6.191 -1.1349 -0.5935  0.0211
 9005TIP3   OH251209   2.914   0.405   6.371  0.5471 -0.5752  0.1481
 9005TIP3    H151210   2.894   0.318   6.406  0.2919 -0.8525 -0.6644
 9005TIP3    H251211   3.008   0.405   6.357  0.4477 -0.9991 -0.5638
 9006TIP3   OH251212   4.311   5.067   7.751 -0.0165 -0.1717 -0.8625
 9006TIP3    H151213   4.286   5.040   7.663  1.4240 -0.7347 -1.1115
 9006TIP3    H251214   4.351   4.989   7.790  0.2315  0.3502 -0.0422
 9007TIP3   OH251215   3.733   3.229   8.174  0.5302 -0.1335  0.5790
 9007TIP3    H151216   3.788   3.173   8.119 -0.6036 -0.0523 -0.7006
 9007TIP3    H251217   3.653   3.178   8.187 -0.0456  0.7002  0.3871
 9008TIP3   OH251218   5.321   6.515   6.546  0.0230  0.2800 -0.3444
 9008TIP3    H151219   5.249   6.501   6.608 -0.5431  1.0749 -0.8019
 9008TIP3    H251220   5.398   6.480   6.590 -0.8911 -2.0967 -0.4668
 9009TIP3   OH251221   1.342   2.380   7.662 -0.0085  0.7119  0.4472
 9009TIP3    H151222   1.276   2.450   7.668  0.1076  0.7705  1.1453
 9009TIP3    H251223   1.368   2.364   7.753  0.8732  0.6151  0.1854
 9010TIP3   OH251224   1.453   2.315   8.004  0.3515  0.6443 -0.2657
 9010TIP3    H151225   1.377   2.371   8.024  0.2786  0.5459 -0.2679
 9010TIP3    H251226   1.462   2.260   8.082 -0.1661 -0.0026 -0.6615
 9011TIP3   OH251227   3.807   0.494   8.308  0.0961  0.0282  0.8880
 9011TIP3    H151228   3.889   0.504   8.259  0.2322  1.6478  1.4058
 9011TIP3    H251229   3.788   0.400   8.303 -0.8568  0.2313 -3.7498
 9012TIP3   OH251230   3.417   5.683   9.401 -0.3482  0.4128  0.3601
 9012TIP3    H151231   3.370   5.682   9.484  0.1246 -0.4268  0.6283
 9012TIP3    H251232   3.372   5.618   9.347 -1.0184  1.3685 -0.2589
 9013TIP3   OH251233   5.640   5.570   9.678  0.3957  0.7083  0.4997
 9013TIP3    H151234   5.688   5.500   9.632 -1.0955 -1.1788  1.6518
 9013TIP3    H251235   5.699   5.599   9.747  0.1945 -1.1442  1.5113
 9014TIP3   OH251236   6.418   3.158   7.360 -0.1202 -0.4146  0.2246
 9014TIP3    H151237   6.438   3.129   7.449  0.1996  1.7977  0.9232
 9014TIP3    H251238   6.502   3.158   7.316 -0.1892 -0.9462  0.0876
 9015TIP3   OH251239   1.901   1.688   7.914  0.3472 -0.4679 -0.0680
 9015TIP3    H151240   1.857   1.735   7.843 -0.5561 -1.8031 -0.4294
 9015TIP3    H251241   1.989   1.671   7.879  0.5055  0.4390 -0.1437
 9016TIP3   OH251242   0.114   4.508   5.648 -0.6853 -1.3429 -0.0818
 9016TIP3    H151243   0.023   4.481   5.657 -0.6556 -1.3612  0.1808
 9016TIP3    H251244   0.151   4.445   5.586 -1.1510 -0.5964 -1.1520
 9017TIP3   OH251245   2.884   4.065   8.163 -0.2942  0.9139 -0.3463
 9017TIP3    H151246   2.842   3.979   8.169 -0.0477  0.8735  1.0422
 9017TIP3    H251247   2.976   4.046   8.147  0.2998  0.7530  2.6167
 9018TIP3   OH251248   1.405   0.009   7.789  0.1182  0.5900 -0.1558
 9018TIP3    H151249   1.404   0.081   7.725  1.2077  0.6664 -0.1036
 9018TIP3    H251250   1.386  -0.069   7.737 -0.0485  0.7818 -0.3905
 9019TIP3   OH251251   1.567   3.874   9.364  0.1461 -0.5764  0.0900
 9019TIP3    H151252   1.560   3.914   9.451 -1.6997 -0.8097  0.0993
 9019TIP3    H251253   1.508   3.925   9.309  0.4025 -1.1556 -0.7393
 9020TIP3   OH251254   2.099   4.386   9.496 -0.0806  0.0091 -0.1817
 9020TIP3    H151255   2.151   4.449   9.446 -1.2255  3.7757  2.8924
 9020TIP3    H251256   2.155   4.362   9.569 -0.4311 -0.9370 -0.2151
 9021TIP3   OH251257   0.679   0.604   6.678 -0.1061  0.5805 -0.5264
 9021TIP3    H151258   0.709   0.585   6.590 -0.3515  1.0136 -0.7075
 9021TIP3    H251259   0.585   0.615   6.670 -0.5326 -1.9005  0.2330
 9022TIP3   OH251260   4.589   6.713   8.370 -0.7265  0.0098 -0.1692
 9022TIP3    H151261   4.535   6.793   8.374  2.5696  2.4637 -0.4787
 9022TIP3    H251262   4.630   6.708   8.456  0.3493 -0.3639 -0.6869
 9023TIP3   OH251263   0.302   3.547   6.510  0.3499 -0.1478  0.0146
 9023TIP3    H151264   0.235   3.602   6.550  0.8163  0.5490 -0.1511
 9023TIP3    H251265   0.254   3.472   6.475 -0.2620  0.0420  0.4353
 9024TIP3   OH251266   6.042   6.505   9.168 -0.3243  0.1369 -0.1003
 9024TIP3    H151267   5.952   6.490   9.138  0.5557 -2.0574 -1.9775
 9024TIP3    H251268   6.073   6.577   9.115 -0.5482 -0.0230 -0.4545
 9025TIP3   OH251269   1.521   5.181   9.146  0.1117 -0.1807  0.4687
 9025TIP3    H151270   1.580   5.111   9.174  1.9204  0.5168 -1.2826
 9025TIP3    H251271   1.571   5.261   9.162 -1.7244  0.7438  1.9839
 9026TIP3   OH251272   1.170   5.405   8.060  0.4928 -0.1594  0.7348
 9026TIP3    H151273   1.085   5.421   8.102  0.0063 -0.9623  0.1098
 9026TIP3    H251274   1.232   5.398   8.132 -0.5352 -2.8004  1.4883
 9027TIP3   OH251275   0.710   1.127   6.573 -0.2672  0.6111  0.3183
 9027TIP3    H151276   0.694   1.098   6.662 -0.1664 -1.8054 -0.3863
 9027TIP3    H251277   0.669   1.060   6.518  0.9181  1.2750 -1.4524
 9028TIP3   OH251278   3.831   5.260   8.445  0.1414  0.7267  0.2999
 9028TIP3    H151279   3.778   5.185   8.473 -0.3601  1.3045  0.9151
 9028TIP3    H251280   3.921   5.227   8.445 -0.1814 -0.2110 -0.5756
 9029TIP3   OH251281   1.375   5.275   6.176  0.5640 -0.0230 -0.0774
 9029TIP3    H151282   1.406   5.224   6.251  0.6541 -0.6660 -0.5519
 9029TIP3    H251283   1.339   5.354   6.216  3.5666  1.2138  0.4838
 9030TIP3   OH251284   6.293   1.262   7.246  0.3717 -0.7280 -0.0832
 9030TIP3    H151285   6.221   1.295   7.299  1.2955  1.2333  0.0216
 9030TIP3    H251286   6.362   1.242   7.309  2.0462  3.0525 -0.4524
 9031TIP3   OH251287   1.957   5.652   8.206  0.5759  0.4021  0.1251
 9031TIP3    H151288   1.875   5.646   8.256  0.4852  1.5409  0.1372
 9031TIP3    H251289   1.988   5.741   8.222  1.2710  0.3258 -0.7406
 9032TIP3   OH251290   2.387   5.961   5.660  0.6095 -0.4945 -0.2883
 9032TIP3    H151291   2.449   5.917   5.719  0.0459 -0.0507  0.6711
 9032TIP3    H251292   2.402   5.921   5.575  1.1721 -1.4600  0.2448
 9033TIP3   OH251293   0.156   5.454   7.572  0.2070  0.0412  0.1196
 9033TIP3    H151294   0.110   5.491   7.497 -2.4745  1.0333  2.0893
 9033TIP3    H251295   0.148   5.521   7.641  2.6395 -0.7706  1.3062
 9034TIP3   OH251296   0.889   6.216   6.214  0.0710 -0.5485  0.4985
 9034TIP3    H151297   0.840   6.197   6.134 -0.1433 -2.1721  0.9675
 9034TIP3    H251298   0.981   6.211   6.188  0.0003 -0.8032  0.2889
 9035TIP3   OH251299   1.359   1.505   7.224  0.2003 -0.3195 -0.0093
 9035TIP3    H151300   1.268   1.483   7.207  0.1755 -1.0914  1.0118
 9035TIP3    H251301   1.365   1.512   7.319  1.0626  0.3702 -0.0961
 9036TIP3   OH251302   1.938   5.638   7.427 -0.3291  0.3986  0.6448
 9036TIP3    H151303   1.958   5.668   7.516  1.1481  3.1044 -0.4506
 9036TIP3    H251304   1.968   5.547   7.424  1.2874  0.8121  2.4272
 9037TIP3   OH251305   6.389   6.136   8.457 -0.2489  0.3162  0.0507
 9037TIP3    H151306   6.455   6.109   8.521  1.4451  1.2194 -1.2363
 9037TIP3    H251307   6.324   6.066   8.459  0.9347 -0.8077  1.0883
 9038TIP3   OH251308   1.992   2.698   7.286  0.0640 -0.2633 -0.5083
 9038TIP3    H151309   1.960   2.788   7.293  0.3071 -0.0763 -1.6164
 9038TIP3    H251310   1.919   2.650   7.245  0.0094 -0.5345 -0.1027
 9039TIP3   OH251311   4.947   3.621   7.337  0.5600 -0.8529 -0.0687
 9039TIP3    H151312   4.901   3.700   7.366  2.8813 -0.1943  2.2226
 9039TIP3    H251313   4.946   3.626   7.242  0.6607  2.0022 -0.0163
 9040TIP3   OH251314   3.505   2.047   7.890 -0.0338  0.1223 -0.4094
 9040TIP3    H151315   3.433   2.013   7.942 -0.9953 -0.1468 -1.8697
 9040TIP3    H251316   3.556   2.099   7.952 -1.8470  0.8801  0.5228
 9041TIP3   OH251317   5.496   3.699   8.440 -0.5723  0.2246  0.4270
 9041TIP3    H151318   5.476   3.674   8.530  0.7874  1.2593  1.0631
 9041TIP3    H251319   5.590   3.681   8.431 -0.8205 -0.4719 -1.0064
 9042TIP3   OH251320   1.137   5.743   6.671 -0.3150 -0.0802 -0.5466
 9042TIP3    H151321   1.137   5.838   6.654  1.2260 -0.3814 -2.6680
 9042TIP3    H251322   1.194   5.732   6.747  1.2685  0.5847 -1.5724
 9043TIP3   OH251323   0.059   1.353   8.434 -0.0574  0.3252  0.2603
 9043TIP3    H151324  -0.026   1.314   8.455  0.0665  0.7765  1.7481
 9043TIP3    H251325   0.051   1.444   8.463  0.4342  0.7850 -1.0031
 9044TIP3   OH251326   0.579   3.441   8.305 -0.1674  0.3498  0.5398
 9044TIP3    H151327   0.574   3.537   8.307  0.1978  0.3882 -0.0337
 9044TIP3    H251328   0.488   3.412   8.311 -0.2648  0.7255  0.9496
 9045TIP3   OH251329   4.805   1.424   6.183 -0.2868 -0.3052 -0.3890
 9045TIP3    H151330   4.716   1.449   6.206  0.1173  0.2305  0.6665
 9045TIP3    H251331   4.847   1.405   6.267  1.2559  1.6842 -0.6245
 9046TIP3   OH251332   3.159   3.066   6.759 -0.5648  0.2045 -0.0314
 9046TIP3    H151333   3.117   3.143   6.720  0.6076  1.3076  0.8074
 9046TIP3    H251334   3.125   2.992   6.708 -1.7945  1.2521 -0.8004
 9047TIP3   OH251335   0.741   5.607   7.222 -0.1489  0.5398  0.3742
 9047TIP3    H151336   0.825   5.624   7.179  0.3200 -0.9161  0.6744
 9047TIP3    H251337   0.694   5.551   7.161 -0.3886  0.3183  0.7617
 9048TIP3   OH251338   2.582   4.825   8.270 -0.8314 -0.6741  0.0710
 9048TIP3    H151339   2.555   4.802   8.359  0.8483  0.9357  1.0610
 9048TIP3    H251340   2.663   4.873   8.281  0.0376 -1.3936 -2.4435
 9049TIP3   OH251341   4.032   2.786   8.464 -0.6056  0.7134  0.2526
 9049TIP3    H151342   4.099   2.796   8.531 -0.7782  1.5355  0.3146
 9049TIP3    H251343   3.966   2.729   8.503 -0.0411  0.0602  0.2629
 9050TIP3   OH251344   1.312   4.066   8.131  1.2920 -0.0383 -0.1916
 9050TIP3    H151345   1.242   4.131   8.122 -0.1353 -1.4475  0.2298
 9050TIP3    H251346   1.332   4.040   8.041 -0.7603 -1.6165 -0.2827
 9051TIP3   OH251347   1.358   2.723   5.945 -0.5548  0.1388 -0.0815
 9051TIP3    H151348   1.313   2.806   5.937 -0.6662 -0.0975 -2.9384
 9051TIP3    H251349   1.446   2.740   5.911 -0.6635 -0.9282 -0.9612
 9052TIP3   OH251350   4.219   4.320   8.525 -0.1120 -0.3598 -0.0187
 9052TIP3    H151351   4.179   4.392   8.476 -1.0163 -1.6268 -1.2188
 9052TIP3    H251352   4.184   4.329   8.613 -2.3980 -0.8504 -0.7972
 9053TIP3   OH251353   5.751   2.767   6.275 -0.2943 -0.2061 -0.0492
 9053TIP3    H151354   5.688   2.712   6.321  0.1560  0.6618  1.7366
 9053TIP3    H251355   5.806   2.706   6.226 -0.7130 -1.2156  0.7173
 9054TIP3   OH251356   3.847   2.775   7.164  0.3810  0.5912 -0.1114
 9054TIP3    H151357   3.910   2.756   7.096  0.7642 -0.1282  0.4411
 9054TIP3    H251358   3.878   2.728   7.241 -1.3568 -0.6237 -0.0893
 9055TIP3   OH251359   3.607   2.129   5.891 -0.1098 -0.0097 -0.2641
 9055TIP3    H151360   3.528   2.178   5.871  0.5718  1.2589  0.0484
 9055TIP3    H251361   3.633   2.090   5.807 -0.3074  0.6988 -0.6614
 9056TIP3   OH251362   5.723   0.782   8.161 -0.1711 -0.3024  0.0129
 9056TIP3    H151363   5.757   0.695   8.180  2.9670  1.0602  1.2456
 9056TIP3    H251364   5.799   0.840   8.167 -2.4436  2.8442  1.4502
 9057TIP3   OH251365   5.624   4.309   6.054 -0.3871 -0.0705  0.1524
 9057TIP3    H151366   5.567   4.287   6.128 -0.3044  0.3026  0.3252
 9057TIP3    H251367   5.677   4.382   6.085 -0.6119  0.3372 -0.3994
 9058TIP3   OH251368   1.979   1.505   7.547  0.2650 -0.0243  0.2937
 9058TIP3    H151369   2.020   1.420   7.565  1.2335  0.4330  0.3161
 9058TIP3    H251370   1.894   1.500   7.590  1.5829  0.2008  3.1307
 9059TIP3   OH251371   3.389   3.265   8.360 -0.5184  0.3673 -0.3262
 9059TIP3    H151372   3.440   3.280   8.439 -0.9362  1.6789 -0.2764
 9059TIP3    H251373   3.329   3.194   8.383 -0.1373  0.2358  0.2903
 9060TIP3   OH251374   4.696   6.064   7.052 -0.6570 -0.4171  0.3552
 9060TIP3    H151375   4.683   6.049   6.959 -0.4745  0.3718  0.2006
 9060TIP3    H251376   4.643   6.141   7.072 -0.6191 -0.5226  0.8809
 9061TIP3   OH251377   2.373   2.015   8.253 -0.3153  0.1240  0.5299
 9061TIP3    H151378   2.385   2.015   8.158  0.5035 -1.0117  0.6160
 9061TIP3    H251379   2.326   1.934   8.272 -0.2081  0.1951  1.1252
 9062TIP3   OH251380   0.487   0.145   6.810 -0.1376 -0.4069 -0.0549
 9062TIP3    H151381   0.562   0.087   6.825 -0.3294 -1.1131 -1.6230
 9062TIP3    H251382   0.527   0.229   6.786  0.1332 -0.1340  1.2492
 9063TIP3   OH251383   5.180   3.687   7.695 -0.3455 -0.3325 -0.4246
 9063TIP3    H151384   5.148   3.775   7.675 -0.0942  0.1079  0.9834
 9063TIP3    H251385   5.100   3.636   7.712 -0.4506  0.4990  2.0374
 9064TIP3   OH251386   6.517   1.417   6.987 -0.2252  0.3795  0.1023
 9064TIP3    H151387   6.514   1.445   6.895  3.4030 -0.7198 -0.5134
 9064TIP3    H251388   6.531   1.499   7.036 -0.4767  0.7967 -0.5091
 9065TIP3   OH251389   4.169   5.824   6.578  0.0332 -0.2217 -0.0122
 9065TIP3    H151390   4.198   5.851   6.665 -1.3213  1.1298  0.0614
 9065TIP3    H251391   4.250   5.814   6.528  0.7161  2.5736  0.3986
 9066TIP3   OH251392   3.187   5.852   6.150 -0.2770  0.3419  0.2512
 9066TIP3    H151393   3.268   5.904   6.141 -0.0251 -0.0341  0.3264
 9066TIP3    H251394   3.218   5.764   6.171 -0.6887  0.0703 -0.2614
 9067TIP3   OH251395   3.322   4.088   5.604 -0.5793 -0.8911 -0.6066
 9067TIP3    H151396   3.263   4.103   5.677  1.7463  2.3340  0.8868
 9067TIP3    H251397   3.290   4.147   5.535  1.6999  2.4287  0.9074
 9068TIP3   OH251398   3.757   3.536   8.157  0.4781  0.3172 -0.1987
 9068TIP3    H151399   3.750   3.563   8.066 -0.4925  0.3334 -0.1260
 9068TIP3    H251400   3.752   3.441   8.154  1.9510  0.2198 -0.2819
 9069TIP3   OH251401   0.249   3.165   6.018  0.3760 -0.4429 -0.4173
 9069TIP3    H151402   0.247   3.076   5.984  1.7011 -0.1676 -1.3004
 9069TIP3    H251403   0.293   3.157   6.103 -0.6301 -0.7814  0.0862
 9070TIP3   OH251404   0.407   0.901   6.555 -0.3331  0.2649  0.3047
 9070TIP3    H151405   0.382   0.915   6.646 -0.7285  0.6172  0.1471
 9070TIP3    H251406   0.350   0.830   6.525  0.4447 -0.5023  0.5928
 9071TIP3   OH251407   1.636   3.251   6.314  0.2353  0.4781 -0.4688
 9071TIP3    H151408   1.568   3.308   6.278 -0.0336  0.0773 -0.5986
 9071TIP3    H251409   1.625   3.260   6.409 -0.2268  0.1560 -0.4847
 9072TIP3   OH251410   3.603   1.571   7.163  0.0487 -0.1683  0.0296
 9072TIP3    H151411   3.526   1.627   7.170  0.8605  1.1000 -0.6278
 9072TIP3    H251412   3.677   1.632   7.164  1.0118 -1.2929 -0.0252
 9073TIP3   OH251413   0.485   3.707   8.380  0.1971  0.1276  0.3197
 9073TIP3    H151414   0.428   3.764   8.329 -1.4762 -2.6429 -1.1841
 9073TIP3    H251415   0.430   3.675   8.451  0.9832  0.1114  0.9313
 9074TIP3   OH251416   0.955   3.919   8.506 -0.0383  0.3768  0.1591
 9074TIP3    H151417   1.023   3.863   8.544 -2.5678 -2.1752  1.3415
 9074TIP3    H251418   0.935   3.879   8.421 -0.1992  0.9544 -0.0795
 9075TIP3   OH251419   3.342   0.211   8.381  0.4294 -0.3109  0.1593
 9075TIP3    H151420   3.324   0.122   8.352 -0.3733 -0.2164  0.3374
 9075TIP3    H251421   3.303   0.266   8.313 -0.0196 -0.0936  0.5951
 9076TIP3   OH251422   6.682   6.292   7.372 -0.6403  0.2168 -0.0737
 9076TIP3    H151423   6.680   6.387   7.375 -1.3397  0.1730  1.9970
 9076TIP3    H251424   6.771   6.269   7.399 -0.7225  0.2652  0.2378
 9077TIP3   OH251425   3.955   6.044   8.107 -0.0263 -0.0416 -0.1372
 9077TIP3    H151426   3.920   6.008   8.189  0.5739  0.3586  0.3032
 9077TIP3    H251427   4.015   5.977   8.075 -0.8522 -0.5475 -0.6798
 9078TIP3   OH251428   3.686   5.491   8.557  0.1082 -0.3009 -0.9926
 9078TIP3    H151429   3.731   5.474   8.640 -1.8188 -1.2231 -0.0731
 9078TIP3    H251430   3.730   5.434   8.494  1.3875  0.1739 -0.5547
 9079TIP3   OH251431   4.549   5.303   7.045  0.0752  0.0718  0.3995
 9079TIP3    H151432   4.626   5.318   7.100 -0.0330  0.6400  0.4004
 9079TIP3    H251433   4.528   5.210   7.059  0.0897  0.1852  1.2558
 9080TIP3   OH251434   5.740   6.094   8.009 -0.5099  0.0169  0.2668
 9080TIP3    H151435   5.717   6.064   7.921 -1.2492 -1.0759  0.8011
 9080TIP3    H251436   5.732   6.189   8.005  0.1948  0.0393 -1.0332
 9081TIP3   OH251437   2.279   4.280   8.626 -0.9184  0.0764 -0.0348
 9081TIP3    H151438   2.225   4.202   8.618 -0.4729 -0.3684  1.1302
 9081TIP3    H251439   2.368   4.248   8.640 -0.3225  0.8015 -1.7546
 9082TIP3   OH251440   2.634   0.157   8.040 -0.0070 -0.5405 -0.3465
 9082TIP3    H151441   2.650   0.251   8.049  2.7587 -1.0200  0.7278
 9082TIP3    H251442   2.578   0.136   8.115 -0.9405  0.2874 -0.7924
 9083TIP3   OH251443   4.923   2.563   7.291  0.3339 -0.0554 -0.0995
 9083TIP3    H151444   5.006   2.539   7.250 -0.1554 -0.5220 -0.8469
 9083TIP3    H251445   4.870   2.598   7.220 -0.9914 -2.0577 -0.1860
 9084TIP3   OH251446   0.322   5.348   7.282  0.1372 -0.4196 -0.1787
 9084TIP3    H151447   0.415   5.335   7.265  0.6209 -0.0949  1.8997
 9084TIP3    H251448   0.307   5.441   7.264  0.4138 -0.3000  0.1698
 9085TIP3   OH251449   3.752   4.403   6.538 -0.5098  0.3951  0.7573
 9085TIP3    H151450   3.823   4.354   6.579  0.1943  0.5787 -0.2033
 9085TIP3    H251451   3.795   4.453   6.468 -2.0519 -2.9898 -3.0335
 9086TIP3   OH251452   5.413   1.960   6.163  0.2810 -0.3285 -0.0950
 9086TIP3    H151453   5.376   1.975   6.076  1.3240 -2.6201 -1.0310
 9086TIP3    H251454   5.406   2.044   6.207 -1.1881  0.6568 -2.0353
 9087TIP3   OH251455   1.451   6.096   5.606 -0.2104  0.1300 -0.0642
 9087TIP3    H151456   1.445   6.039   5.682  0.3976 -0.8701 -0.7411
 9087TIP3    H251457   1.365   6.092   5.565 -0.8560  1.4631  1.0939
 9088TIP3   OH251458   0.318   1.567   6.682 -0.1377 -0.0186 -0.5254
 9088TIP3    H151459   0.271   1.581   6.600  0.0561 -1.4180 -0.8914
 9088TIP3    H251460   0.350   1.477   6.677  0.1061 -0.0421  0.9737
 9089TIP3   OH251461   2.677   0.082   7.708  0.2252  0.0132  0.3392
 9089TIP3    H151462   2.620   0.025   7.759  0.5855  0.2231  0.9869
 9089TIP3    H251463   2.706   0.150   7.769 -0.5612  1.1774 -0.5202
 9090TIP3   OH251464   6.496   6.608   5.999 -0.6280 -0.1425 -0.1908
 9090TIP3    H151465   6.582   6.612   5.956 -0.3106 -0.0734  0.4355
 9090TIP3    H251466   6.485   6.515   6.021 -0.3699 -0.0367  0.4032
 9091TIP3   OH251467   0.809   4.243   6.121 -0.5849  0.5290  0.1719
 9091TIP3    H151468   0.874   4.178   6.149 -0.6613  0.3468 -0.0596
 9091TIP3    H251469   0.860   4.321   6.100 -0.5282  0.6596  0.7942
 9092TIP3   OH251470   2.855   3.623   8.690  0.3565  0.1603  0.2398
 9092TIP3    H151471   2.940   3.659   8.715 -0.9822  2.8227  1.3695
 9092TIP3    H251472   2.828   3.569   8.765  0.3599  0.6867  0.6305
 9093TIP3   OH251473   2.691   5.828   5.905 -0.2966  0.3704  0.0994
 9093TIP3    H151474   2.616   5.770   5.911  1.7602 -2.4287  1.1367
 9093TIP3    H251475   2.766   5.772   5.926  2.2705  2.5867 -2.3465
 9094TIP3   OH251476   4.008   4.128   6.512 -0.3149  0.1933 -0.7363
 9094TIP3    H151477   4.068   4.196   6.482  0.9552 -0.5149  0.1147
 9094TIP3    H251478   3.981   4.156   6.599  1.9724 -1.4150  0.5770
 9095TIP3   OH251479   0.429   3.565   6.833 -0.7545  0.1887  0.0577
 9095TIP3    H151480   0.493   3.575   6.762 -0.9829  0.2758 -0.1371
 9095TIP3    H251481   0.360   3.629   6.812 -0.3497  0.9187  0.8833
 9096TIP3   OH251482   0.614   1.598   6.647  0.0734 -0.1638  0.3513
 9096TIP3    H151483   0.602   1.628   6.737  0.3739  0.4915  0.1824
 9096TIP3    H251484   0.541   1.538   6.631 -0.3521  0.2265  0.8107
 9097TIP3   OH251485   3.754   6.738   6.978  0.4093 -0.4297  0.6890
 9097TIP3    H151486   3.814   6.693   6.919  0.3196  0.6873 -0.2878
 9097TIP3    H251487   3.671   6.690   6.968  0.0551  0.4460 -1.0493
 9098TIP3   OH251488   0.517   5.853   6.475  0.9146 -0.0822  0.1955
 9098TIP3    H151489   0.490   5.924   6.533  2.6805  0.0854  0.8645
 9098TIP3    H251490   0.442   5.839   6.418  0.1231  1.5731  0.7707
 9099TIP3   OH251491   2.044   3.183   7.692 -0.1531  0.2590 -0.6247
 9099TIP3    H151492   2.123   3.138   7.661  0.7905 -1.5137  3.6114
 9099TIP3    H251493   1.974   3.119   7.677 -0.1849  0.4630 -1.3676
 9100TIP3   OH251494   6.182   4.368   5.976  0.0325  0.1092  0.1957
 9100TIP3    H151495   6.104   4.337   6.023 -0.6015 -1.3098 -1.6638
 9100TIP3    H251496   6.148   4.421   5.905  0.7971  0.0374 -0.2325
 9101TIP3   OH251497   6.243   6.192   7.928  0.5953  0.2970  0.2851
 9101TIP3    H151498   6.208   6.228   8.009  0.5796  1.7415 -0.3249
 9101TIP3    H251499   6.333   6.223   7.925  0.2162  1.3794 -0.8474
 9102TIP3   OH251500   4.760   3.471   8.308 -0.1155 -0.2364 -0.2555
 9102TIP3    H151501   4.836   3.530   8.308  0.7391 -1.3081 -0.3158
 9102TIP3    H251502   4.699   3.511   8.369  1.3542 -0.4135  1.4069
 9103TIP3   OH251503   5.540   4.850   5.693 -0.5823  0.4835 -0.1975
 9103TIP3    H151504   5.452   4.885   5.679 -0.2286  1.9127  0.9779
 9103TIP3    H251505   5.575   4.901   5.766  1.7276  0.8625 -1.4976
 9104TIP3   OH251506   6.490   4.076   6.385 -0.0844 -0.0256 -0.4355
 9104TIP3    H151507   6.450   4.089   6.471 -0.4069 -1.3601 -0.3588
 9104TIP3    H251508   6.444   4.136   6.327  0.6017  1.3975  0.4355
 9105TIP3   OH251509   6.051   3.105   5.917 -0.0694 -0.0020  0.3012
 9105TIP3    H151510   6.075   3.198   5.914  0.5621 -0.1097  1.4461
 9105TIP3    H251511   5.963   3.102   5.881 -0.8473  1.3224  1.9319
 9106TIP3   OH251512   1.577   0.046   6.987  0.2597 -0.2207  0.6972
 9106TIP3    H151513   1.511  -0.017   6.956  0.2565  0.3657 -0.5598
 9106TIP3    H251514   1.544   0.076   7.072 -1.2805  0.2723 -0.0339
 9107TIP3   OH251515   3.971   3.949   5.754 -0.1488 -0.4804 -0.0619
 9107TIP3    H151516   3.923   3.868   5.737 -0.8563 -0.4023  1.4223
 9107TIP3    H251517   4.063   3.922   5.758 -0.4354 -1.3484  1.1470
 9108TIP3   OH251518   1.192   4.564   8.091  0.4533 -0.7683 -0.6164
 9108TIP3    H151519   1.268   4.616   8.116 -0.7778  0.2707  1.2772
 9108TIP3    H251520   1.152   4.613   8.019 -1.1678  1.6179  1.6881
 9109TIP3   OH251521   4.426   1.237   5.467  0.6953 -0.0483  0.2729
 9109TIP3    H151522   4.498   1.221   5.528  0.6007 -1.8019 -0.0115
 9109TIP3    H251523   4.468   1.267   5.387  1.1282 -0.9630  0.1404
 9110TIP3   OH251524   0.611   6.580   8.854 -0.1628 -0.0919 -0.0207
 9110TIP3    H151525   0.532   6.544   8.813  0.1052  0.4354 -1.0273
 9110TIP3    H251526   0.580   6.653   8.907 -0.3084  0.4203 -0.7996
 9111TIP3   OH251527   4.450   0.821   7.363 -0.0993 -0.4904  0.0000
 9111TIP3    H151528   4.522   0.809   7.425  1.1392 -1.5670 -1.5556
 9111TIP3    H251529   4.483   0.784   7.281 -1.9813  0.1283 -1.0930
 9112TIP3   OH251530   3.794   2.085   6.587 -0.3297  0.1860  0.1768
 9112TIP3    H151531   3.852   2.104   6.513  0.3702 -1.0990  0.3753
 9112TIP3    H251532   3.837   2.124   6.663 -0.7244  0.9380  0.0258
 9113TIP3   OH251533   5.957   2.579   5.779 -0.6716  0.9884 -0.6782
 9113TIP3    H151534   6.023   2.560   5.846  0.4703  0.4465 -1.9117
 9113TIP3    H251535   6.005   2.577   5.696 -2.3660 -0.1413 -1.7008
 9114TIP3   OH251536   3.821   5.433   6.823 -0.0222 -0.1526  0.1649
 9114TIP3    H151537   3.884   5.452   6.754  0.4951 -0.9191  0.4108
 9114TIP3    H251538   3.800   5.518   6.861 -0.4903  0.3093 -1.0651
 9115TIP3   OH251539   1.378   4.994   7.726  0.4024 -0.2221  0.1790
 9115TIP3    H151540   1.304   4.979   7.784 -1.0383  1.6303 -1.0714
 9115TIP3    H251541   1.428   5.064   7.767 -0.3916  0.8045 -0.5595
 9116TIP3   OH251542   4.864   1.340   6.941 -0.1683  0.3922  0.1899
 9116TIP3    H151543   4.891   1.338   7.032  0.0962  1.6869  0.1628
 9116TIP3    H251544   4.940   1.310   6.891 -0.6169 -1.2218  0.4279
 9117TIP3   OH251545   1.610   6.637   7.917 -0.3242  0.2604  0.3067
 9117TIP3    H151546   1.665   6.693   7.972  1.6610 -0.4746 -0.8070
 9117TIP3    H251547   1.558   6.698   7.865  1.4341  1.1196 -0.5300
 9118TIP3   OH251548   3.082   5.415   5.938  0.1873 -0.3593 -0.0870
 9118TIP3    H151549   3.161   5.390   5.986  0.2286 -0.4257 -0.1875
 9118TIP3    H251550   3.016   5.431   6.005  0.8951  1.9336  0.1424
 9119TIP3   OH251551   2.614   0.350   5.843 -0.3191  0.3571 -0.0916
 9119TIP3    H151552   2.650   0.296   5.913  0.5160  2.1263  0.9296
 9119TIP3    H251553   2.523   0.320   5.833  0.3875 -1.8606 -0.2916
 9120TIP3   OH251554   0.026   6.294   9.001  0.2966  0.2606 -0.4029
 9120TIP3    H151555  -0.029   6.227   8.960 -0.5503  1.0522 -0.5910
 9120TIP3    H251556   0.061   6.252   9.079  0.5875 -0.7201 -1.0437
 9121TIP3   OH251557   5.000   1.213   6.726 -0.0017  0.6427  0.4904
 9121TIP3    H151558   4.907   1.191   6.729  0.1502  0.0518  1.3712
 9121TIP3    H251559   5.038   1.149   6.665  0.0780 -0.1446  1.3541
 9122TIP3   OH251560   4.906   5.189   5.844 -0.4157 -0.3689 -0.2121
 9122TIP3    H151561   4.897   5.255   5.913  0.0645 -1.3680  0.8330
 9122TIP3    H251562   4.970   5.226   5.783 -0.6893  0.4288 -0.0222
 9123TIP3   OH251563   5.792   3.387   7.921 -0.1505  0.0312 -0.0066
 9123TIP3    H151564   5.811   3.481   7.921  0.5537 -0.0844 -1.5240
 9123TIP3    H251565   5.877   3.345   7.914 -0.5457 -0.6777 -0.7382
 9124TIP3   OH251566   0.580   4.062   7.333 -0.3474 -0.3413  0.1943
 9124TIP3    H151567   0.602   3.987   7.277 -1.8339 -3.2036  3.0551
 9124TIP3    H251568   0.500   4.098   7.294  0.1338 -0.5305 -1.0001
 9125TIP3   OH251569   2.097   3.809   8.921 -0.2542  0.0662 -0.4671
 9125TIP3    H151570   2.114   3.902   8.906  0.0684 -0.0623 -0.8924
 9125TIP3    H251571   2.182   3.766   8.910 -0.6161 -0.4293 -1.4584
 9126TIP3   OH251572   3.391   3.058   6.478  0.1507  0.2161  0.1551
 9126TIP3    H151573   3.358   2.971   6.459  2.0515 -0.9728  1.8570
 9126TIP3    H251574   3.440   3.084   6.400 -0.0828 -0.4037 -0.1985
 9127TIP3   OH251575   5.138   1.573   6.182 -0.2182 -0.2383 -0.2978
 9127TIP3    H151576   5.126   1.560   6.276 -1.6145 -0.8212 -0.5369
 9127TIP3    H251577   5.079   1.645   6.160 -1.9399 -1.8310 -1.1595
 9128TIP3   OH251578   4.970   2.201   7.213  0.4992 -0.4972  0.2861
 9128TIP3    H151579   5.031   2.271   7.190 -2.4965  2.4084  0.4026
 9128TIP3    H251580   4.986   2.184   7.305  1.4553 -0.1888  0.1894
 9129TIP3   OH251581   0.002   0.851   8.316 -0.1228  0.2574  0.4734
 9129TIP3    H151582   0.056   0.927   8.297  1.5003 -1.2750 -1.4746
 9129TIP3    H251583  -0.002   0.847   8.412  1.8363  1.3861  0.6442
 9130TIP3   OH251584   0.364   2.031   8.701  0.7835  0.1005  0.3762
 9130TIP3    H151585   0.384   2.117   8.739 -2.7978  1.3851 -0.2261
 9130TIP3    H251586   0.393   2.039   8.610  0.1802  0.8312  0.2353
 9131TIP3   OH251587   3.924   4.195   5.500 -0.4079 -0.3493 -0.3301
 9131TIP3    H151588   3.888   4.205   5.589  2.4280 -2.1993  1.1975
 9131TIP3    H251589   3.887   4.112   5.469  2.2868 -2.2824  1.2626
 9132TIP3   OH251590   6.700   3.935   7.900  0.3195 -0.1516  0.0259
 9132TIP3    H151591   6.675   4.017   7.943  0.0225 -0.4789  0.4957
 9132TIP3    H251592   6.730   3.961   7.813  0.5352  0.4857  0.2854
 9133TIP3   OH251593   0.372   4.884   5.952 -0.1586 -0.8223  0.0325
 9133TIP3    H151594   0.347   4.805   5.902  0.4241 -1.4429  0.6975
 9133TIP3    H251595   0.435   4.928   5.895 -1.2043 -0.3141 -0.7635
 9134TIP3   OH251596   3.946   2.249   6.745 -0.3690  0.2727 -0.5499
 9134TIP3    H151597   3.992   2.304   6.809  0.6114 -1.6963  0.5148
 9134TIP3    H251598   3.976   2.282   6.660  1.6560  0.2211  0.0809
 9135TIP3   OH251599   5.343   5.108   5.566  0.0891 -0.2675 -0.2922
 9135TIP3    H151600   5.399   5.113   5.644 -2.7126 -2.5746  2.0719
 9135TIP3    H251601   5.300   5.193   5.562  2.3865  0.9377 -1.1828
 9136TIP3   OH251602   4.424   3.843   8.828  0.7931 -0.2385  0.0395
 9136TIP3    H151603   4.431   3.795   8.746  2.3712 -1.7738  1.0109
 9136TIP3    H251604   4.514   3.866   8.851  0.5618 -1.1063  2.0269
 9137TIP3   OH251605   3.603   5.392   9.579 -0.3614 -0.3347 -0.1798
 9137TIP3    H151606   3.563   5.423   9.659  3.5659 -0.8249  2.2620
 9137TIP3    H251607   3.622   5.471   9.528 -2.6289 -0.0028 -0.5959
 9138TIP3   OH251608   1.675   1.053   8.655  0.5428 -0.2834  0.1653
 9138TIP3    H151609   1.724   0.973   8.638  3.3501  1.0783  1.2270
 9138TIP3    H251610   1.667   1.057   8.750 -1.0281 -0.0746  0.0490
 9139TIP3   OH251611   1.957   1.894   5.919 -0.4786 -0.4809  0.1597
 9139TIP3    H151612   1.998   1.875   6.003 -0.9961 -0.7255  0.3583
 9139TIP3    H251613   2.000   1.974   5.889 -0.3744 -0.3269  0.7136
 9140TIP3   OH251614   5.271   5.095   7.013  0.6643  0.1208  0.0464
 9140TIP3    H151615   5.360   5.128   7.019  0.9465 -0.7404  0.5771
 9140TIP3    H251616   5.252   5.058   7.099  0.1204 -0.5182 -0.3346
 9141TIP3   OH251617   3.193   4.378   5.847  0.0463 -0.6246 -0.1171
 9141TIP3    H151618   3.196   4.473   5.862  0.7716 -0.8926  1.7224
 9141TIP3    H251619   3.184   4.341   5.935 -1.2803 -2.2418 -0.8896
 9142TIP3   OH251620   6.089   2.437   5.981 -0.3226 -0.2834  0.4434
 9142TIP3    H151621   6.034   2.364   5.952  0.5724 -1.2189  1.0443
 9142TIP3    H251622   6.077   2.439   6.076  0.0558  0.0236  0.4842
 9143TIP3   OH251623   0.261   0.094   5.913 -0.0359  0.0921  0.3112
 9143TIP3    H151624   0.245   0.089   6.008 -0.3496  1.6240  0.3626
 9143TIP3    H251625   0.179   0.126   5.876  0.8631  1.9625 -0.1627
 9144TIP3   OH251626   5.690   1.552   6.764 -0.4290 -0.0320 -0.0442
 9144TIP3    H151627   5.654   1.503   6.690 -1.4853 -0.2712  0.6034
 9144TIP3    H251628   5.763   1.601   6.727 -0.5639 -0.6039 -1.1164
 9145TIP3   OH251629   6.060   0.832   7.070  0.2790 -0.1717 -0.1569
 9145TIP3    H151630   6.079   0.925   7.086  2.6819 -0.7205  0.6848
 9145TIP3    H251631   6.075   0.821   6.976  0.6816  0.1714 -0.1389
 9146TIP3   OH251632   1.381   2.972   9.301 -0.2705 -0.5172  0.7047
 9146TIP3    H151633   1.311   2.997   9.361 -0.6136 -0.3894  0.2502
 9146TIP3    H251634   1.385   3.043   9.237  1.1682  0.1478  1.4747
 9147TIP3   OH251635   1.476   0.466   6.049  0.0139 -0.2432  0.0900
 9147TIP3    H151636   1.494   0.450   5.956 -0.2379  0.5776 -0.1038
 9147TIP3    H251637   1.542   0.530   6.076 -0.0410 -0.3260  0.4280
 9148TIP3   OH251638   1.748   2.560   8.505 -0.0967 -0.2037 -0.0031
 9148TIP3    H151639   1.673   2.588   8.558 -1.0502 -0.3116 -1.2343
 9148TIP3    H251640   1.711   2.494   8.446  1.2670 -1.1960  0.2271
 9149TIP3   OH251641   2.975   3.803   5.581 -0.3154  0.7351  0.3521
 9149TIP3    H151642   2.969   3.897   5.562 -0.1435  0.9415  1.2827
 9149TIP3    H251643   2.891   3.781   5.621 -0.0544  0.6680  0.8660
 9150TIP3   OH251644   3.719   0.657   9.242 -0.0969  0.4166 -0.2802
 9150TIP3    H151645   3.725   0.748   9.270  0.2275  0.6147 -0.9587
 9150TIP3    H251646   3.809   0.635   9.216 -0.6378  0.8023 -2.8025
 9151TIP3   OH251647   0.373   3.606   7.626 -0.0130  0.1070  0.3918
 9151TIP3    H151648   0.283   3.614   7.657  0.1001  0.2503  0.6933
 9151TIP3    H251649   0.393   3.512   7.635 -0.9413 -0.3771 -2.0190
 9152TIP3   OH251650   4.336   1.359   7.762  0.4232  0.6527 -0.1454
 9152TIP3    H151651   4.395   1.329   7.694 -0.3146 -0.9241 -0.1525
 9152TIP3    H251652   4.277   1.420   7.718 -0.2463 -0.5860 -1.0286
 9153TIP3   OH251653   6.298   4.453   6.512 -0.5441 -0.3666  0.3749
 9153TIP3    H151654   6.266   4.532   6.557  1.2332  0.6511 -0.0215
 9153TIP3    H251655   6.391   4.471   6.498 -0.3453 -2.0974 -0.7207
 9154TIP3   OH251656   3.815   0.203   8.347 -0.2714  0.6536  0.1019
 9154TIP3    H151657   3.722   0.199   8.323 -0.5153  1.5730  0.8451
 9154TIP3    H251658   3.815   0.241   8.434  0.8148  0.6427  0.1131
 9155TIP3   OH251659   4.917   0.208   7.966 -0.1054  0.0395  0.0713
 9155TIP3    H151660   4.931   0.266   8.041 -0.5297  1.0906 -0.6395
 9155TIP3    H251661   4.847   0.250   7.917 -0.1489 -0.8844 -0.6693
 9156TIP3   OH251662   2.496   2.094   8.472 -0.0926 -0.3147 -0.3752
 9156TIP3    H151663   2.484   2.047   8.390  2.0190  0.9284 -1.4666
 9156TIP3    H251664   2.410   2.132   8.491 -1.0335 -1.9970 -1.0822
 9157TIP3   OH251665   4.545   5.929   8.925  0.0108  0.0616  0.4225
 9157TIP3    H151666   4.574   5.883   8.846  0.1301  1.7801 -0.5771
 9157TIP3    H251667   4.625   5.963   8.965  0.1185 -1.9715  2.1298
 9158TIP3   OH251668   5.601   5.232   6.447  0.1400  0.0145  0.2655
 9158TIP3    H151669   5.542   5.297   6.486 -0.2980  0.8045 -1.5608
 9158TIP3    H251670   5.549   5.152   6.445 -0.4226  0.3713 -0.1164
 9159TIP3   OH251671   5.993   0.284   5.665 -0.4404  0.2919  0.2031
 9159TIP3    H151672   5.897   0.288   5.664 -0.6387 -1.9597  1.9075
 9159TIP3    H251673   6.014   0.253   5.753  1.9023  1.1042 -0.0251
 9160TIP3   OH251674   0.421   1.783   8.740 -0.3711  0.3828  0.1583
 9160TIP3    H151675   0.382   1.870   8.745 -0.5505  0.2718  0.7980
 9160TIP3    H251676   0.515   1.798   8.742 -0.4088  0.4962  1.5909
 9161TIP3   OH251677   3.613   5.680   5.952 -0.7133  0.0868  0.3827
 9161TIP3    H151678   3.657   5.659   5.870 -1.2788 -0.7880  0.2872
 9161TIP3    H251679   3.639   5.770   5.971  0.2019 -0.0299 -0.2467
 9162TIP3   OH251680   1.074   1.364   5.919 -0.0681 -0.7168  0.2401
 9162TIP3    H151681   1.079   1.416   5.839 -0.9007 -0.8141  0.1147
 9162TIP3    H251682   0.980   1.357   5.938 -0.0997 -3.1866 -0.4386
 9163TIP3   OH251683   5.165   4.045   6.652 -0.0129  0.0093 -0.3742
 9163TIP3    H151684   5.105   3.973   6.672  0.8955 -0.4455  0.8295
 9163TIP3    H251685   5.112   4.124   6.662 -0.4889 -0.3972  0.4245
 9164TIP3   OH251686   1.178   4.220   7.485 -0.1010  0.6364  0.2117
 9164TIP3    H151687   1.092   4.250   7.513  0.5685  1.8516  1.0562
 9164TIP3    H251688   1.234   4.297   7.492  0.8401  0.1456 -1.3489
 9165TIP3   OH251689   1.080   3.372   8.754  0.3293  0.1767  0.4391
 9165TIP3    H151690   1.018   3.442   8.733 -1.3250 -1.1007  0.8551
 9165TIP3    H251691   1.083   3.370   8.850 -2.8009 -2.7979  0.6740
 9166TIP3   OH251692   1.750   0.124   8.064 -0.0093 -0.3717  0.5189
 9166TIP3    H151693   1.829   0.071   8.049  0.6906  0.4056  1.3628
 9166TIP3    H251694   1.721   0.099   8.152 -0.2813 -0.1169  0.5013
 9167TIP3   OH251695   2.404   4.556   7.384 -0.0545 -0.4505 -0.4179
 9167TIP3    H151696   2.315   4.537   7.413  0.2959 -0.0450  1.0315
 9167TIP3    H251697   2.457   4.489   7.427  0.5423  0.4277  0.2558
 9168TIP3   OH251698   2.227   3.976   7.764  0.3943 -0.2991  0.4284
 9168TIP3    H151699   2.298   3.998   7.824 -0.2853  0.6726  0.9055
 9168TIP3    H251700   2.271   3.961   7.680  0.9533  4.5505 -0.4424
 9169TIP3   OH251701   4.408   4.312   8.088 -0.0908  0.5167 -0.4769
 9169TIP3    H151702   4.414   4.401   8.054 -0.9039  0.2641 -1.3319
 9169TIP3    H251703   4.323   4.308   8.132 -0.4290 -0.0504 -1.1486
 9170TIP3   OH251704   3.553   3.332   8.898 -0.0701  0.5941  0.2754
 9170TIP3    H151705   3.478   3.337   8.839 -0.4370 -0.6651  0.6023
 9170TIP3    H251706   3.567   3.422   8.927 -0.4634  1.0874 -0.9911
 9171TIP3   OH251707   4.812   1.523   7.781  0.5117  0.6217 -0.1891
 9171TIP3    H151708   4.751   1.567   7.840  1.3698  0.4068  0.8877
 9171TIP3    H251709   4.775   1.435   7.770 -0.0044  0.8747 -0.5187
 9172TIP3   OH251710   3.759   2.645   6.454  0.1835 -0.1374 -0.4498
 9172TIP3    H151711   3.666   2.620   6.446 -0.6314  2.8044 -1.5608
 9172TIP3    H251712   3.773   2.653   6.548 -0.9729  0.2042 -0.2838
 9173TIP3   OH251713   2.130   2.033   7.738  0.3071  0.0855  0.7162
 9173TIP3    H151714   2.123   1.976   7.814 -0.8876  0.6670  1.0726
 9173TIP3    H251715   2.166   1.978   7.669  3.1468 -0.0005  2.1391
 9174TIP3   OH251716   3.325   3.005   6.104 -0.4013 -0.0771  0.4529
 9174TIP3    H151717   3.329   2.969   6.016  1.4684  2.8975 -0.8720
 9174TIP3    H251718   3.240   3.049   6.109  0.4639  1.8927 -0.9339
 9175TIP3   OH251719   5.457   2.675   8.067 -0.1554  0.4485 -0.1237
 9175TIP3    H151720   5.404   2.654   8.143  0.0949  0.2515 -0.0019
 9175TIP3    H251721   5.395   2.709   8.002 -0.2870  1.2315  0.3947
 9176TIP3   OH251722   2.448   6.212   5.962  0.5176  0.3984 -0.0047
 9176TIP3    H151723   2.507   6.287   5.959  1.1610 -0.1280 -0.8273
 9176TIP3    H251724   2.501   6.140   5.995 -0.1047  0.2945  0.8114
 9177TIP3   OH251725   3.396   2.208   7.696 -0.2687 -0.4420  0.1143
 9177TIP3    H151726   3.336   2.134   7.689 -0.2536 -0.8062  2.8596
 9177TIP3    H251727   3.444   2.192   7.777 -0.1991  2.5433  0.7387
 9178TIP3   OH251728   0.973   6.248   7.804 -0.4712  0.0645  0.7171
 9178TIP3    H151729   0.878   6.233   7.798 -0.3678 -0.3914  0.1656
 9178TIP3    H251730   0.981   6.342   7.823 -0.9998  0.3386 -0.3516
 9179TIP3   OH251731   3.751   3.795   8.557 -0.5202 -0.4251 -0.9803
 9179TIP3    H151732   3.682   3.732   8.537  0.4728 -1.6359 -0.6950
 9179TIP3    H251733   3.803   3.800   8.476  0.5720 -1.5275 -0.3789
 9180TIP3   OH251734   1.808   6.240   6.280  0.1382  0.2169 -0.3493
 9180TIP3    H151735   1.717   6.212   6.265  0.4291 -1.4021  0.5986
 9180TIP3    H251736   1.861   6.173   6.237  0.8804  0.3845  0.2864
 9181TIP3   OH251737   6.449   4.287   8.514  0.8493  0.3726 -0.1873
 9181TIP3    H151738   6.439   4.330   8.429 -3.1403 -1.1400 -0.6751
 9181TIP3    H251739   6.422   4.353   8.578  0.3756  0.3897 -0.4064
 9182TIP3   OH251740   0.081   3.908   8.814  0.0155 -0.3470  0.5927
 9182TIP3    H151741   0.087   3.813   8.805  0.6394 -0.2402 -0.3610
 9182TIP3    H251742   0.006   3.923   8.871 -0.7120 -1.3826 -0.0567
 9183TIP3   OH251743   4.513   6.087   7.780  0.1716  0.0023  0.0943
 9183TIP3    H151744   4.544   6.121   7.864  1.3750 -0.4472 -0.1502
 9183TIP3    H251745   4.591   6.050   7.739 -0.4051  0.2061 -1.2233
 9184TIP3   OH251746   4.722   2.291   7.061 -0.6391  0.0856  0.2341
 9184TIP3    H151747   4.746   2.224   7.124  0.1838 -0.2046 -0.3708
 9184TIP3    H251748   4.805   2.316   7.019 -0.8510  1.8012  0.7552
 9185TIP3   OH251749   3.364   0.490   8.613  0.1901 -0.5157 -0.3546
 9185TIP3    H151750   3.280   0.515   8.575  0.6680  1.7606 -0.0736
 9185TIP3    H251751   3.428   0.514   8.546  0.7264 -0.9755 -0.0140
 9186TIP3   OH251752   4.456   4.903   7.262 -0.9977  0.5108  0.2029
 9186TIP3    H151753   4.386   4.962   7.291 -0.8483  0.1102  1.4726
 9186TIP3    H251754   4.531   4.927   7.316 -0.3529  0.4910 -0.6841
 9187TIP3   OH251755   2.621   6.187   7.178  0.3097 -0.1566  0.4734
 9187TIP3    H151756   2.711   6.209   7.153  0.3187  0.8077  1.2859
 9187TIP3    H251757   2.603   6.104   7.134  1.2488  0.1381 -0.5056
 9188TIP3   OH251758   4.323   0.544   6.599 -0.2966  0.0714 -0.0433
 9188TIP3    H151759   4.248   0.583   6.552  0.7046  0.3563 -1.4883
 9188TIP3    H251760   4.284   0.477   6.654 -1.4755 -1.3288 -2.4002
 9189TIP3   OH251761   3.415   3.295   6.625 -0.0113  0.2345  0.0161
 9189TIP3    H151762   3.458   3.271   6.707  0.7661  0.1611 -0.4090
 9189TIP3    H251763   3.406   3.213   6.578 -1.0545  0.1744  0.2960
 9190TIP3   OH251764   0.203   6.137   6.253 -0.1022 -0.3881  0.2461
 9190TIP3    H151765   0.208   6.231   6.265  2.0940 -0.2831 -1.1299
 9190TIP3    H251766   0.162   6.125   6.167  0.1574 -0.6722  0.1584
 9191TIP3   OH251767   2.684   1.878   8.317 -0.1616  0.0450  0.7400
 9191TIP3    H151768   2.621   1.948   8.330  0.7530  0.5416  3.0869
 9191TIP3    H251769   2.689   1.834   8.402  1.6371 -0.8061  0.2495
 9192TIP3   OH251770   6.051   3.508   5.617 -0.2637  0.0647 -0.3670
 9192TIP3    H151771   6.101   3.588   5.635 -0.8692  0.3268  0.2136
 9192TIP3    H251772   6.064   3.492   5.523 -0.8328  1.3407 -0.6841
 9193TIP3   OH251773   4.250   1.375   6.045  0.0973  0.4006 -0.6920
 9193TIP3    H151774   4.226   1.301   6.100 -0.6902  2.1772  1.4973
 9193TIP3    H251775   4.167   1.418   6.024  0.4668  0.3205 -2.5293
 9194TIP3   OH251776   1.124   5.161   6.268  0.1074 -0.1848  0.3024
 9194TIP3    H151777   1.078   5.115   6.339  1.0733 -2.7338 -0.6124
 9194TIP3    H251778   1.217   5.147   6.285  0.4284  0.9002 -0.4059
 9195TIP3   OH251779   1.077   2.109   5.817  0.2764  0.3246 -0.1286
 9195TIP3    H151780   1.053   2.017   5.826  0.2952  0.3897  0.5835
 9195TIP3    H251781   1.140   2.110   5.745  0.7656 -0.3088  0.2786
 9196TIP3   OH251782   6.007   3.130   6.511  0.1421  0.4266  0.2396
 9196TIP3    H151783   5.984   3.037   6.513 -0.2183  0.4964 -0.2438
 9196TIP3    H251784   6.073   3.137   6.442  1.3297  0.2978  1.3261
 9197TIP3   OH251785   1.908   6.665   6.536  0.3050 -0.3313  0.0037
 9197TIP3    H151786   1.989   6.688   6.581 -0.8861 -0.3175  2.3281
 9197TIP3    H251787   1.926   6.581   6.494  1.5418 -0.2670  0.3639
 9198TIP3   OH251788   3.216   2.417   6.479 -0.1751 -0.1197 -1.0304
 9198TIP3    H151789   3.147   2.476   6.508 -0.5372 -0.8841 -0.3042
 9198TIP3    H251790   3.191   2.331   6.513  1.5659 -0.2583  0.0220
 9199TIP3   OH251791   4.486   1.006   6.765 -0.0251 -0.1048 -0.2408
 9199TIP3    H151792   4.440   0.993   6.682  1.9187  0.0229 -1.3871
 9199TIP3    H251793   4.485   0.920   6.806  0.1251 -0.4717 -0.9939
 9200TIP3   OH251794   3.001   1.929   7.923 -0.0168 -0.1940 -0.3037
 9200TIP3    H151795   3.076   1.924   7.982  0.6270  0.1434 -1.0841
 9200TIP3    H251796   3.022   1.871   7.851 -1.3310 -1.5503  0.3457
 9201TIP3   OH251797   5.321   1.475   8.947  0.3417  0.1457  0.4888
 9201TIP3    H151798   5.399   1.430   8.981  0.1003 -1.1288 -0.5232
 9201TIP3    H251799   5.287   1.415   8.880 -1.7405  0.4932  1.1770
 9202TIP3   OH251800   3.660   2.210   8.032 -0.0813  0.2589 -0.2264
 9202TIP3    H151801   3.656   2.232   8.125 -0.6163 -1.0342  0.0827
 9202TIP3    H251802   3.743   2.164   8.021 -0.1489  0.1634 -0.3392
 9203TIP3   OH251803   3.032   3.254   7.543  0.5705  0.0987  0.5047
 9203TIP3    H151804   3.035   3.275   7.637  1.9845 -0.3420  0.5919
 9203TIP3    H251805   2.947   3.286   7.514 -0.4152 -0.8300  2.1952
 9204TIP3   OH251806   4.651   0.289   7.848 -0.1586  0.4306  0.6865
 9204TIP3    H151807   4.676   0.318   7.760 -1.0006  1.3905  0.7435
 9204TIP3    H251808   4.563   0.253   7.836  0.3629 -0.9712  0.8553
 9205TIP3   OH251809   3.673   2.035   6.153  0.5773 -0.1328  0.2817
 9205TIP3    H151810   3.760   1.996   6.158  0.6740  0.1378  0.8036
 9205TIP3    H251811   3.673   2.084   6.071  0.5872 -0.8974 -0.1901
 9206TIP3   OH251812   3.073   0.612   6.528  0.2476  0.0104  0.4544
 9206TIP3    H151813   3.009   0.574   6.588 -1.8504  1.4363 -0.7592
 9206TIP3    H251814   3.091   0.542   6.465 -0.8852 -0.0983  0.2413
 9207TIP3   OH251815   3.477   3.514   9.179  0.7407 -0.2768  0.4545
 9207TIP3    H151816   3.516   3.464   9.251 -1.0950 -0.0328  1.6968
 9207TIP3    H251817   3.384   3.488   9.180 -0.6588  4.0190  2.0618
 9208TIP3   OH251818   1.244   5.026   7.077 -0.3294 -0.2953 -0.2935
 9208TIP3    H151819   1.224   4.945   7.124  0.0829  0.3636  1.0481
 9208TIP3    H251820   1.194   5.018   6.995 -1.7627 -1.0939  0.6099
 9209TIP3   OH251821   5.941   1.042   6.752  0.2021  0.1138 -0.1401
 9209TIP3    H151822   5.870   0.985   6.721  0.8883  0.0047 -1.5796
 9209TIP3    H251823   6.015   1.021   6.695  0.7457  1.7841 -0.0941
 9210TIP3   OH251824   0.154   2.429   6.201  0.0051 -0.2429  0.3694
 9210TIP3    H151825   0.204   2.418   6.282  0.1088 -1.2336  0.1848
 9210TIP3    H251826   0.217   2.412   6.131 -0.5807 -1.6258  0.1394
 9211TIP3   OH251827   1.013   2.037   7.526  0.0422  0.2997 -0.4615
 9211TIP3    H151828   1.037   1.968   7.588 -0.0594 -1.3539 -2.1606
 9211TIP3    H251829   0.919   2.027   7.514 -0.0867  1.1795 -0.2319
 9212TIP3   OH251830   1.578   3.167   6.674 -0.4610  0.5902  0.4259
 9212TIP3    H151831   1.519   3.207   6.610  0.7523  0.3920 -0.8882
 9212TIP3    H251832   1.638   3.237   6.699 -0.4078  0.4475  0.7030
 9213TIP3   OH251833   1.570   5.973   7.550  0.2816  0.4707  0.0356
 9213TIP3    H151834   1.539   6.063   7.562 -1.4352 -0.0431 -0.1634
 9213TIP3    H251835   1.491   5.924   7.527  1.6846 -0.4890 -3.2832
 9214TIP3   OH251836   4.600   3.211   7.761 -0.3666 -0.2129 -0.2024
 9214TIP3    H151837   4.614   3.269   7.835  0.1262  0.8891 -1.1245
 9214TIP3    H251838   4.682   3.163   7.751 -0.6587 -0.8369  0.3560
 9215TIP3   OH251839   1.908   6.715   7.445 -0.2202  0.0194 -0.3303
 9215TIP3    H151840   1.929   6.705   7.538 -0.4793 -0.0504 -0.2781
 9215TIP3    H251841   1.963   6.651   7.401 -1.0507 -0.8828 -0.1018
 9216TIP3   OH251842   0.616   5.405   7.055 -0.3618 -0.2180  0.6069
 9216TIP3    H151843   0.614   5.332   6.993 -0.7687 -0.2452  0.6464
 9216TIP3    H251844   0.591   5.481   7.002 -2.0599 -0.4616  1.0133
 9217TIP3   OH251845   0.818   0.734   8.461 -0.4185 -0.3883  0.8813
 9217TIP3    H151846   0.769   0.734   8.379 -1.2748  0.1063  1.3799
 9217TIP3    H251847   0.787   0.811   8.508 -0.1567 -0.8253  1.7988
 9218TIP3   OH251848   1.553   4.851   7.163 -0.4607 -0.1236 -0.6509
 9218TIP3    H151849   1.594   4.889   7.241 -0.9440  1.5556 -1.1714
 9218TIP3    H251850   1.471   4.813   7.194 -0.7513  0.7264 -0.3594
 9219TIP3   OH251851   0.892   4.312   8.533  0.1612 -0.6132  0.5273
 9219TIP3    H151852   0.929   4.386   8.485  0.1047 -1.4431 -0.8452
 9219TIP3    H251853   0.885   4.343   8.623  1.3326  0.6085  0.2273
 9220TIP3   OH251854   3.273   4.850   6.123 -0.2245  0.1331  0.0250
 9220TIP3    H151855   3.322   4.839   6.042 -0.5333  1.5618 -0.3810
 9220TIP3    H251856   3.338   4.834   6.192  0.3272  0.0586 -0.5021
 9221TIP3   OH251857   3.669   0.975   7.102 -0.2734  0.0702 -0.7849
 9221TIP3    H151858   3.648   0.923   7.179 -0.0608 -0.6416 -1.2033
 9221TIP3    H251859   3.725   1.045   7.135 -0.1963 -0.2204 -0.2919
 9222TIP3   OH251860   4.864   5.582   6.424 -0.3361 -0.8162 -0.9478
 9222TIP3    H151861   4.888   5.579   6.331 -2.7738 -2.0633 -1.6133
 9222TIP3    H251862   4.769   5.591   6.424 -0.4169 -1.0688  1.4611
 9223TIP3   OH251863   4.860   4.940   8.780  0.4763  0.6259  0.1084
 9223TIP3    H151864   4.822   5.028   8.772  0.7555  0.7034 -0.4103
 9223TIP3    H251865   4.816   4.901   8.856  0.6806  1.3765  0.6178
 9224TIP3   OH251866   1.234   3.338   7.822 -0.0576  0.1004  0.5486
 9224TIP3    H151867   1.171   3.344   7.750  1.5438 -0.0072 -0.9231
 9224TIP3    H251868   1.299   3.273   7.792  1.2952  0.9379  1.5576
 9225TIP3   OH251869   4.005   5.160   8.741  0.1186  0.2668  0.4928
 9225TIP3    H151870   3.956   5.237   8.770 -0.5556  0.2218 -0.4979
 9225TIP3    H251871   4.042   5.186   8.657  3.2028  0.9005  1.9007
 9226TIP3   OH251872   3.961   3.315   6.012 -0.3448  0.5887  0.0009
 9226TIP3    H151873   3.935   3.243   6.069 -1.7131  1.1526  0.1134
 9226TIP3    H251874   4.017   3.371   6.066 -1.6194  1.1151  0.8080
 9227TIP3   OH251875   5.785   4.500   7.761  1.0277  0.1160  0.2711
 9227TIP3    H151876   5.763   4.590   7.785  1.6599  0.5729 -0.7708
 9227TIP3    H251877   5.722   4.477   7.693  0.8905 -0.2201  0.5079
 9228TIP3   OH251878   3.600   6.546   8.962 -0.2272 -0.4728 -0.1540
 9228TIP3    H151879   3.646   6.532   8.879 -0.3716  1.6501 -0.6472
 9228TIP3    H251880   3.669   6.546   9.028  0.2080  0.3700 -0.5993
 9229TIP3   OH251881   1.288   4.185   7.248 -0.4352  1.1409 -0.1516
 9229TIP3    H151882   1.328   4.270   7.230 -0.7829  1.2661 -0.3380
 9229TIP3    H251883   1.243   4.198   7.332 -1.3929  1.4635 -0.7007
 9230TIP3   OH251884   0.794   4.609   8.657 -0.2722  0.1322 -0.0608
 9230TIP3    H151885   0.885   4.631   8.678 -0.7704  2.1947  0.0619
 9230TIP3    H251886   0.764   4.560   8.734  0.2949  0.7603  0.5785
 9231TIP3   OH251887   0.351   6.055   7.177 -0.1312  0.2546  0.3736
 9231TIP3    H151888   0.369   6.142   7.142 -0.1315  0.3203  0.5346
 9231TIP3    H251889   0.375   5.995   7.107  1.1818  0.3061  0.7527
 9232TIP3   OH251890   6.327   3.579   6.546  0.9309  0.8624  0.1823
 9232TIP3    H151891   6.342   3.650   6.485  2.5158  0.5077  0.1216
 9232TIP3    H251892   6.304   3.504   6.491  0.3172  1.0440  0.1794
 9233TIP3   OH251893   2.240   0.772   6.251 -0.1557  0.0630  0.6434
 9233TIP3    H151894   2.313   0.725   6.211  0.2343  0.7049  0.5916
 9233TIP3    H251895   2.267   0.785   6.342  0.3210  1.3306  0.3403
 9234TIP3   OH251896   0.246   1.245   8.265 -0.6909  0.2471 -0.2282
 9234TIP3    H151897   0.298   1.195   8.328  1.4426  1.1854 -1.1307
 9234TIP3    H251898   0.174   1.282   8.316  0.3436  0.0767  1.4148
 9235TIP3   OH251899   5.029   0.264   6.000 -0.0485 -0.1105 -0.5918
 9235TIP3    H151900   5.077   0.217   6.069 -0.2358 -0.3668 -0.6348
 9235TIP3    H251901   4.993   0.340   6.044  2.4326  1.4514 -1.0559
 9236TIP3   OH251902   2.170   1.265   7.267  0.4568  0.0190  0.2953
 9236TIP3    H151903   2.168   1.190   7.208  1.9456 -0.0886  0.3413
 9236TIP3    H251904   2.124   1.334   7.220 -0.4880 -0.7554  0.0395
 9237TIP3   OH251905   0.665   2.776   8.492 -0.1380 -0.8679 -0.4875
 9237TIP3    H151906   0.703   2.776   8.580  1.3658 -1.9241 -1.0871
 9237TIP3    H251907   0.571   2.785   8.506  0.2380  1.6083  1.0847
 9238TIP3   OH251908   2.982   6.550   8.392  0.6442  0.3206  0.8892
 9238TIP3    H151909   3.032   6.632   8.402 -0.7094  1.2044  0.7001
 9238TIP3    H251910   2.902   6.565   8.442 -0.1726 -0.4247 -0.1584
 9239TIP3   OH251911   3.848   4.400   7.169 -0.3393  0.0472 -0.3961
 9239TIP3    H151912   3.901   4.338   7.119 -0.7789  0.7897 -1.8125
 9239TIP3    H251913   3.901   4.479   7.174 -1.1920  0.7282 -1.6482
 9240TIP3   OH251914   1.960   3.310   7.285  0.4559 -0.1872 -0.2521
 9240TIP3    H151915   1.921   3.376   7.342  1.3303  0.0733  0.0670
 9240TIP3    H251916   2.047   3.296   7.321  0.7058 -0.6638 -1.0086
 9241TIP3   OH251917   5.087   6.108   5.989  0.0098 -0.0391 -0.0136
 9241TIP3    H151918   5.087   6.116   5.894 -0.6244  0.9125  0.0507
 9241TIP3    H251919   5.172   6.144   6.016  0.3773 -0.7234 -0.2407
 9242TIP3   OH251920   1.578   5.300   7.070 -0.1136 -0.3654  0.0825
 9242TIP3    H151921   1.615   5.380   7.106  3.3525 -2.4855  1.6970
 9242TIP3    H251922   1.628   5.285   6.990  0.2558 -1.5837  0.5227
 9243TIP3   OH251923   1.769   3.625   6.127 -0.3103  0.2097 -0.0530
 9243TIP3    H151924   1.815   3.670   6.055  1.1437 -0.0806  0.6619
 9243TIP3    H251925   1.791   3.532   6.114 -0.4741  0.1009  0.4600
 9244TIP3   OH251926   6.647   0.845   7.874  0.8458 -0.1766 -0.3281
 9244TIP3    H151927   6.652   0.899   7.795  0.5970  2.0895  1.0960
 9244TIP3    H251928   6.729   0.862   7.920  0.3295 -0.1954  0.6370
 9245TIP3   OH251929   5.798   6.121   5.780  0.2703 -0.2015  1.1760
 9245TIP3    H151930   5.757   6.127   5.867  2.6294 -2.1290  2.5419
 9245TIP3    H251931   5.879   6.072   5.795  1.0915 -0.0345 -2.0439
 9246TIP3   OH251932   0.753   3.741   8.299  0.3287  0.2618 -0.6453
 9246TIP3    H151933   0.664   3.734   8.331 -0.4428 -0.1423 -2.7151
 9246TIP3    H251934   0.796   3.660   8.329  0.1080  0.5668  0.5583
 9247TIP3   OH251935   2.601   3.216   6.185 -0.0426  0.2357  0.3281
 9247TIP3    H151936   2.613   3.262   6.268  0.0594  0.6797  0.0636
 9247TIP3    H251937   2.515   3.174   6.194 -0.4107  0.9724  0.3329
 9248TIP3   OH251938   1.899   1.676   7.342  0.1286 -0.0919  0.2695
 9248TIP3    H151939   1.825   1.726   7.377  0.9319  1.2062  0.1687
 9248TIP3    H251940   1.916   1.609   7.408 -0.0771  0.6493  1.0903
 9249TIP3   OH251941   4.182   0.779   7.375  0.0225  0.5112  0.6051
 9249TIP3    H151942   4.154   0.852   7.320  0.1477  0.8844  1.0284
 9249TIP3    H251943   4.276   0.793   7.388  0.1334  0.0313  0.3268
 9250TIP3   OH251944   1.550   6.317   8.412  0.7327  0.4835  0.1558
 9250TIP3    H151945   1.577   6.396   8.458 -0.3808  0.7004  0.4711
 9250TIP3    H251946   1.617   6.303   8.346  2.4149  0.1455  1.8567
 9251TIP3   OH251947   6.630   4.680   6.610  0.6900  0.2668  0.5122
 9251TIP3    H151948   6.667   4.740   6.546  0.6674  0.0180  0.2646
 9251TIP3    H251949   6.602   4.604   6.559 -3.5581  1.8542  0.0317
 9252TIP3   OH251950   3.462   2.390   7.083  0.0461 -0.3986  0.3522
 9252TIP3    H151951   3.524   2.458   7.057 -2.5260  1.6917 -0.7474
 9252TIP3    H251952   3.474   2.320   7.018  1.1548  0.0145  0.0965
 9253TIP3   OH251953   2.810   4.272   8.308 -0.1447  0.2345 -0.1793
 9253TIP3    H151954   2.803   4.211   8.234 -0.1925  0.8847 -0.7146
 9253TIP3    H251955   2.807   4.215   8.385  0.1301 -0.4733 -0.6750
 9254TIP3   OH251956   0.049   0.283   7.565  0.0215  0.2900 -0.4281
 9254TIP3    H151957   0.075   0.372   7.587  0.0275  0.0127  0.7109
 9254TIP3    H251958  -0.046   0.283   7.573  0.1260 -0.1744  1.0355
 9255TIP3   OH251959   4.172   2.214   8.831  0.3472 -0.7322  0.0433
 9255TIP3    H151960   4.159   2.284   8.895 -0.2171  1.2138 -2.0818
 9255TIP3    H251961   4.265   2.219   8.808  0.2113 -0.3988 -0.4296
 9256TIP3   OH251962   3.839   6.288   8.184 -0.9140  0.2335 -0.0524
 9256TIP3    H151963   3.877   6.206   8.153  0.0420  0.3513  0.7752
 9256TIP3    H251964   3.838   6.281   8.279  0.1926  1.6012  0.0921
 9257TIP3   OH251965   6.717   3.029   8.408  0.7827  0.2358  0.1005
 9257TIP3    H151966   6.657   2.987   8.471 -0.0948  1.5209  0.1550
 9257TIP3    H251967   6.803   2.993   8.430  0.1528 -1.1172  0.4920
 9258TIP3   OH251968   0.612   1.051   6.060 -0.6254 -0.2324  0.6049
 9258TIP3    H151969   0.551   1.071   5.989  1.6742 -2.1005 -2.1172
 9258TIP3    H251970   0.556   1.022   6.132 -3.0061 -1.3872 -1.5720
 9259TIP3   OH251971   0.957   3.266   6.876 -0.2866 -0.0652  0.1958
 9259TIP3    H151972   1.022   3.333   6.899 -0.1098  0.3785 -1.4572
 9259TIP3    H251973   1.009   3.191   6.848 -0.4826  0.0506 -0.4824
 9260TIP3   OH251974   5.718   6.740   6.792  0.0006  0.4312 -0.1624
 9260TIP3    H151975   5.772   6.764   6.867  1.1988  3.2082 -1.7544
 9260TIP3    H251976   5.777   6.693   6.733 -0.1972  0.6461 -0.5384
 9261TIP3   OH251977   3.105   1.779   7.207  0.4818 -0.2530 -0.0821
 9261TIP3    H151978   3.025   1.801   7.159  0.0637 -0.6743  0.4046
 9261TIP3    H251979   3.139   1.701   7.162  0.6457 -0.0534 -0.3105
 9262TIP3   OH251980   2.777   5.308   6.602 -0.5910  0.5526  0.0979
 9262TIP3    H151981   2.697   5.361   6.597 -0.9737 -0.0296 -0.1217
 9262TIP3    H251982   2.749   5.228   6.647 -0.5543 -0.4076 -1.5003
 9263TIP3   OH251983   3.600   2.648   7.040  0.3833 -0.3429  0.5190
 9263TIP3    H151984   3.595   2.730   7.089  0.7586  0.5300 -0.8341
 9263TIP3    H251985   3.621   2.675   6.951 -0.6490 -1.8463 -0.2207
 9264TIP3   OH251986   5.109   0.339   6.730  0.0753  0.3527  0.1202
 9264TIP3    H151987   5.141   0.304   6.813  0.6734 -0.7299 -0.5405
 9264TIP3    H251988   5.072   0.424   6.753  1.4005  0.6621  1.2852
 9265TIP3   OH251989   4.723   0.576   7.310  0.3994 -0.0843 -0.3704
 9265TIP3    H151990   4.662   0.511   7.345  1.1488 -1.0395 -0.7631
 9265TIP3    H251991   4.678   0.613   7.235 -0.4581  0.6180  0.4713
 9266TIP3   OH251992   6.409   0.519   8.850 -0.1218  0.3336  0.6062
 9266TIP3    H151993   6.432   0.604   8.811  1.1226 -1.0620 -1.9284
 9266TIP3    H251994   6.315   0.509   8.831 -0.0164  0.6430 -0.1103
 9267TIP3   OH251995   6.249   4.439   7.797  0.4624  0.2667 -0.2219
 9267TIP3    H151996   6.215   4.398   7.718 -0.6312 -1.1678  0.9407
 9267TIP3    H251997   6.194   4.516   7.810 -0.5291 -0.4907  0.1118
 9268TIP3   OH251998   2.580   1.857   6.676 -0.1976  0.2551 -0.0357
 9268TIP3    H151999   2.627   1.927   6.722  2.0878 -1.2076  0.0351
 9268TIP3    H252000   2.552   1.797   6.746 -2.6587  1.2802 -0.0352
 9269TIP3   OH252001   2.712   3.774   6.173  0.1269  0.0416 -1.1879
 9269TIP3    H152002   2.661   3.814   6.243 -1.3594 -1.9615 -1.0389
 9269TIP3    H252003   2.738   3.848   6.118 -1.1621  1.3608 -0.1328
 9270TIP3   OH252004   3.033   6.002   8.085  0.1421  0.1961 -0.4582
 9270TIP3    H152005   3.068   6.080   8.043 -2.1321  1.5402 -0.0508
 9270TIP3    H252006   3.057   6.011   8.177  1.6130 -0.6572 -0.7364
 9271TIP3   OH252007   5.575   0.395   7.468 -0.0534  0.2624  0.4341
 9271TIP3    H152008   5.495   0.393   7.522  0.0897  1.1685  0.7037
 9271TIP3    H252009   5.607   0.305   7.470 -0.8972 -0.0509  0.5809
 9272TIP3   OH252010   1.881   5.444   5.866  0.3125 -0.3017  0.2996
 9272TIP3    H152011   1.852   5.417   5.953 -0.2061 -0.2560  0.1438
 9272TIP3    H252012   1.852   5.535   5.859  1.1067 -0.0348  0.4082
 9273TIP3   OH252013   5.812   4.757   7.301 -0.5508  0.0243 -0.2282
 9273TIP3    H152014   5.750   4.717   7.362 -1.1432  0.1919 -0.7042
 9273TIP3    H252015   5.760   4.822   7.253 -0.0993 -0.0949 -0.9009
 9274TIP3   OH252016   3.860   3.614   7.849  0.0013  0.2272 -0.3776
 9274TIP3    H152017   3.805   3.692   7.835  0.4862  0.9583  1.5372
 9274TIP3    H252018   3.947   3.641   7.820  0.0221  0.1532 -0.3834
 9275TIP3   OH252019   5.071   4.183   8.021  0.4105  0.7850 -0.5146
 9275TIP3    H152020   5.075   4.089   8.035  1.0048  0.8971  0.0639
 9275TIP3    H252021   5.117   4.221   8.095 -0.5151  1.5689 -0.3234
 9276TIP3   OH252022   2.375   4.804   6.936  0.0336  0.9757 -0.3192
 9276TIP3    H152023   2.312   4.771   6.871 -0.1655 -1.7122  1.0867
 9276TIP3    H252024   2.460   4.788   6.897 -0.0511 -1.5316  0.3359
 9277TIP3   OH252025   4.340   3.315   8.311  0.3577 -0.2681 -0.0162
 9277TIP3    H152026   4.431   3.327   8.284  0.9825 -0.9964  1.6157
 9277TIP3    H252027   4.325   3.384   8.376 -0.1593 -0.3497 -0.0447
 9278TIP3   OH252028   4.593   4.348   6.996  0.3137 -0.2785 -0.1406
 9278TIP3    H152029   4.510   4.369   6.954  1.4839  2.1096 -1.4749
 9278TIP3    H252030   4.586   4.385   7.084  0.3673  1.0032 -0.6580
 9279TIP3   OH252031   4.573   0.630   5.542  0.2051  0.2355 -0.7749
 9279TIP3    H152032   4.609   0.561   5.598 -0.4701 -1.0842 -1.9047
 9279TIP3    H252033   4.592   0.711   5.589  0.5973 -0.7421  0.8315
 9280TIP3   OH252034   1.518   5.719   8.734  0.4269  0.0526  0.0817
 9280TIP3    H152035   1.541   5.633   8.770  0.4819 -0.6350 -1.5243
 9280TIP3    H252036   1.488   5.769   8.810  1.9107 -0.8511  1.3140
 9281TIP3   OH252037   2.714   5.081   8.478 -0.4658 -0.6416 -0.6799
 9281TIP3    H152038   2.646   5.025   8.514 -0.7611 -0.1885 -0.5214
 9281TIP3    H252039   2.759   5.026   8.414 -1.7502 -0.5836 -1.6722
 9282TIP3   OH252040   3.696   4.159   8.321 -0.6567 -0.0987  0.0724
 9282TIP3    H152041   3.621   4.114   8.282 -1.4905  1.5771 -0.3395
 9282TIP3    H252042   3.726   4.219   8.253  0.5851 -0.1892  0.5142
 9283TIP3   OH252043   3.890   5.342   7.758  0.0267  0.1300 -0.4522
 9283TIP3    H152044   3.855   5.368   7.673  0.7809  1.0016 -0.5082
 9283TIP3    H252045   3.843   5.395   7.821  0.8324  0.9058 -0.4861
 9284TIP3   OH252046   3.940   1.611   7.425 -0.4260 -0.7008 -0.0235
 9284TIP3    H152047   3.866   1.651   7.469 -2.2937 -1.8591 -1.8961
 9284TIP3    H252048   3.900   1.546   7.366  2.0054 -0.8024 -1.7120
 9285TIP3   OH252049   5.321   5.361   6.864 -0.2662 -0.4465 -0.2918
 9285TIP3    H152050   5.408   5.387   6.833 -1.5394  1.2045 -2.8068
 9285TIP3    H252051   5.331   5.353   6.959  2.7347 -0.9137 -0.5284
 9286TIP3   OH252052   2.018   5.478   6.848 -0.0223  0.1946 -0.1947
 9286TIP3    H152053   2.101   5.522   6.871 -0.7855  2.8290 -1.9958
 9286TIP3    H252054   2.033   5.443   6.761  0.4702 -3.1384  1.1077
 9287TIP3   OH252055   6.500   6.349   6.052  0.3673  0.1987 -0.2830
 9287TIP3    H152056   6.538   6.306   5.976 -0.1067 -0.1350 -0.3284
 9287TIP3    H252057   6.502   6.283   6.121  1.8149  0.8220  0.3339
 9288TIP3   OH252058   5.935   0.215   7.966  0.0540 -0.1377  0.2334
 9288TIP3    H152059   5.990   0.269   7.910  1.3606  0.2628  1.8512
 9288TIP3    H252060   5.996   0.159   8.014 -1.1579 -1.8959 -0.1728
 9289TIP3   OH252061   4.382   4.567   6.245 -0.0167  0.3693 -0.2834
 9289TIP3    H152062   4.335   4.629   6.301  0.0246  0.6297 -0.5360
 9289TIP3    H252063   4.320   4.546   6.175  0.0203  0.2330 -0.2765
 9290TIP3   OH252064   6.398   2.416   7.056 -0.3079  0.2130 -0.6228
 9290TIP3    H152065   6.362   2.379   6.976 -0.1811 -0.6362 -0.2909
 9290TIP3    H252066   6.335   2.392   7.124 -0.5252  1.1128 -0.4935
 9291TIP3   OH252067   4.892   4.504   7.859  0.5951  0.4076  0.0232
 9291TIP3    H152068   4.957   4.445   7.823 -0.5568 -1.3854  0.7199
 9291TIP3    H252069   4.930   4.534   7.942  1.7781  1.8279 -0.9755
 9292TIP3   OH252070   2.900   5.129   7.491 -0.4662 -0.1247  0.4839
 9292TIP3    H152071   2.829   5.177   7.449 -0.6290  0.2920  1.2178
 9292TIP3    H252072   2.906   5.167   7.579 -0.6882 -1.5251  1.1291
 9293TIP3   OH252073   0.697   1.262   7.219  0.6023 -0.2446  0.4123
 9293TIP3    H152074   0.709   1.333   7.282  1.2916 -0.5666  0.6499
 9293TIP3    H252075   0.715   1.303   7.134  1.1656 -0.1704  0.5626
 9294TIP3   OH252076   2.932   6.616   8.826  0.0327  0.1571 -0.0550
 9294TIP3    H152077   2.891   6.600   8.741  1.4412  0.5004 -0.8193
 9294TIP3    H252078   3.010   6.560   8.827  0.4597  0.7360  0.6844
 9295TIP3   OH252079   5.958   6.552   8.686  0.3097  0.1435  0.0516
 9295TIP3    H152080   5.873   6.512   8.668 -0.7797  1.6171  1.5619
 9295TIP3    H252081   5.940   6.615   8.756  2.9900 -0.8187  1.7824
 9296TIP3   OH252082   5.263   3.769   6.263 -0.6932  0.3721 -0.0698
 9296TIP3    H152083   5.266   3.852   6.310 -0.5650  0.4073 -0.1396
 9296TIP3    H252084   5.347   3.727   6.282 -0.4945  0.5469 -0.5541
 9297TIP3   OH252085   2.365   4.544   6.540 -0.0433 -0.3040  0.0366
 9297TIP3    H152086   2.371   4.449   6.530  0.0981 -0.3318  0.3656
 9297TIP3    H252087   2.440   4.577   6.491  0.2127 -0.3951  0.3594
 9298TIP3   OH252088   1.105   1.796   6.088 -0.0747 -0.3253  0.6562
 9298TIP3    H152089   1.011   1.792   6.104 -0.0121 -1.1631  0.8784
 9298TIP3    H252090   1.134   1.705   6.092  0.5896 -0.1827 -0.3854
 9299TIP3   OH252091   1.131   0.472   6.700 -0.5422 -0.4139 -0.8577
 9299TIP3    H152092   1.070   0.431   6.760 -0.5646  1.2132  0.2713
 9299TIP3    H252093   1.088   0.552   6.671  0.5066  0.1144 -1.0314
 9300TIP3   OH252094   3.469   4.291   6.700 -0.2815 -0.2232  1.0014
 9300TIP3    H152095   3.553   4.248   6.685 -0.4335  0.1931 -1.6131
 9300TIP3    H252096   3.486   4.383   6.680 -1.5108 -0.2773 -0.5274
 9301TIP3   OH252097   6.188   0.450   6.150  0.2864  0.2529  0.1623
 9301TIP3    H152098   6.128   0.421   6.218  0.8879 -2.8013 -0.4422
 9301TIP3    H252099   6.269   0.471   6.197  0.3647 -0.7903  0.5193
 9302TIP3   OH252100   4.114   2.059   8.593  0.0306  0.3926  0.7980
 9302TIP3    H152101   4.120   2.111   8.673  3.2857 -0.1252  1.0108
 9302TIP3    H252102   4.165   1.980   8.611 -0.3866 -0.4286 -1.2981
 9303TIP3   OH252103   1.953   4.694   6.906 -0.2775 -0.1079  0.5630
 9303TIP3    H152104   1.923   4.605   6.922  0.5263 -0.1207  2.1761
 9303TIP3    H252105   1.944   4.739   6.990 -2.0309  1.7933 -0.5353
 9304TIP3   OH252106   0.106   6.558   6.830  0.2483 -0.5457 -0.5716
 9304TIP3    H152107   0.073   6.538   6.743  1.0934 -1.3490 -0.7365
 9304TIP3    H252108   0.035   6.534   6.889  0.5207 -2.3455 -0.9023
 9305TIP3   OH252109   4.327   5.161   6.609  0.1955 -0.1585  0.0190
 9305TIP3    H152110   4.412   5.204   6.615 -0.3017  0.7832  0.4457
 9305TIP3    H252111   4.316   5.117   6.694 -0.0103  0.2280  0.1929
 9306TIP3   OH252112   5.081   1.014   6.555  0.0275  0.2977 -0.5215
 9306TIP3    H152113   5.007   0.974   6.508  0.2724  0.3503 -0.9570
 9306TIP3    H252114   5.141   0.941   6.571  0.5861  0.5238 -1.5301
 9307TIP3   OH252115   6.002   1.412   7.903 -0.0114 -0.2815 -0.2358
 9307TIP3    H152116   5.982   1.498   7.940  0.1323 -0.5133  0.3945
 9307TIP3    H252117   6.089   1.422   7.864 -0.1484 -0.0466 -0.4887
 9308TIP3   OH252118   4.395   6.577   8.222  0.7399  0.0420  0.3008
 9308TIP3    H152119   4.370   6.486   8.204  0.5520  0.2969 -0.8121
 9308TIP3    H252120   4.481   6.571   8.261  1.0806 -0.5893 -0.5181
 9309TIP3   OH252121   5.571   0.341   6.514  0.1763 -0.1007 -0.4884
 9309TIP3    H152122   5.638   0.406   6.536  0.1897  0.2832 -1.5962
 9309TIP3    H252123   5.519   0.332   6.595  0.6709  0.6808 -0.0675
 9310TIP3   OH252124   2.310   6.678   5.953  0.4585  0.6697  0.1272
 9310TIP3    H152125   2.402   6.671   5.927  0.1406 -0.5057 -0.7386
 9310TIP3    H252126   2.261   6.654   5.875 -0.5737  0.1565  0.9083
 9311TIP3   OH252127   0.443   0.692   7.557 -0.3735  0.8143 -0.2974
 9311TIP3    H152128   0.529   0.683   7.517  0.3136  3.7417  0.2819
 9311TIP3    H252129   0.381   0.679   7.485  0.7174  2.3286 -1.5989
 9312TIP3   OH252130   4.138   6.253   6.322  0.7548  0.2978 -0.5217
 9312TIP3    H152131   4.100   6.166   6.314  1.9441 -0.2826 -0.0828
 9312TIP3    H252132   4.073   6.312   6.283  0.0476 -0.8071 -1.0383
 9313TIP3   OH252133   2.058   3.318   6.427 -1.1900  0.3024 -0.1513
 9313TIP3    H152134   2.051   3.414   6.421  1.2461  0.4949 -0.9816
 9313TIP3    H252135   2.152   3.301   6.421 -1.5144 -2.1216  0.8536
 9314TIP3   OH252136   4.284   5.291   7.496  0.4583 -0.2667 -0.0587
 9314TIP3    H152137   4.228   5.237   7.553 -0.7739  1.0049 -0.0101
 9314TIP3    H252138   4.372   5.259   7.511 -0.0032 -0.8561  1.5488
 9315TIP3   OH252139   2.419   1.933   9.530  0.2364 -0.2995  0.2003
 9315TIP3    H152140   2.469   1.852   9.539  0.0054 -0.2695  2.1809
 9315TIP3    H252141   2.347   1.910   9.472 -0.3619 -1.8127  1.4639
 9316TIP3   OH252142   5.424   0.416   9.051  0.5284 -0.0594 -0.1204
 9316TIP3    H152143   5.422   0.475   9.126  1.5648 -0.6006  0.3612
 9316TIP3    H252144   5.517   0.406   9.032  0.3072 -0.6214 -0.9301
 9317TIP3   OH252145   0.118   5.712   7.698 -0.0659  0.0612  0.5530
 9317TIP3    H152146   0.079   5.799   7.703 -0.5027 -0.1714  1.4322
 9317TIP3    H252147   0.211   5.725   7.716  0.2796  0.6034 -1.3926
 9318TIP3   OH252148   2.364   5.868   6.174 -0.2343 -0.2185  0.7120
 9318TIP3    H152149   2.434   5.883   6.237 -0.6235 -0.9061  1.3269
 9318TIP3    H252150   2.283   5.877   6.225 -0.5411 -1.5532  0.5089
 9319TIP3   OH252151   1.371   5.876   7.386 -0.1969 -0.2276 -0.5286
 9319TIP3    H152152   1.431   5.834   7.324  1.9545 -1.1499  2.0140
 9319TIP3    H252153   1.299   5.813   7.396  0.1601 -0.7095 -0.9590
 9320TIP3   OH252154   1.224   1.137   7.194  0.2366  0.3942 -0.0154
 9320TIP3    H152155   1.254   1.223   7.164  1.2796 -0.5169 -1.7820
 9320TIP3    H252156   1.301   1.081   7.185 -0.9038 -1.1332 -0.7215
 9321TIP3   OH252157   0.647   6.257   6.714  0.1230  0.4941  0.1409
 9321TIP3    H152158   0.620   6.320   6.647 -0.3922 -0.5285 -0.6536
 9321TIP3    H252159   0.698   6.308   6.777  1.4758  1.3241 -1.5404
 9322TIP3   OH252160   1.934   2.513   6.628 -0.1409  0.4013  0.2775
 9322TIP3    H152161   1.864   2.577   6.637 -0.4164  0.1647 -0.1780
 9322TIP3    H252162   1.999   2.556   6.572 -0.2131  0.3790  0.1761
 9323TIP3   OH252163   6.097   4.631   8.834  0.0353  0.4129 -0.2207
 9323TIP3    H152164   6.140   4.647   8.918 -1.5082 -0.2033  0.7231
 9323TIP3    H252165   6.057   4.545   8.843 -0.5526  0.5410 -1.4212
 9324TIP3   OH252166   4.768   2.648   7.087  0.0323 -0.1524 -0.1367
 9324TIP3    H152167   4.681   2.616   7.064  0.0369 -0.0917 -0.2388
 9324TIP3    H252168   4.774   2.734   7.046  0.3453 -0.3896 -0.6022
 9325TIP3   OH252169   4.835   6.558   6.958 -0.0852  0.0860 -0.5128
 9325TIP3    H152170   4.889   6.591   7.030 -0.8020  0.6386 -0.2030
 9325TIP3    H252171   4.803   6.637   6.914 -1.8069 -0.1541  0.2170
 9326TIP3   OH252172   6.164   2.864   5.876  0.1863  0.5446  0.3364
 9326TIP3    H152173   6.133   2.819   5.954 -0.1959  1.4967  0.7449
 9326TIP3    H252174   6.142   2.955   5.890  2.1837  1.1077  0.1585
 9327TIP3   OH252175   5.442   4.751   7.925 -0.6282  0.4164 -0.1292
 9327TIP3    H152176   5.461   4.824   7.984  0.7662 -0.6987  0.8685
 9327TIP3    H252177   5.487   4.773   7.843 -1.2339  1.2233 -0.2553
 9328TIP3   OH252178   6.178   0.754   9.040  0.1226  0.5188 -0.0948
 9328TIP3    H152179   6.227   0.834   9.017  1.7064 -0.2329  0.4933
 9328TIP3    H252180   6.102   0.785   9.088  0.9593  1.6825  0.5452
 9329TIP3   OH252181   6.190   2.241   7.126 -0.0363  0.4215  0.1740
 9329TIP3    H152182   6.124   2.179   7.093  2.2091 -2.0395 -0.0686
 9329TIP3    H252183   6.186   2.233   7.221  0.1329  0.0002  0.1482
 9330TIP3   OH252184   1.695   0.153   5.651  0.6431  0.4224 -0.2091
 9330TIP3    H152185   1.752   0.171   5.576  1.9370  0.7621  0.8153
 9330TIP3    H252186   1.698   0.058   5.661  2.5039  0.5502  0.8940
 9331TIP3   OH252187   4.998   4.249   7.314 -0.5125 -0.1418 -0.0217
 9331TIP3    H152188   5.039   4.329   7.347 -0.6413 -0.6134  1.3449
 9331TIP3    H252189   4.906   4.259   7.339 -0.2491 -1.3992  1.5790
 9332TIP3   OH252190   3.983   4.856   6.143  0.4051 -0.3122  0.1558
 9332TIP3    H152191   4.048   4.793   6.112  0.8212  1.1223 -2.1150
 9332TIP3    H252192   4.032   4.939   6.149 -0.4249  0.1080  1.8197
 9333TIP3   OH252193   5.750   5.834   7.494 -0.3264 -0.0596 -0.4640
 9333TIP3    H152194   5.826   5.891   7.481 -0.5021  0.4851  0.7724
 9333TIP3    H252195   5.729   5.801   7.407 -0.3231  1.8960 -1.2414
 9334TIP3   OH252196   0.036   4.297   6.279 -0.7554  0.0188  0.3166
 9334TIP3    H152197   0.078   4.313   6.363 -1.5918  0.0693  0.7295
 9334TIP3    H252198   0.091   4.230   6.237 -0.6053 -0.3607  1.0986
 9335TIP3   OH252199   0.075   3.406   9.018 -0.1938 -0.6704 -0.2328
 9335TIP3    H152200   0.169   3.412   9.004 -0.3868  1.6600 -0.9553
 9335TIP3    H252201   0.065   3.395   9.113  0.7840 -2.2815 -0.2789
 9336TIP3   OH252202   5.574   4.237   5.766  0.4239 -0.1764 -0.1367
 9336TIP3    H152203   5.485   4.273   5.774  0.7711  0.3717  1.9257
 9336TIP3    H252204   5.620   4.272   5.842  1.8503 -2.0605 -0.0641
 9337TIP3   OH252205   5.593   6.247   6.430 -0.6132  0.3598  0.1242
 9337TIP3    H152206   5.660   6.272   6.493  0.5940 -2.2165  0.0064
 9337TIP3    H252207   5.616   6.295   6.350 -0.0335  0.9557  0.6373
 9338TIP3   OH252208   3.033   2.643   8.724  0.1855  0.3232  0.1762
 9338TIP3    H152209   2.944   2.651   8.688  0.8148  1.7151 -1.2134
 9338TIP3    H252210   3.071   2.567   8.679 -0.4724 -0.6440  1.2162
 9339TIP3   OH252211   1.076   0.580   7.475  0.1574  0.1674 -0.3071
 9339TIP3    H152212   1.076   0.668   7.438  0.7343  0.7334  0.9841
 9339TIP3    H252213   1.166   0.566   7.504 -0.4323  0.0605  1.5636
 9340TIP3   OH252214   5.066   4.264   6.097  0.0206 -0.0807  0.5103
 9340TIP3    H152215   5.001   4.222   6.041  0.8191 -0.4375 -0.1610
 9340TIP3    H252216   5.014   4.303   6.168 -0.8487 -1.0922  0.4542
 9341TIP3   OH252217   3.275   6.082   5.967 -0.3792  0.4457  0.4359
 9341TIP3    H152218   3.367   6.093   5.991 -0.5395  0.6356  0.9852
 9341TIP3    H252219   3.263   6.137   5.890 -0.2008  0.9668  0.7793
 9342TIP3   OH252220   4.149   4.692   7.422  0.6878 -0.0445  0.5017
 9342TIP3    H152221   4.057   4.684   7.449  0.7920  0.0001  0.8809
 9342TIP3    H252222   4.183   4.603   7.428  0.6457 -0.0786  0.2621
 9343TIP3   OH252223   4.828   2.127   6.067 -0.0363  0.2355 -0.2052
 9343TIP3    H152224   4.838   2.055   6.005 -0.6227  0.2994 -0.3870
 9343TIP3    H252225   4.746   2.106   6.114 -0.4637  1.0165 -0.5852
 9344TIP3   OH252226   2.917   2.645   7.167  0.2879  0.2685 -0.7558
 9344TIP3    H152227   2.903   2.561   7.211  1.2082  0.3852 -0.2161
 9344TIP3    H252228   2.975   2.693   7.225  0.1700  1.0941 -1.3028
 9345TIP3   OH252229   5.147   0.596   5.687 -0.1905 -0.3241  0.0357
 9345TIP3    H152230   5.139   0.651   5.765  0.7858 -1.6538  1.1214
 9345TIP3    H252231   5.103   0.646   5.618  0.0868  1.5056  1.1091
 9346TIP3   OH252232   1.461   1.208   6.340  1.0910  0.4561 -0.6393
 9346TIP3    H152233   1.425   1.129   6.300 -1.2665  2.3572 -2.5950
 9346TIP3    H252234   1.519   1.244   6.274 -0.2798  1.9260 -1.0970
 9347TIP3   OH252235   4.866   6.580   5.805 -0.5506  0.0643 -0.4050
 9347TIP3    H152236   4.811   6.546   5.734 -0.5906 -0.3280 -0.1917
 9347TIP3    H252237   4.811   6.645   5.849 -0.0779  1.2444 -1.5075
 9348TIP3   OH252238   1.468   3.446   7.294  0.0858 -0.2344 -0.4785
 9348TIP3    H152239   1.510   3.402   7.220  0.9744 -1.3462  0.6592
 9348TIP3    H252240   1.517   3.417   7.371 -0.2402  1.6076  0.4821
 9349TIP3   OH252241   4.461   6.415   6.439 -0.1769  0.5047  0.5091
 9349TIP3    H152242   4.532   6.471   6.407 -0.5223  0.3693 -0.5328
 9349TIP3    H252243   4.487   6.326   6.415 -0.6048  0.4349  0.2876
 9350TIP3   OH252244   3.776   5.182   6.071  0.0618  0.1586 -0.1101
 9350TIP3    H152245   3.779   5.134   6.154  1.6588  1.8413  0.8918
 9350TIP3    H252246   3.690   5.223   6.070 -0.3433 -0.6645  0.2499
 9351TIP3   OH252247   5.220   6.265   7.744  0.2243 -0.8021 -0.0763
 9351TIP3    H152248   5.283   6.247   7.674 -1.8103 -1.7403 -1.7763
 9351TIP3    H252249   5.240   6.355   7.772  3.1350 -1.5140  0.4257
 9352TIP3   OH252250   3.872   2.230   8.418  0.5902  0.0511 -0.4761
 9352TIP3    H152251   3.866   2.138   8.394  1.5318 -0.0316 -0.4187
 9352TIP3    H252252   3.817   2.237   8.496 -4.0695  0.7051 -3.4154
 9353TIP3   OH252253   2.691   3.960   5.574  0.0902 -0.0508  0.1132
 9353TIP3    H152254   2.709   3.886   5.516  1.0067 -0.1748  0.5405
 9353TIP3    H252255   2.757   4.025   5.550 -0.4837  0.4849 -0.0130
 9354TIP3   OH252256   2.403   4.146   6.977  0.1755 -0.3385  0.0898
 9354TIP3    H152257   2.366   4.130   6.891  0.6807 -0.0007 -0.1998
 9354TIP3    H252258   2.393   4.241   6.990 -0.8649 -0.5420  0.8614
 9355TIP3   OH252259   6.347   1.138   6.718 -0.1369 -0.3508  0.2183
 9355TIP3    H152260   6.337   1.137   6.623  0.4599 -1.3229  0.1524
 9355TIP3    H252261   6.261   1.164   6.752 -0.5941 -0.8204 -0.5594
 9356TIP3   OH252262   4.525   0.373   7.279  0.0839 -0.6940 -0.6810
 9356TIP3    H152263   4.493   0.282   7.284 -0.1662 -0.5566  0.5748
 9356TIP3    H252264   4.555   0.383   7.189 -3.4018 -0.8662 -2.0387
 9357TIP3   OH252265   3.956   2.047   8.835  0.3993 -0.4740 -0.3422
 9357TIP3    H152266   4.035   2.096   8.857  0.6313 -0.4950 -1.1173
 9357TIP3    H252267   3.903   2.109   8.783  0.2457 -0.7114 -0.4691
 9358TIP3   OH252268   4.828   6.518   6.231 -0.1846 -0.3441 -0.4136
 9358TIP3    H152269   4.854   6.435   6.191 -0.9632 -0.7080 -0.1734
 9358TIP3    H252270   4.768   6.558   6.168  0.1596  0.0261 -0.5124
 9359TIP3   OH252271   0.238   4.144   6.149 -0.0192  0.2251 -0.0393
 9359TIP3    H152272   0.208   4.092   6.224 -0.4280 -0.6550 -0.7990
 9359TIP3    H252273   0.283   4.081   6.093 -0.3716  0.7268 -0.8913
 9360TIP3   OH252274   2.105   1.014   8.630  0.1539 -0.4219  0.1407
 9360TIP3    H152275   2.041   0.990   8.698  1.6969 -1.4243  1.3122
 9360TIP3    H252276   2.052   1.036   8.554 -1.5697 -1.4748  0.9768
 9361TIP3   OH252277   2.195   6.277   7.127  0.0713  0.0042  0.1828
 9361TIP3    H152278   2.102   6.278   7.105  0.0294 -1.0725  0.2645
 9361TIP3    H252279   2.209   6.192   7.170  1.1820 -0.0483 -0.2403
 9362TIP3   OH252280   2.244   6.495   6.161 -0.3593  0.4528 -0.1485
 9362TIP3    H152281   2.150   6.490   6.145 -0.2367  0.9165 -1.0678
 9362TIP3    H252282   2.272   6.575   6.116  0.0168  1.8825  2.4133
 9363TIP3   OH252283   1.825   6.126   7.547  0.1586  0.0840 -0.7999
 9363TIP3    H152284   1.905   6.082   7.517  1.4372  1.6936  0.0514
 9363TIP3    H252285   1.756   6.060   7.538  1.7729 -1.7263 -0.5478
 9364TIP3   OH252286   3.918   0.510   6.229  0.0043 -0.1651 -0.0931
 9364TIP3    H152287   3.922   0.519   6.133 -2.9690  1.1902 -0.1868
 9364TIP3    H252288   3.979   0.438   6.248  1.0144 -0.2189 -2.9255
 9365TIP3   OH252289   3.170   4.123   7.636  0.6468 -0.4525 -0.4904
 9365TIP3    H152290   3.190   4.085   7.551 -1.0514  1.2796 -1.7525
 9365TIP3    H252291   3.193   4.216   7.627 -2.7119  0.5217 -0.3171
 9366TIP3   OH252292   0.290   3.861   7.816 -0.0619 -0.1710 -0.2623
 9366TIP3    H152293   0.232   3.911   7.872 -0.0637 -0.4151 -0.0425
 9366TIP3    H252294   0.342   3.926   7.769  0.2204  0.0244  0.3221
 9367TIP3   OH252295   0.965   3.511   7.951  0.1392  0.4111  0.0663
 9367TIP3    H152296   1.034   3.500   7.886  0.0924 -1.3050  0.2698
 9367TIP3    H252297   0.884   3.497   7.902  0.1078 -0.9746  0.4916
 9368TIP3   OH252298   3.189   1.353   5.810  0.5682 -0.1377  0.2553
 9368TIP3    H152299   3.096   1.369   5.791  0.2418 -1.3761  0.7233
 9368TIP3    H252300   3.232   1.435   5.786 -0.2250 -0.4718 -2.7414
 9369TIP3   OH252301   1.366   2.254   6.913 -0.1075  0.0945 -0.2087
 9369TIP3    H152302   1.367   2.332   6.968 -1.3520 -0.5294  0.7454
 9369TIP3    H252303   1.372   2.181   6.975  0.6808 -0.5970 -1.0605
 9370TIP3   OH252304   0.678   2.199   6.318  0.4508 -0.5268  0.2495
 9370TIP3    H152305   0.760   2.227   6.278 -0.0082  0.1521 -0.2432
 9370TIP3    H252306   0.681   2.234   6.407  0.0232  0.9038 -0.2568
 9371TIP3   OH252307   5.629   1.283   7.439  0.2652 -0.2823  0.0839
 9371TIP3    H152308   5.702   1.248   7.489  0.0325  0.2660  0.8231
 9371TIP3    H252309   5.601   1.210   7.384  0.8640 -0.7359  0.3677
 9372TIP3   OH252310   5.685   1.320   6.223 -0.1982 -0.0018  0.1476
 9372TIP3    H152311   5.594   1.293   6.220 -0.4222  0.4574  1.7959
 9372TIP3    H252312   5.735   1.242   6.199 -0.9953 -0.3873 -0.2701
 9373TIP3   OH252313   1.287   2.050   7.910 -0.1918  0.4669 -0.2955
 9373TIP3    H152314   1.193   2.054   7.893 -0.0951  1.4379 -0.6765
 9373TIP3    H252315   1.318   2.139   7.895  0.6958  0.2962  0.4112
 9374TIP3   OH252316   2.865   0.607   8.662 -0.2883  0.0991  0.2261
 9374TIP3    H152317   2.930   0.678   8.662  1.2009 -1.2071 -1.1814
 9374TIP3    H252318   2.787   0.646   8.622  0.4504  0.9948 -0.3842
 9375TIP3   OH252319   3.914   0.027   5.512  0.2676  0.2592 -0.4721
 9375TIP3    H152320   3.862  -0.049   5.540 -1.0358  1.0471 -0.6914
 9375TIP3    H252321   3.849   0.093   5.489  1.3774  1.0731 -1.3387
 9376TIP3   OH252322   2.333   1.475   7.392  0.1330  0.3244  0.3741
 9376TIP3    H152323   2.255   1.510   7.348  0.2941 -0.8840 -0.9632
 9376TIP3    H252324   2.299   1.406   7.448  0.1456  0.4234  0.5027
 9377TIP3   OH252325   4.316   2.893   8.006  0.1093 -0.3519  0.2569
 9377TIP3    H152326   4.326   2.801   7.981  0.3368 -0.2416 -0.0713
 9377TIP3    H252327   4.270   2.891   8.089  1.4846 -0.8313  1.0276
 9378TIP3   OH252328   6.292   5.908   8.857 -0.3782  0.5584  0.3238
 9378TIP3    H152329   6.369   5.866   8.818  0.2300  0.3842  1.6507
 9378TIP3    H252330   6.270   5.853   8.932 -3.5536 -1.0148 -1.5412
 9379TIP3   OH252331   1.656   1.753   7.457  0.4422 -0.0901  0.3208
 9379TIP3    H152332   1.620   1.738   7.545 -0.0252 -0.7058  0.0347
 9379TIP3    H252333   1.594   1.814   7.416  2.0251  2.3101  1.2774
 9380TIP3   OH252334   2.330   3.103   6.190 -0.3103  0.1444 -0.6954
 9380TIP3    H152335   2.324   3.024   6.136 -0.0768  1.0347 -2.1027
 9380TIP3    H252336   2.284   3.082   6.270  0.7383 -1.8050 -0.5535
 9381TIP3   OH252337   2.577   2.643   6.809 -0.0500  0.0361  0.2768
 9381TIP3    H152338   2.529   2.592   6.744  1.2300 -1.0062  0.1198
 9381TIP3    H252339   2.509   2.683   6.863 -1.0953 -0.8676 -0.3419
 9382TIP3   OH252340   6.613   6.418   9.263 -0.0811 -0.5382 -0.0315
 9382TIP3    H152341   6.695   6.379   9.233  0.7332  0.7666  0.3797
 9382TIP3    H252342   6.610   6.396   9.357  0.6610  0.7896  0.3271
 9383TIP3   OH252343   1.387   4.426   7.211  0.1010  0.0594 -0.0358
 9383TIP3    H152344   1.419   4.445   7.123  0.7490 -0.2402  0.1303
 9383TIP3    H252345   1.403   4.506   7.261  2.1123 -0.6038  0.4633
 9384TIP3   OH252346   2.938   3.274   6.755 -0.2919 -0.1624  0.3440
 9384TIP3    H152347   2.940   3.267   6.850  0.2933  0.8093  0.4130
 9384TIP3    H252348   2.965   3.364   6.737 -3.9122  0.9202 -0.5687
 9385TIP3   OH252349   3.063   2.163   5.854 -0.1163  0.0947  0.1349
 9385TIP3    H152350   2.994   2.199   5.800  0.6635  0.5037 -0.6036
 9385TIP3    H252351   3.069   2.222   5.929 -0.4412  0.1638  0.1058
 9386TIP3   OH252352   2.479   0.989   7.888  0.3815  0.3837 -0.6455
 9386TIP3    H152353   2.560   0.980   7.939  0.2362  1.7351 -0.1348
 9386TIP3    H252354   2.509   1.004   7.798  0.6668 -0.0936 -0.6376
 9387TIP3   OH252355   0.221   5.308   8.339  0.0917 -0.8064 -0.2855
 9387TIP3    H152356   0.251   5.365   8.410 -1.7245 -0.6274  0.3954
 9387TIP3    H252357   0.136   5.345   8.313  0.2130 -1.5315 -1.7972
 9388TIP3   OH252358   1.464   2.898   6.541 -0.5625  0.3582  0.4780
 9388TIP3    H152359   1.381   2.864   6.575  0.0323 -1.3819  0.2836
 9388TIP3    H252360   1.460   2.882   6.447  0.5047 -0.9605  0.6309
 9389TIP3   OH252361   4.885   2.996   7.299  0.6284  0.6566 -0.2688
 9389TIP3    H152362   4.943   3.009   7.224 -0.4645  1.0245 -1.0756
 9389TIP3    H252363   4.798   2.989   7.260  0.0059  1.1892  0.9956
 9390TIP3   OH252364   5.110   4.325   5.819 -0.1760  0.2761 -0.4235
 9390TIP3    H152365   5.113   4.327   5.914 -1.1581  1.6374 -0.3836
 9390TIP3    H252366   5.196   4.358   5.791 -0.9230  2.9602  0.0842
 9391TIP3   OH252367   6.519   5.610   7.463 -0.3617 -0.2141 -0.1652
 9391TIP3    H152368   6.453   5.666   7.422 -1.4658 -0.3351  1.3711
 9391TIP3    H252369   6.484   5.590   7.550  1.4834 -0.6934  0.5261
 9392TIP3   OH252370   0.320   3.087   7.534 -0.1158  0.7460  0.5411
 9392TIP3    H152371   0.270   3.168   7.534 -3.4124 -0.9537  4.0300
 9392TIP3    H252372   0.379   3.094   7.609 -1.1465 -0.3226  1.5038
 9393TIP3   OH252373   6.235   3.346   7.397  0.3438 -0.2861 -0.6435
 9393TIP3    H152374   6.276   3.267   7.361 -0.0360  0.1948 -2.2344
 9393TIP3    H252375   6.142   3.326   7.400  0.4575 -0.6661  1.0670
 9394TIP3   OH252376   6.456   0.684   8.391 -0.5822 -0.1405 -0.3198
 9394TIP3    H152377   6.379   0.738   8.375 -1.0563 -0.6399  0.2158
 9394TIP3    H252378   6.527   0.730   8.347 -0.6919  1.6280  1.2393
 9395TIP3   OH252379   6.676   3.466   7.649  0.2901  0.1190  0.0138
 9395TIP3    H152380   6.732   3.425   7.583  1.3811 -1.4016  1.8210
 9395TIP3    H252381   6.736   3.515   7.705 -0.6507  1.5868 -0.1982
 9396TIP3   OH252382   3.908   2.655   8.094 -0.0978  0.6020 -0.0744
 9396TIP3    H152383   3.891   2.597   8.168  0.2214 -0.8263 -1.0624
 9396TIP3    H252384   3.922   2.741   8.133  1.5970 -0.3835  1.6778
 9397TIP3   OH252385   6.051   3.383   8.712  0.2078 -0.5391  0.0836
 9397TIP3    H152386   6.004   3.317   8.662  0.2053  1.0222 -2.0914
 9397TIP3    H252387   5.989   3.456   8.721  0.3216 -0.6172  2.1616
 9398TIP3   OH252388   3.246   6.536   5.699  0.0449  0.1685  1.0372
 9398TIP3    H152389   3.213   6.609   5.647 -1.1811 -1.2378 -0.2372
 9398TIP3    H252390   3.205   6.546   5.784 -1.2344  0.2134  0.4321
 9399TIP3   OH252391   6.697   1.646   7.613 -0.5114  0.3561 -1.2976
 9399TIP3    H152392   6.775   1.602   7.581 -1.6553  0.4865 -4.6717
 9399TIP3    H252393   6.696   1.730   7.566 -3.2445 -0.1668 -2.3708
 9400TIP3   OH252394   1.921   1.646   8.792 -0.0835 -0.4258 -0.2155
 9400TIP3    H152395   1.894   1.557   8.811  0.5381 -0.4573  0.5876
 9400TIP3    H252396   2.002   1.658   8.843 -0.0576  0.5244 -0.4606
 9401TIP3   OH252397   3.447   0.737   5.686 -0.4391  0.0434 -0.6279
 9401TIP3    H152398   3.477   0.653   5.720  0.9405  0.2811 -1.1688
 9401TIP3    H252399   3.354   0.741   5.710 -0.1979 -0.9983  0.6447
 9402TIP3   OH252400   4.172   4.583   8.443 -0.0260 -0.1975 -0.0902
 9402TIP3    H152401   4.136   4.632   8.369 -0.8281 -2.3311 -1.2079
 9402TIP3    H252402   4.266   4.599   8.439 -0.1294  0.2138 -1.2040
 9403TIP3   OH252403   3.093   4.116   6.917 -0.0927 -0.0700  0.0258
 9403TIP3    H152404   3.002   4.144   6.926  0.2000  1.0677 -0.3225
 9403TIP3    H252405   3.095   4.029   6.956 -1.6562 -0.7950 -1.3432
 9404TIP3   OH252406   2.988   3.417   5.610 -0.3486  0.1653 -0.3667
 9404TIP3    H152407   2.996   3.473   5.532 -0.4931  0.6706 -0.0292
 9404TIP3    H252408   3.056   3.352   5.600 -0.1919  0.3883 -0.7890
 9405TIP3   OH252409   2.019   0.406   6.023  1.1502  0.1011 -0.3230
 9405TIP3    H152410   1.956   0.388   6.093  0.7116 -0.4978 -0.8590
 9405TIP3    H252411   2.101   0.423   6.069  0.9468 -0.6138  0.3358
 9406TIP3   OH252412   3.654   6.604   6.598 -0.1971 -0.4833 -0.4124
 9406TIP3    H152413   3.635   6.591   6.505  0.9054  3.4754 -1.3491
 9406TIP3    H252414   3.585   6.663   6.629  0.6871  0.0095  0.6868
 9407TIP3   OH252415   2.542   2.536   5.850  0.1918  0.3181 -0.0549
 9407TIP3    H152416   2.536   2.525   5.945 -1.0424  0.3884 -0.1059
 9407TIP3    H252417   2.594   2.616   5.839  0.0823  0.4849  0.5787
 9408TIP3   OH252418   5.710   6.260   5.556 -0.4326  0.4441 -0.0637
 9408TIP3    H152419   5.756   6.244   5.639  1.7745  2.3600 -0.8183
 9408TIP3    H252420   5.691   6.354   5.557 -2.2513  0.1335 -0.8828
 9409TIP3   OH252421   2.398   0.785   5.877  0.2038 -0.4994 -0.3347
 9409TIP3    H152422   2.363   0.697   5.894 -0.7511 -0.2144 -0.7292
 9409TIP3    H252423   2.480   0.788   5.925 -1.2361 -0.5297  2.3159
 9410TIP3   OH252424   4.179   1.965   5.824 -0.0125 -0.2949 -0.5090
 9410TIP3    H152425   4.106   1.907   5.802 -0.6364 -0.2713  1.2893
 9410TIP3    H252426   4.138   2.051   5.835 -0.2801 -0.6955  2.9035
 9411TIP3   OH252427   0.750   1.672   7.566  0.2986 -0.3236  0.0113
 9411TIP3    H152428   0.721   1.584   7.587 -0.9055 -0.0835 -0.5495
 9411TIP3    H252429   0.735   1.681   7.472  0.6668  0.3856  0.0091
 9412TIP3   OH252430   4.747   0.358   6.759  0.3045  0.1571  0.0090
 9412TIP3    H152431   4.796   0.326   6.835  0.2530 -1.2265 -0.5203
 9412TIP3    H252432   4.763   0.293   6.691 -1.9761 -0.1601 -0.2892
 9413TIP3   OH252433   0.576   1.751   8.378  0.1536  0.0025  0.2683
 9413TIP3    H152434   0.659   1.746   8.426 -1.7204  1.2339  4.0279
 9413TIP3    H252435   0.525   1.676   8.410 -1.8484  1.9026  1.9029
 9414TIP3   OH252436   1.756   4.871   6.031  0.0641  0.4035 -0.0350
 9414TIP3    H152437   1.743   4.952   5.981  0.0334  1.6971  1.9409
 9414TIP3    H252438   1.692   4.877   6.102  2.8622  0.8560  2.7108
 9415TIP3   OH252439   2.174   3.313   6.126  0.0798 -0.2176 -0.5997
 9415TIP3    H152440   2.212   3.227   6.109  0.2162 -0.7005  1.8650
 9415TIP3    H252441   2.230   3.351   6.193 -0.1082  1.7437 -1.4914
 9416TIP3   OH252442   2.550   3.276   8.368  0.1755  0.0330 -0.0359
 9416TIP3    H152443   2.580   3.363   8.397 -0.2145  0.0596  0.2947
 9416TIP3    H252444   2.471   3.260   8.419  1.3401 -1.3974  1.4047
 9417TIP3   OH252445   3.763   5.687   6.888 -0.1850  0.0481  0.0120
 9417TIP3    H152446   3.729   5.752   6.827  0.7175  0.0665 -0.4896
 9417TIP3    H252447   3.857   5.683   6.869  0.2753  0.6584  1.9670
 9418TIP3   OH252448   0.316   4.735   6.193  0.1121 -0.3218 -0.2425
 9418TIP3    H152449   0.315   4.753   6.099 -0.4596 -1.1790 -0.4160
 9418TIP3    H252450   0.408   4.716   6.213  0.1311 -0.8198 -0.7716
 9419TIP3   OH252451   4.727   4.213   7.725  0.1584  0.6468 -0.0700
 9419TIP3    H152452   4.689   4.173   7.804  0.5650 -2.3646 -1.2551
 9419TIP3    H252453   4.819   4.226   7.747  0.2424 -0.0547  0.0371
 9420TIP3   OH252454   1.914   0.284   6.814  0.0910 -0.1975 -0.1895
 9420TIP3    H152455   1.987   0.237   6.774  0.3319 -0.9737  1.1263
 9420TIP3    H252456   1.844   0.279   6.749  1.8149  2.5806 -2.5755
 9421TIP3   OH252457   4.953   1.404   6.413  0.2679  0.5674 -0.0910
 9421TIP3    H152458   4.887   1.368   6.473 -0.8698  0.4877 -1.3299
 9421TIP3    H252459   4.989   1.479   6.459 -0.4242  0.3863  0.7811
 9422TIP3   OH252460   4.689   0.369   7.594 -0.0397  0.3249 -0.1920
 9422TIP3    H152461   4.616   0.427   7.614  1.2574  1.8762  0.2324
 9422TIP3    H252462   4.654   0.307   7.530 -1.9598  0.4454  0.6744
 9423TIP3   OH252463   0.135   1.749   8.146 -0.2758  0.2556 -0.1519
 9423TIP3    H152464   0.165   1.696   8.072  0.0092  1.3941 -0.8975
 9423TIP3    H252465   0.195   1.824   8.147 -0.3445  0.3148  1.1813
 9424TIP3   OH252466   3.365   0.919   6.910  0.0251 -0.4523  0.2528
 9424TIP3    H152467   3.338   0.851   6.971 -1.7511  1.4098  1.6682
 9424TIP3    H252468   3.284   0.950   6.870  0.9849 -0.4674 -1.8651
 9425TIP3   OH252469   0.081   4.604   7.432  0.1759 -0.2218  0.2042
 9425TIP3    H152470   0.076   4.697   7.407 -0.7036  0.2290  1.9207
 9425TIP3    H252471   0.175   4.588   7.446  0.3986  0.2242 -0.7255
 9426TIP3   OH252472   4.447   6.641   5.700 -0.6801 -0.4862 -0.2923
 9426TIP3    H152473   4.516   6.584   5.732  0.3194  1.6532  1.6342
 9426TIP3    H252474   4.483   6.682   5.622  1.5131  2.6308  2.1237
 9427TIP3   OH252475   3.098   5.068   6.166 -0.6755  0.2688 -0.2522
 9427TIP3    H152476   3.168   5.004   6.180  0.4728  1.6722  0.6886
 9427TIP3    H252477   3.020   5.015   6.149  0.4651 -1.3520 -0.6862
 9428TIP3   OH252478   1.477   3.662   7.725 -0.5988 -0.4098 -0.5305
 9428TIP3    H152479   1.566   3.630   7.711  0.0875  1.2029 -0.0918
 9428TIP3    H252480   1.477   3.692   7.816 -0.8862  1.6293 -1.1557
 9429TIP3   OH252481   0.663   3.004   5.806 -0.7821 -0.0982  0.0243
 9429TIP3    H152482   0.615   2.983   5.886 -1.0100 -1.9897 -0.5722
 9429TIP3    H252483   0.749   3.032   5.836 -1.2072  0.2545  0.9566
 9430TIP3   OH252484   3.153   3.594   6.113  0.6212 -0.7077 -0.1418
 9430TIP3    H152485   3.156   3.664   6.047 -0.2593 -1.6439 -1.2095
 9430TIP3    H252486   3.060   3.576   6.124  0.8657 -2.5427 -0.8050
 9431TIP3   OH252487   0.048   2.246   7.824  0.4190  0.3243  0.0504
 9431TIP3    H152488   0.092   2.327   7.850 -0.1227  0.3676  0.8861
 9431TIP3    H252489  -0.026   2.275   7.770 -0.4068  0.4842  1.2287
 9432TIP3   OH252490   2.873   4.219   6.798 -0.4824 -0.2990 -0.3031
 9432TIP3    H152491   2.818   4.295   6.781 -0.7921 -0.8205 -1.8230
 9432TIP3    H252492   2.867   4.166   6.718  1.3452 -0.9212 -0.0935
 9433TIP3   OH252493   0.287   5.327   6.141 -0.0707 -0.1878  0.5662
 9433TIP3    H152494   0.309   5.241   6.105  0.1761  0.3136 -0.5036
 9433TIP3    H252495   0.254   5.377   6.067 -0.4065  0.5837  1.2183
 9434TIP3   OH252496   4.914   3.888   8.549  0.8941 -0.0758 -0.0302
 9434TIP3    H152497   4.839   3.928   8.592  1.0532  0.8518 -0.5695
 9434TIP3    H252498   4.978   3.959   8.543  0.3628  0.2842 -3.0141
 9435TIP3   OH252499   0.790   1.782   8.563  0.1149 -0.1658  0.1729
 9435TIP3    H152500   0.740   1.808   8.641 -0.1241  1.3188 -0.4399
 9435TIP3    H252501   0.881   1.779   8.593 -0.1689 -1.8866  1.0433
 9436TIP3   OH252502   2.703   5.238   5.778  0.1772  0.2140  0.3077
 9436TIP3    H152503   2.692   5.328   5.746  0.7249 -0.4820 -1.9941
 9436TIP3    H252504   2.624   5.192   5.748  0.3934 -0.3320  0.5592
 9437TIP3   OH252505   4.303   0.088   8.881 -0.2072  0.1571 -0.3184
 9437TIP3    H152506   4.350   0.028   8.938  0.8096  1.2041 -0.0076
 9437TIP3    H252507   4.211   0.079   8.907 -0.3651 -2.5167 -1.4970
 9438TIP3   OH252508   2.468   5.359   6.826  0.1773  0.1394 -0.2504
 9438TIP3    H152509   2.435   5.347   6.737 -0.3802 -1.0984  0.1158
 9438TIP3    H252510   2.399   5.406   6.872  0.5938  1.0608 -0.5302
 9439TIP3   OH252511   5.319   1.135   6.723  0.0118 -0.4825 -0.0904
 9439TIP3    H152512   5.314   1.230   6.734  2.5596 -0.1083 -1.3951
 9439TIP3    H252513   5.241   1.101   6.768 -1.6118  2.2733 -0.6073
 9440TIP3   OH252514   3.159   0.032   9.116 -0.1297 -0.4381 -0.0315
 9440TIP3    H152515   3.215   0.014   9.191 -0.1213 -1.7490 -0.3278
 9440TIP3    H252516   3.111  -0.050   9.102 -2.3533  0.7295  0.3882
 9441TIP3   OH252517   3.880   3.723   6.506 -0.7029 -0.1203  0.1391
 9441TIP3    H152518   3.849   3.812   6.525  0.1331  0.3985 -0.8629
 9441TIP3    H252519   3.812   3.685   6.451  0.4564  1.0992 -2.2601
 9442TIP3   OH252520   5.414   1.596   7.388  0.1351  0.3703 -0.1583
 9442TIP3    H152521   5.333   1.647   7.387  0.1183  0.5309 -3.6757
 9442TIP3    H252522   5.478   1.652   7.343  0.5401 -1.9297 -2.7155
 9443TIP3   OH252523   0.438   2.679   8.806 -0.2938 -0.0165 -0.1595
 9443TIP3    H152524   0.345   2.680   8.826 -0.7034 -0.6452 -1.7953
 9443TIP3    H252525   0.447   2.736   8.730  0.6518  0.0061 -0.0501
 9444TIP3   OH252526   5.835   1.798   6.467  0.1940  0.2500 -0.3395
 9444TIP3    H152527   5.797   1.711   6.469 -0.3833  0.4547 -1.7510
 9444TIP3    H252528   5.886   1.803   6.548 -1.1108 -0.7692  0.5820
 9445TIP3   OH252529   1.422   1.923   7.481  0.7210 -0.2127 -0.3002
 9445TIP3    H152530   1.340   1.907   7.526  0.5440  1.0245 -0.1553
 9445TIP3    H252531   1.460   1.999   7.525  2.7098 -1.6494  0.6708
 9446TIP3   OH252532   2.506   5.540   5.666 -0.2168  0.3840 -0.1513
 9446TIP3    H152533   2.599   5.525   5.650  0.5039  1.1683  2.6689
 9446TIP3    H252534   2.467   5.452   5.664  0.9291 -0.1554  0.2955
 9447TIP3   OH252535   1.950   6.380   8.179 -0.0453  0.3341 -0.1268
 9447TIP3    H152536   1.989   6.343   8.259 -0.5448  1.2662  0.5697
 9447TIP3    H252537   2.024   6.392   8.120  0.1280 -1.8472 -0.4305
 9448TIP3   OH252538   3.877   1.227   5.613  0.1404 -0.1551 -0.5103
 9448TIP3    H152539   3.953   1.179   5.647  0.2843  0.7447  0.5218
 9448TIP3    H252540   3.804   1.165   5.619  0.3911 -0.3805  0.4521
 9449TIP3   OH252541   4.426   0.435   6.874  0.1072 -0.6232  0.1989
 9449TIP3    H152542   4.456   0.371   6.809  0.9019  0.6628 -0.7510
 9449TIP3    H252543   4.337   0.408   6.894 -0.7733 -0.1832 -2.6596
 9450TIP3   OH252544   5.451   3.409   7.478 -0.2734  0.1659 -0.3711
 9450TIP3    H152545   5.376   3.370   7.433 -1.3643  0.7089  0.9070
 9450TIP3    H252546   5.435   3.391   7.571  1.9208 -0.9524 -0.1503
 9451TIP3   OH252547   0.101   1.632   6.905  0.0409  0.2951 -0.5937
 9451TIP3    H152548   0.159   1.627   6.829  0.2952  1.4752 -0.4956
 9451TIP3    H252549   0.015   1.605   6.873 -0.3765  2.8721 -1.8934
 9452TIP3   OH252550   0.869   0.808   9.309 -0.1200  0.5468 -1.0350
 9452TIP3    H152551   0.929   0.873   9.274  0.1115  0.4729 -0.7827
 9452TIP3    H252552   0.852   0.837   9.399  0.7890 -0.2803 -0.5690
 9453TIP3   OH252553   5.805   3.233   6.079  0.0899 -0.2565  0.0699
 9453TIP3    H152554   5.774   3.223   5.989  0.1290  0.5603 -0.0351
 9453TIP3    H252555   5.900   3.238   6.072  0.7218 -5.7105  0.6116
 9454TIP3   OH252556   6.184   1.669   6.837 -0.1207  0.1089  0.3247
 9454TIP3    H152557   6.242   1.666   6.912  0.5356  0.8737 -0.1219
 9454TIP3    H252558   6.105   1.622   6.864  0.4889 -0.4594  1.1362
 9455TIP3   OH252559   5.356   2.288   5.744 -0.0985 -0.2215  0.4682
 9455TIP3    H152560   5.358   2.355   5.676  0.9175  0.1729  0.8600
 9455TIP3    H252561   5.292   2.319   5.808 -0.5767 -0.2728  0.0230
 9456TIP3   OH252562   5.375   0.521   7.102 -0.0643  0.0399  0.0063
 9456TIP3    H152563   5.334   0.464   7.168  1.7108  0.2712  1.3974
 9456TIP3    H252564   5.418   0.589   7.153  4.3802 -1.6812 -1.0182
 9457TIP3   OH252565   6.266   4.926   8.446 -0.1585 -0.3056  0.2782
 9457TIP3    H152566   6.264   4.896   8.537  0.9744 -1.1403  0.0397
 9457TIP3    H252567   6.288   5.019   8.453 -0.3841 -0.2894  0.8714
 9458TIP3   OH252568   2.360   4.487   8.315 -0.0737 -0.3770  0.0725
 9458TIP3    H152569   2.280   4.482   8.367 -0.6231 -1.1606 -0.8145
 9458TIP3    H252570   2.335   4.539   8.239  1.4097  3.0873  1.7368
 9459TIP3   OH252571   0.359   1.780   7.678 -0.1554  0.1625 -0.1935
 9459TIP3    H152572   0.319   1.832   7.748 -0.0210 -0.8423  0.6549
 9459TIP3    H252573   0.444   1.755   7.713  1.9948  3.4429 -2.4907
 9460TIP3   OH252574   4.397   2.320   6.021 -0.3796  0.1919 -0.7128
 9460TIP3    H152575   4.437   2.377   5.955 -1.3517  1.4717 -0.2317
 9460TIP3    H252576   4.424   2.232   5.995  1.9599  0.9043 -0.9436
 9461TIP3   OH252577   5.871   1.760   8.509  0.0617 -0.1226 -0.0523
 9461TIP3    H152578   5.882   1.816   8.432  0.0956 -1.2322 -0.8830
 9461TIP3    H252579   5.789   1.713   8.492  0.2462 -0.6216  0.4297
 9462TIP3   OH252580   1.637   2.653   7.892 -0.1682 -0.5712 -0.4544
 9462TIP3    H152581   1.676   2.568   7.871  0.2857 -0.9103  1.5690
 9462TIP3    H252582   1.687   2.685   7.966 -2.6549 -0.2693  1.2116
 9463TIP3   OH252583   3.642   2.785   7.943 -0.2161 -0.7442 -0.2603
 9463TIP3    H152584   3.615   2.714   7.884 -2.5804 -0.6550  0.6162
 9463TIP3    H252585   3.661   2.741   8.026 -3.3552 -0.3125  0.8068
 9464TIP3   OH252586   2.265   4.712   7.183 -0.5776  0.1005 -0.1216
 9464TIP3    H152587   2.302   4.736   7.098 -0.4303 -0.1808 -0.1408
 9464TIP3    H252588   2.339   4.673   7.230 -0.6894  0.1428  0.0890
 9465TIP3   OH252589   5.429   4.569   6.258  0.4605  0.2633 -0.1558
 9465TIP3    H152590   5.362   4.504   6.280  0.0760  0.7315  0.0513
 9465TIP3    H252591   5.381   4.651   6.248  0.9652  0.5441 -0.2989
 9466TIP3   OH252592   1.068   1.054   6.975 -0.1274  0.2474  0.0377
 9466TIP3    H152593   1.109   1.090   7.054 -0.0617 -0.8459  0.5169
 9466TIP3    H252594   1.109   1.102   6.903  0.9701  0.1649  0.5814
 9467TIP3   OH252595   4.081   1.195   6.218 -0.0758 -0.0196  0.4107
 9467TIP3    H152596   4.102   1.195   6.312 -0.1921 -1.1499  0.4502
 9467TIP3    H252597   4.069   1.103   6.196 -0.1040  0.2361 -0.7132
 9468TIP3   OH252598   4.019   5.077   7.348 -0.4861 -0.4678  0.4240
 9468TIP3    H152599   3.937   5.035   7.322 -1.7654  2.3309 -0.5817
 9468TIP3    H252600   4.002   5.108   7.437 -1.7003  2.4278 -0.6804
 9469TIP3   OH252601   6.175   5.717   8.292 -0.0213 -0.1682 -0.2287
 9469TIP3    H152602   6.089   5.729   8.252 -0.4112  0.9689  0.8948
 9469TIP3    H252603   6.176   5.624   8.318 -1.1217 -0.0791  0.2120
 9470TIP3   OH252604   2.409   4.708   6.007 -0.1473 -0.0845 -0.1505
 9470TIP3    H152605   2.482   4.693   5.947  1.2420  0.2119  1.3889
 9470TIP3    H252606   2.387   4.620   6.039 -0.9730 -0.2576 -1.1396
 9471TIP3   OH252607   2.263   3.789   5.881  0.3630 -0.2255  0.2852
 9471TIP3    H152608   2.331   3.764   5.944  0.6942 -1.1698 -0.4196
 9471TIP3    H252609   2.244   3.880   5.902  0.9826 -0.2995  1.2799
 9472TIP3   OH252610   0.979   2.603   6.138  0.5860  0.1995  0.1862
 9472TIP3    H152611   0.962   2.565   6.052  1.1188  2.4124 -0.9883
 9472TIP3    H252612   0.991   2.697   6.121  0.5518  0.7449  2.7038
 9473TIP3   OH252613   0.285   4.422   6.152 -0.5339 -0.2806 -0.4322
 9473TIP3    H152614   0.267   4.328   6.162 -1.4669 -0.1998 -1.2205
 9473TIP3    H252615   0.207   4.465   6.188  0.1816  0.2279  0.5573
 9474TIP3   OH252616   1.432   0.704   7.677 -0.4137 -0.5007 -0.0124
 9474TIP3    H152617   1.478   0.768   7.732  0.7428 -1.4193  0.1480
 9474TIP3    H252618   1.381   0.757   7.616 -0.3966  0.5568  0.8556
 9475TIP3   OH252619   0.421   1.449   5.959 -0.2290  0.5472  0.6709
 9475TIP3    H152620   0.363   1.436   6.034 -0.2205  0.0517  0.5982
 9475TIP3    H252621   0.361   1.463   5.885 -0.2569  0.0759  0.6030
 9476TIP3   OH252622   6.235   5.893   6.203 -0.1054 -0.0546 -0.3024
 9476TIP3    H152623   6.160   5.884   6.145  0.9911 -0.6049 -1.6994
 9476TIP3    H252624   6.270   5.805   6.212  1.6509  0.4607 -1.5014
 9477TIP3   OH252625   0.051   1.612   6.017 -0.4599 -0.3766 -0.2182
 9477TIP3    H152626   0.042   1.707   6.010 -0.9123 -0.3076  1.0401
 9477TIP3    H252627  -0.034   1.582   6.049  0.3151 -0.9427  1.4557
 9478TIP3   OH252628   4.118   3.370   7.007  0.3932  0.3108 -0.1917
 9478TIP3    H152629   4.165   3.331   7.080  0.3481  1.6140  0.5607
 9478TIP3    H252630   4.052   3.427   7.047 -1.2998 -0.8288 -1.2283
 9479TIP3   OH252631   2.715   0.874   6.886  0.5258  0.0135 -0.0898
 9479TIP3    H152632   2.790   0.819   6.909  0.3179  0.1680  1.0020
 9479TIP3    H252633   2.734   0.904   6.797  0.8843 -1.3989 -0.5222
 9480TIP3   OH252634   2.049   0.230   7.059  0.2695 -0.3068  0.2724
 9480TIP3    H152635   1.985   0.191   7.118  0.7477 -2.4577 -0.4990
 9480TIP3    H252636   2.005   0.234   6.974  0.1920  1.0227  0.3597
 9481TIP3   OH252637   5.620   5.542   8.862  0.2266 -0.4308 -0.4655
 9481TIP3    H152638   5.677   5.612   8.894  1.2884  0.2551 -3.5122
 9481TIP3    H252639   5.544   5.589   8.827 -0.5961 -1.0809  0.4313
 9482TIP3   OH252640   3.523   3.101   7.590 -0.7134  0.3376 -0.0111
 9482TIP3    H152641   3.618   3.106   7.602 -0.6774  1.7367 -0.6818
 9482TIP3    H252642   3.511   3.048   7.511 -0.3032  2.6244 -1.7093
 9483TIP3   OH252643   2.811   1.317   6.563  0.0798  0.1636 -0.0129
 9483TIP3    H152644   2.851   1.274   6.488 -0.8309 -1.2567  0.2784
 9483TIP3    H252645   2.718   1.295   6.557  0.0208 -0.2162  1.6677
 9484TIP3   OH252646   2.262   1.655   8.034  0.2707  0.0784 -0.4383
 9484TIP3    H152647   2.346   1.651   8.080 -0.4637 -1.1613  0.8892
 9484TIP3    H252648   2.274   1.597   7.959  1.0237  0.9839 -1.0370
 9485TIP3   OH252649   1.580   2.064   6.354  0.4825  0.0054  0.2617
 9485TIP3    H152650   1.609   2.155   6.358 -1.5380  0.7114 -0.0350
 9485TIP3    H252651   1.566   2.047   6.261  0.4700 -0.4675  0.3481
 9486TIP3   OH252652   2.302   4.855   6.228  0.3790 -0.0605 -0.4602
 9486TIP3    H152653   2.329   4.801   6.154  1.6433 -0.9427  0.6004
 9486TIP3    H252654   2.236   4.803   6.273  0.4927 -0.0584 -0.2908
 9487TIP3   OH252655   0.218   6.288   8.539 -0.1916 -1.0043 -0.0648
 9487TIP3    H152656   0.308   6.271   8.564  0.0203  1.3494  1.0244
 9487TIP3    H252657   0.183   6.342   8.611 -1.6758  0.2299 -1.6296
 9488TIP3   OH252658   0.748   4.304   7.911 -0.1454 -0.3391 -0.1273
 9488TIP3    H152659   0.816   4.236   7.910 -0.2887 -0.5141 -2.3275
 9488TIP3    H252660   0.765   4.356   7.833  0.5862  2.8900  1.9962
 9489TIP3   OH252661   1.319   3.688   7.079 -0.1312 -0.4402 -0.3770
 9489TIP3    H152662   1.333   3.686   7.174 -0.4024 -0.5051 -0.3366
 9489TIP3    H252663   1.375   3.759   7.047 -0.0639 -0.3981 -0.1646
 9490TIP3   OH252664   3.173   1.140   8.403  0.3797 -0.0828 -0.6201
 9490TIP3    H152665   3.160   1.128   8.497 -0.7218 -0.3706 -0.7945
 9490TIP3    H252666   3.187   1.234   8.392  0.2673 -0.0174 -0.1921
 9491TIP3   OH252667   6.532   4.821   7.598  0.0137  0.2195 -0.1208
 9491TIP3    H152668   6.568   4.838   7.511  1.3168 -0.6435  0.2235
 9491TIP3    H252669   6.567   4.736   7.623 -1.7428 -0.3497  0.5530
 9492TIP3   OH252670   4.440   2.123   6.444  0.1154 -0.0091 -0.4032
 9492TIP3    H152671   4.371   2.188   6.458 -0.8618 -0.8211 -1.2950
 9492TIP3    H252672   4.396   2.038   6.451  1.3573 -0.6005  0.6871
 9493TIP3   OH252673   0.599   4.287   6.721 -0.1435  0.2875  0.1426
 9493TIP3    H152674   0.548   4.261   6.798  1.3898  0.5528  1.3027
 9493TIP3    H252675   0.575   4.222   6.654  0.6746 -1.8178  1.7519
 9494TIP3   OH252676   0.995   5.897   7.206 -0.2019 -0.3006 -0.4004
 9494TIP3    H152677   1.033   5.858   7.285 -3.2341 -0.3952  1.1466
 9494TIP3    H252678   1.032   5.845   7.134  1.0379 -1.6016  1.1044
 9495TIP3   OH252679   3.064   3.101   6.083  0.2440  1.4289 -0.0392
 9495TIP3    H152680   3.002   3.144   6.025 -0.3227  3.1496  1.7229
 9495TIP3    H252681   3.023   3.016   6.103 -1.7363  2.5883  1.2278
 9496TIP3   OH252682   6.108   2.544   6.232  0.8859 -0.2693 -0.0407
 9496TIP3    H152683   6.042   2.480   6.259 -0.8996  1.1708 -0.7965
 9496TIP3    H252684   6.159   2.562   6.312 -0.5269 -0.4030  0.9172
 9497TIP3   OH252685   0.530   4.366   7.619 -0.1365  0.2623 -0.1871
 9497TIP3    H152686   0.561   4.276   7.614 -0.3345  0.2439 -1.3325
 9497TIP3    H252687   0.610   4.419   7.624  0.0351  0.1003 -1.0414
 9498TIP3   OH252688   1.923   4.711   6.587  0.2772 -0.1841 -0.9500
 9498TIP3    H152689   1.856   4.650   6.556  0.5669 -0.2716 -1.4020
 9498TIP3    H252690   2.002   4.687   6.539  0.3967  0.5414 -1.1289
 9499TIP3   OH252691   2.407   5.965   8.126  0.6899 -0.0851 -0.8473
 9499TIP3    H152692   2.401   5.893   8.189  0.3085 -1.4857 -2.4256
 9499TIP3    H252693   2.462   6.030   8.170 -0.1748 -0.6451  1.2364
 9500TIP3   OH252694   0.119   6.185   7.723 -0.4892  0.2668  0.1917
 9500TIP3    H152695   0.124   6.127   7.647 -0.5745 -0.1223  0.4838
 9500TIP3    H252696   0.031   6.171   7.758 -0.1461 -0.2043  0.8757
 9501TIP3   OH252697   4.443   0.750   6.857 -0.2203 -0.2810  0.3049
 9501TIP3    H152698   4.352   0.767   6.880 -0.0986  0.8481  0.0153
 9501TIP3    H252699   4.439   0.683   6.789 -0.8168 -0.4288  0.4848
 9502TIP3   OH252700   1.886   3.092   6.379 -0.0527 -0.0633  0.1325
 9502TIP3    H152701   1.812   3.149   6.358  0.4331  0.9055  0.9764
 9502TIP3    H252702   1.960   3.152   6.387  0.1472 -0.5698  2.7725
 9503TIP3   OH252703   3.802   6.281   8.504  0.0117  0.8042  0.4589
 9503TIP3    H152704   3.828   6.311   8.591 -2.9292  0.9936  1.3911
 9503TIP3    H252705   3.771   6.191   8.518 -0.0397  0.6619 -0.4956
 9504TIP3   OH252706   6.743   4.894   8.747 -0.7727 -0.0746  0.4798
 9504TIP3    H152707   6.711   4.967   8.799  0.7254  0.6124  0.5188
 9504TIP3    H252708   6.838   4.906   8.746 -0.3294 -2.8239  1.6462
 9505TIP3   OH252709   2.299   5.364   8.597  0.2715 -0.3202 -0.1501
 9505TIP3    H152710   2.364   5.295   8.610  1.7089  0.9290 -0.3635
 9505TIP3    H252711   2.282   5.398   8.684 -0.8595 -1.2745  0.0239
 9506TIP3   OH252712   2.913   4.689   6.610  0.5354 -0.3837 -0.7005
 9506TIP3    H152713   2.911   4.746   6.687 -1.0896 -0.4951 -0.6400
 9506TIP3    H252714   2.864   4.738   6.544  1.6129 -0.4492 -1.5744
 9507TIP3   OH252715   3.220   1.568   6.879  0.6572  0.1442 -0.1877
 9507TIP3    H152716   3.300   1.579   6.828  0.8128 -0.0387  0.0136
 9507TIP3    H252717   3.151   1.551   6.814  0.8477 -0.0521 -0.3389
 9508TIP3   OH252718   0.224   3.763   6.853 -0.0667 -0.3170  0.3169
 9508TIP3    H152719   0.138   3.737   6.887  0.0537 -0.9059  0.1810
 9508TIP3    H252720   0.205   3.836   6.794 -0.6333 -1.2773 -0.7254
 9509TIP3   OH252721   1.576   5.273   8.353 -0.2715 -0.2025  0.1320
 9509TIP3    H152722   1.621   5.342   8.304  1.0836 -0.6573  0.6963
 9509TIP3    H252723   1.625   5.194   8.333 -0.4297 -0.6017  1.2781
 9510TIP3   OH252724   2.824   6.555   6.287 -0.3229  0.3610  0.1377
 9510TIP3    H152725   2.778   6.482   6.246 -0.1428  0.1789  0.2584
 9510TIP3    H252726   2.877   6.514   6.355 -0.5429  0.6495  0.4866
 9511TIP3   OH252727   0.938   2.676   7.359  0.3948 -0.2777  0.1509
 9511TIP3    H152728   0.907   2.671   7.449  0.5817 -0.2560  0.2167
 9511TIP3    H252729   0.997   2.751   7.358 -2.0878  1.7907 -0.7479
 9512TIP3   OH252730   0.667   5.679   8.967  0.3609  0.0381 -0.0784
 9512TIP3    H152731   0.640   5.735   9.039 -0.7822 -1.7184  0.9269
 9512TIP3    H252732   0.586   5.634   8.939  1.3119 -1.5570 -0.4158
 9513TIP3   OH252733   2.728   4.593   7.644 -0.4095  0.5602  0.1386
 9513TIP3    H152734   2.764   4.676   7.614  0.6962 -0.4249 -1.4571
 9513TIP3    H252735   2.658   4.617   7.705  0.9095  2.6022  0.9372
 9514TIP3   OH252736   5.856   3.333   6.615 -0.3724  0.1661  0.2623
 9514TIP3    H152737   5.923   3.335   6.683  1.1176  0.9826 -1.1806
 9514TIP3    H252738   5.883   3.262   6.557  0.6391  2.0325 -1.6450
 9515TIP3   OH252739   3.905   0.929   6.885 -0.1797 -0.1830  0.7126
 9515TIP3    H152740   3.811   0.938   6.875 -0.5450  0.0694  3.5903
 9515TIP3    H252741   3.923   0.837   6.863 -0.8462  0.0683 -1.0419
 9516TIP3   OH252742   0.003   0.127   7.894 -0.2031 -0.0485  0.1450
 9516TIP3    H152743  -0.026   0.151   7.982 -1.8597  1.8371 -0.8474
 9516TIP3    H252744   0.076   0.187   7.877 -0.2328 -0.0505  0.0170
 9517TIP3   OH252745   1.798   2.671   8.122  0.1193 -0.2760  0.1190
 9517TIP3    H152746   1.732   2.695   8.187 -0.5606 -1.6763 -0.0335
 9517TIP3    H252747   1.825   2.583   8.146  0.0914 -0.6963 -1.3093
 9518TIP3   OH252748   4.227   2.643   6.610  0.3313 -0.4701  0.2516
 9518TIP3    H152749   4.164   2.715   6.615  1.5242  0.5755  0.6593
 9518TIP3    H252750   4.276   2.660   6.529 -0.3007 -1.6323 -0.4057
 9519TIP3   OH252751   0.647   2.201   8.480  0.1672 -0.1302 -0.0448
 9519TIP3    H152752   0.716   2.145   8.444  1.3357  1.0010  0.3637
 9519TIP3    H252753   0.645   2.179   8.573 -1.0932 -1.2223 -0.2926
 9520TIP3   OH252754   4.146   4.850   6.641 -0.3684  0.4628  0.0436
 9520TIP3    H152755   4.142   4.896   6.725 -1.0724 -1.3778  1.0785
 9520TIP3    H252756   4.225   4.883   6.599 -1.0643  2.9264  0.4938
 9521TIP3   OH252757   3.512   4.484   8.372  0.0785 -0.1231  0.5072
 9521TIP3    H152758   3.561   4.496   8.453  0.0265  2.0420  0.2944
 9521TIP3    H252759   3.578   4.492   8.303  0.1201 -1.9285  0.2931
 9522TIP3   OH252760   0.940   5.604   7.543 -0.3794 -0.6807 -0.4092
 9522TIP3    H152761   0.930   5.573   7.633 -0.1493  0.9643  0.2148
 9522TIP3    H252762   0.852   5.599   7.507 -0.6369 -0.5694  0.1810
 9523TIP3   OH252763   3.915   0.646   6.851  0.1391  0.1272  0.2509
 9523TIP3    H152764   3.919   0.598   6.934  0.1722  0.2163  0.3007
 9523TIP3    H252765   3.945   0.583   6.785 -0.3393 -0.0981  0.2413
 9524TIP3   OH252766   5.981   2.879   7.100 -0.4894  0.1931  0.1916
 9524TIP3    H152767   6.025   2.923   7.173  1.4472 -0.7655 -0.3111
 9524TIP3    H252768   5.942   2.801   7.140  0.4489 -0.2584  0.2744
 9525TIP3   OH252769   5.746   3.143   8.082 -0.1737  0.0116 -0.5965
 9525TIP3    H152770   5.783   3.230   8.070 -1.3946  0.4813 -1.0941
 9525TIP3    H252771   5.705   3.122   7.998  1.0966 -1.5438 -0.8629
 9526TIP3   OH252772   1.455   1.739   6.851 -0.4427 -0.3704 -0.3569
 9526TIP3    H152773   1.486   1.671   6.791  3.0302 -0.0088  0.8120
 9526TIP3    H252774   1.521   1.809   6.843 -1.7082  1.1130  1.4134
 9527TIP3   OH252775   3.682   0.971   5.700 -0.0680 -0.6362  0.2586
 9527TIP3    H152776   3.620   0.917   5.651 -0.5926 -1.8369  2.1217
 9527TIP3    H252777   3.762   0.918   5.704 -0.0604 -0.5930  0.7466
 9528TIP3   OH252778   3.688   0.583   5.914  0.2691  0.3537 -0.0713
 9528TIP3    H152779   3.665   0.493   5.890 -0.4738  0.8358 -1.3128
 9528TIP3    H252780   3.781   0.591   5.892 -0.4430  0.8962 -3.5547
 9529TIP3   OH252781   1.146   4.197   8.434 -0.2992  0.0200  0.0026
 9529TIP3    H152782   1.132   4.214   8.341 -0.2740 -1.1390 -0.2160
 9529TIP3    H252783   1.060   4.212   8.474 -0.5600 -0.5068 -0.3571
 9530TIP3   OH252784   4.977   1.805   6.187  1.0369  0.5473 -0.4853
 9530TIP3    H152785   4.951   1.856   6.111  1.8751 -0.0378 -1.1843
 9530TIP3    H252786   4.901   1.750   6.206  1.1439  0.0358 -1.4859
 9531TIP3   OH252787   3.428   3.480   7.655 -0.2380 -0.0690  0.5779
 9531TIP3    H152788   3.502   3.480   7.594 -0.7363  2.0258 -0.1103
 9531TIP3    H252789   3.468   3.493   7.741  0.2147  1.7519  0.1400
 9532TIP3   OH252790   2.282   2.146   5.842  0.0429  0.3293  0.3912
 9532TIP3    H152791   2.328   2.186   5.916 -0.7741  0.0841  1.0529
 9532TIP3    H252792   2.331   2.066   5.824 -1.4745 -1.3065  2.7784
 9533TIP3   OH252793   2.495   6.141   8.467 -0.0141 -0.0796  0.0601
 9533TIP3    H152794   2.498   6.197   8.389 -1.0765 -0.8491 -0.5736
 9533TIP3    H252795   2.578   6.095   8.468  0.7174  1.2062  0.3741
 9534TIP3   OH252796   4.595   0.730   7.569 -0.3719  0.1161 -0.5731
 9534TIP3    H152797   4.521   0.677   7.596 -0.1756  0.1196 -0.0110
 9534TIP3    H252798   4.667   0.668   7.559 -0.2069  0.2390 -0.1647
 9535TIP3   OH252799   3.563   3.349   8.565  0.0498 -0.5203  0.1639
 9535TIP3    H152800   3.568   3.431   8.516  0.3461 -0.0816  0.9171
 9535TIP3    H252801   3.642   3.347   8.618 -1.0636 -0.1335  1.9350
 9536TIP3   OH252802   4.894   6.493   7.826 -0.4441 -0.7565 -0.5439
 9536TIP3    H152803   4.904   6.567   7.766 -0.8152 -0.3553 -0.1155
 9536TIP3    H252804   4.800   6.476   7.828 -0.2575 -2.1047 -1.6700
 9537TIP3   OH252805   6.067   0.264   8.267  0.1009  0.2002 -0.2824
 9537TIP3    H152806   6.121   0.210   8.324  2.2570  3.1717  0.7732
 9537TIP3    H252807   6.120   0.276   8.188 -0.6682  0.1742 -0.8142
 9538TIP3   OH252808   1.241   3.577   7.398 -0.2526  0.3129 -0.6569
 9538TIP3    H152809   1.320   3.538   7.360 -0.9580  0.1960 -2.0931
 9538TIP3    H252810   1.273   3.633   7.469  1.1307  0.3866 -1.3054
 9539TIP3   OH252811   4.333   5.134   5.531 -0.2368  0.5824  0.1951
 9539TIP3    H152812   4.321   5.176   5.616  2.6161 -0.9417  1.5125
 9539TIP3    H252813   4.425   5.149   5.509 -0.7637  0.5010 -2.4442
 9540TIP3   OH252814   5.192   4.458   6.928 -0.1210  0.1662  0.0648
 9540TIP3    H152815   5.272   4.481   6.882  0.7145 -2.8729 -0.2337
 9540TIP3    H252816   5.195   4.509   7.009  0.7002  2.1268 -1.1487
 9541TIP3   OH252817   3.339   1.017   6.460  0.0542  0.2389  0.0713
 9541TIP3    H152818   3.312   1.099   6.502  1.5244  0.8202 -0.0229
 9541TIP3    H252819   3.427   1.002   6.495 -0.5863 -1.8959  0.9149
 9542TIP3   OH252820   5.102   5.486   6.679 -0.1763 -0.2650 -0.3266
 9542TIP3    H152821   5.077   5.500   6.771 -0.5098 -0.0845 -0.4463
 9542TIP3    H252822   5.162   5.411   6.683 -1.7258 -1.5561 -0.1686
 9543TIP3   OH252823   6.574   5.432   6.343 -0.4249  0.2825  0.0582
 9543TIP3    H152824   6.582   5.498   6.275  1.4648  0.2873  0.2384
 9543TIP3    H252825   6.654   5.380   6.335 -0.8916 -0.6585  1.2896
 9544TIP3   OH252826   3.732   1.795   5.799 -0.0839  0.2498  0.5284
 9544TIP3    H152827   3.651   1.754   5.766  0.7507 -0.7109 -0.3894
 9544TIP3    H252828   3.731   1.777   5.893 -0.3869 -0.7592  0.3460
 9545TIP3   OH252829   0.810   4.520   7.048 -0.1294  0.3988  0.1445
 9545TIP3    H152830   0.804   4.602   7.000  0.1715  0.3128 -0.0446
 9545TIP3    H252831   0.722   4.482   7.043 -0.6707  1.3913  1.4730
 9546TIP3   OH252832   1.367   3.910   9.157  0.5180 -0.8753 -0.6166
 9546TIP3    H152833   1.288   3.924   9.208  1.1098 -0.7469  0.2911
 9546TIP3    H252834   1.389   3.996   9.122  0.9639 -0.6405  0.2080
 9547TIP3   OH252835   5.342   5.725   6.915  0.4762 -0.4461  0.1017
 9547TIP3    H152836   5.312   5.810   6.949  1.2316 -0.8289  1.8166
 9547TIP3    H252837   5.399   5.748   6.842 -1.9574  0.3798 -1.6594
 9548TIP3   OH252838   2.889   1.907   7.367 -0.6772  0.7219  0.5209
 9548TIP3    H152839   2.941   1.984   7.343 -1.3001  1.2101  0.6873
 9548TIP3    H252840   2.891   1.851   7.289  3.1549 -1.0790  1.7052
 9549TIP3   OH252841   0.881   5.445   6.829 -0.0873  0.0467 -0.2010
 9549TIP3    H152842   0.864   5.408   6.743  0.4200  0.0358 -0.3036
 9549TIP3    H252843   0.972   5.420   6.848  0.8578  2.5963 -0.9749
 9550TIP3   OH252844   6.751   3.092   7.044 -0.2710  0.7871 -0.3253
 9550TIP3    H152845   6.735   3.119   6.954 -0.2816 -0.7909 -0.8260
 9550TIP3    H252846   6.664   3.082   7.083 -0.2890  0.7095 -0.3853
 9551TIP3   OH252847   2.070   3.677   6.085  0.3774  0.4266  0.6115
 9551TIP3    H152848   2.024   3.618   6.025  0.9920 -0.7573  1.2619
 9551TIP3    H252849   2.097   3.750   6.031 -0.4664  0.1544 -0.2081
 9552TIP3   OH252850   5.888   2.111   7.517 -0.0526  0.4779 -0.3583
 9552TIP3    H152851   5.983   2.099   7.514 -0.0767  0.1222  0.1384
 9552TIP3    H252852   5.872   2.148   7.604 -0.2596  1.5874 -0.8643
 9553TIP3   OH252853   3.850   0.258   7.712 -0.0962  0.6183  0.2502
 9553TIP3    H152854   3.766   0.259   7.666  0.1061  0.4695 -0.1319
 9553TIP3    H252855   3.888   0.173   7.690  0.2640  0.7867  0.2154
 9554TIP3   OH252856   4.364   1.507   8.501 -0.2090 -0.0134  0.1946
 9554TIP3    H152857   4.373   1.575   8.568  0.0889  1.0410 -0.8614
 9554TIP3    H252858   4.270   1.492   8.493 -0.6316  2.7734 -1.8485
 9555TIP3   OH252859   6.039   5.556   5.619 -0.1174  0.0490 -0.1651
 9555TIP3    H152860   5.946   5.551   5.596 -0.9007  0.0877  2.6194
 9555TIP3    H252861   6.059   5.471   5.659  1.0687  0.0448 -0.7166
 9556TIP3   OH252862   0.606   5.602   6.879 -0.1920 -0.5035 -0.0043
 9556TIP3    H152863   0.648   5.686   6.860  0.7606 -0.1625  2.9962
 9556TIP3    H252864   0.528   5.600   6.823  0.9265  1.3432 -1.7385
 9557TIP3   OH252865   3.650   0.893   7.555 -0.0629 -0.0814 -0.2143
 9557TIP3    H152866   3.572   0.853   7.593 -0.7534 -0.7560 -2.2125
 9557TIP3    H252867   3.722   0.860   7.609 -0.8551 -2.1954 -0.3420
 9558TIP3   OH252868   3.358   4.327   6.994  0.6877 -0.0051 -0.1524
 9558TIP3    H152869   3.450   4.323   7.018  0.3229  0.0142  1.3872
 9558TIP3    H252870   3.311   4.321   7.078 -0.7297 -1.0336 -0.9679
 9559TIP3   OH252871   1.155   0.088   6.832  0.3859 -0.1872  0.5588
 9559TIP3    H152872   1.206   0.157   6.874  0.9229  0.8571 -1.6162
 9559TIP3    H252873   1.088   0.135   6.782  0.3600 -1.2511 -0.4561
 9560TIP3   OH252874   0.750   4.828   7.575 -0.4185 -0.3681  0.4291
 9560TIP3    H152875   0.784   4.795   7.492 -0.9121  0.2897 -0.0573
 9560TIP3    H252876   0.822   4.878   7.613 -0.7302  0.8254 -0.4824
 9561TIP3   OH252877   4.964   6.383   8.089  0.0988  0.1055  0.5434
 9561TIP3    H152878   4.915   6.382   8.006  0.2475  0.0056  0.4569
 9561TIP3    H252879   5.014   6.464   8.086 -0.2134  0.3064  0.7216
 9562TIP3   OH252880   3.687   5.308   5.758  0.5915  0.4461  0.2239
 9562TIP3    H152881   3.658   5.245   5.823 -0.3524 -0.1521 -0.7525
 9562TIP3    H252882   3.655   5.274   5.675  2.0781  1.0017 -0.6222
 9563TIP3   OH252883   5.516   0.191   7.211 -0.0596  0.3250 -0.0205
 9563TIP3    H152884   5.595   0.231   7.175 -0.0566 -0.7082 -1.2110
 9563TIP3    H252885   5.523   0.207   7.305  0.0767  2.8294 -0.3911
 9564TIP3   OH252886   2.169   6.157   6.844  0.1898 -0.0994  0.1125
 9564TIP3    H152887   2.128   6.079   6.881  1.9559 -1.0373  0.2190
 9564TIP3    H252888   2.256   6.160   6.886  0.6055  1.2487 -0.7855
 9565TIP3   OH252889   5.584   5.695   6.272 -0.2841 -0.1251  0.3783
 9565TIP3    H152890   5.555   5.604   6.268  0.5616 -0.4321  1.0183
 9565TIP3    H252891   5.537   5.738   6.200 -2.1550 -0.6457  1.2111
 9566TIP3   OH252892   5.991   0.990   9.034 -0.2776  0.2502 -0.0289
 9566TIP3    H152893   5.917   1.041   9.066 -0.4843 -0.1753  0.1755
 9566TIP3    H252894   6.063   1.013   9.092 -0.7596 -0.8587  1.0727
 9567TIP3   OH252895   4.252   5.340   6.890 -0.4194  0.1540  0.3435
 9567TIP3    H152896   4.332   5.297   6.920 -1.1760 -1.2700  0.4346
 9567TIP3    H252897   4.280   5.427   6.864  1.3048 -0.5676 -0.3818
 9568TIP3   OH252898   3.305   1.821   6.281  0.3304 -0.0241 -0.0379
 9568TIP3    H152899   3.256   1.881   6.225  0.5944  0.1766 -0.0581
 9568TIP3    H252900   3.291   1.735   6.243  0.5358  0.1149 -0.4313
 9569TIP3   OH252901   0.583   4.129   5.956 -0.1541 -0.1858  0.5756
 9569TIP3    H152902   0.645   4.057   5.943 -0.0461 -0.2219  1.2565
 9569TIP3    H252903   0.499   4.093   5.930 -0.1785 -0.7172  1.3544
 9570TIP3   OH252904   1.104   4.704   5.867 -0.2214  0.2342 -1.0659
 9570TIP3    H152905   1.082   4.718   5.959 -0.1994 -2.7061 -0.5428
 9570TIP3    H252906   1.020   4.704   5.822 -0.5125 -1.1454 -0.5698
 9571TIP3   OH252907   1.036   6.721   5.692 -0.2316 -0.1558 -0.1246
 9571TIP3    H152908   1.097   6.767   5.635 -0.4273 -2.6685 -2.5666
 9571TIP3    H252909   0.951   6.730   5.648 -0.4251 -1.9777 -0.1724
 9572TIP3   OH252910   2.812   4.934   8.799  0.0251  0.1675  0.1771
 9572TIP3    H152911   2.771   4.852   8.773  1.9024 -1.0794  0.8967
 9572TIP3    H252912   2.741   4.998   8.799 -1.0874 -0.9142 -2.6009
 9573TIP3   OH252913   0.972   2.366   9.195 -0.5344  0.4385  0.4508
 9573TIP3    H152914   1.051   2.406   9.232 -0.6296  0.5812  0.4984
 9573TIP3    H252915   0.990   2.272   9.198  0.6812  0.5179 -1.8250
 9574TIP3   OH252916   3.742   5.609   7.172  0.4110 -0.2217  0.2798
 9574TIP3    H152917   3.758   5.614   7.078 -1.6253 -1.6272 -0.2153
 9574TIP3    H252918   3.713   5.697   7.197 -0.0402 -0.1064 -0.6338
 9575TIP3   OH252919   2.000   5.284   8.331 -0.3100 -0.4432  0.2045
 9575TIP3    H152920   2.036   5.370   8.355 -0.2498 -0.3537 -0.1925
 9575TIP3    H252921   2.073   5.224   8.344  0.9737  0.1132 -3.2570
 9576TIP3   OH252922   4.517   5.529   7.414  0.7119 -0.5189  0.2252
 9576TIP3    H152923   4.533   5.443   7.453 -1.9730 -1.1521  0.1426
 9576TIP3    H252924   4.463   5.511   7.337  0.9655  1.1763 -0.4003
 9577TIP3   OH252925   0.146   4.837   7.602 -0.6147 -0.0337  0.0342
 9577TIP3    H152926   0.213   4.866   7.541 -0.7966  1.8528  0.6831
 9577TIP3    H252927   0.086   4.911   7.610 -2.0693 -1.2048  0.4681
 9578TIP3   OH252928   6.708   5.874   7.050  0.1201  0.5260 -0.5759
 9578TIP3    H152929   6.649   5.945   7.075 -0.0509 -0.5081  2.4693
 9578TIP3    H252930   6.651   5.810   7.007 -0.4971  0.6549  0.0229
 9579TIP3   OH252931   1.835   0.512   5.848 -0.7937 -0.0044 -0.1413
 9579TIP3    H152932   1.910   0.522   5.789 -0.9299  3.7985  0.0695
 9579TIP3    H252933   1.874   0.481   5.930  0.3307  0.2808 -0.5414
 9580TIP3   OH252934   1.371   0.141   5.642 -0.2092  0.0242  0.2511
 9580TIP3    H152935   1.335   0.119   5.728  0.0220 -1.6323 -0.0398
 9580TIP3    H252936   1.442   0.078   5.629 -1.6080 -1.2234 -2.0489
 9581TIP3   OH252937   4.248   4.880   5.908 -0.0511 -0.0601  0.4648
 9581TIP3    H152938   4.196   4.945   5.955  0.3606  0.5757  0.0468
 9581TIP3    H252939   4.334   4.921   5.897  0.4151 -0.9182  0.7503
 9582TIP3   OH252940   1.722   2.298   6.946 -0.2067 -0.4532  0.4208
 9582TIP3    H152941   1.812   2.318   6.973  0.2880 -0.2702 -1.2477
 9582TIP3    H252942   1.732   2.251   6.864 -1.5857 -2.6415  1.4337
 9583TIP3   OH252943   4.747   2.385   6.550  0.6125 -0.3061 -0.1139
 9583TIP3    H152944   4.778   2.340   6.471 -1.4759 -0.5917 -0.8300
 9583TIP3    H252945   4.710   2.316   6.604  1.9000 -0.0854  1.0960
 9584TIP3   OH252946   6.106   1.908   6.594  0.0827  0.2566 -0.5305
 9584TIP3    H152947   6.186   1.858   6.579  0.6216  0.3938  1.5777
 9584TIP3    H252948   6.127   1.965   6.668 -2.2434 -0.4201  0.7630
 9585TIP3   OH252949   5.443   5.389   8.566  0.1209 -0.0270  0.4078
 9585TIP3    H152950   5.393   5.443   8.627  0.2247 -0.0341  0.5004
 9585TIP3    H252951   5.517   5.358   8.618 -0.7865 -1.5829  0.8484
 9586TIP3   OH252952   0.590   1.939   6.369  0.1577  0.3821 -0.5507
 9586TIP3    H152953   0.619   1.898   6.451  1.9435 -1.8312 -2.1528
 9586TIP3    H252954   0.650   2.012   6.355  0.6175  0.0301 -0.4483
 9587TIP3   OH252955   1.580   2.818   8.272 -0.3038 -0.2208  0.4428
 9587TIP3    H152956   1.583   2.816   8.368 -0.2237  0.5868  0.4674
 9587TIP3    H252957   1.603   2.908   8.250 -0.7073 -0.2995 -0.3247
 9588TIP3   OH252958   4.387   0.502   8.968  0.3382 -0.7114 -0.0937
 9588TIP3    H152959   4.351   0.589   8.948  0.0543 -0.7099  0.4011
 9588TIP3    H252960   4.472   0.520   9.007 -0.1245 -0.6084  0.8845
 9589TIP3   OH252961   1.822   3.007   9.104  0.1263 -0.4642 -0.0006
 9589TIP3    H152962   1.821   3.072   9.175 -0.9647  0.3086 -0.6909
 9589TIP3    H252963   1.747   2.951   9.122 -0.6752  0.2509 -0.9657
 9590TIP3   OH252964   3.893   5.253   5.282  0.1797 -0.9106 -0.1983
 9590TIP3    H152965   3.949   5.207   5.345  1.0193 -1.4344 -1.3004
 9590TIP3    H252966   3.908   5.209   5.199 -1.8863 -1.0610 -0.5584
 9591TIP3   OH252967   1.552   3.139   8.898  0.1557  0.0438  0.0247
 9591TIP3    H152968   1.510   3.128   8.813 -0.4084 -0.0796  0.3152
 9591TIP3    H252969   1.578   3.050   8.924 -0.5141 -0.0424  0.4055
 9592TIP3   OH252970   5.757   1.526   6.408 -0.2696 -0.2369  0.0449
 9592TIP3    H152971   5.678   1.515   6.355 -0.4005  0.3399  0.1160
 9592TIP3    H252972   5.777   1.438   6.439  0.1689 -0.6808 -1.4494
 9593TIP3   OH252973   3.182   0.097   6.009  0.6771  0.5515 -0.4070
 9593TIP3    H152974   3.269   0.059   6.025 -0.2377 -1.4593  0.0981
 9593TIP3    H252975   3.197   0.192   6.010  2.6130  0.3106  1.2066
 9594TIP3   OH252976   5.255   5.204   9.043  0.1047  0.3301  0.1173
 9594TIP3    H152977   5.299   5.289   9.034 -1.5984  1.2012 -0.4547
 9594TIP3    H252978   5.163   5.226   9.059 -0.4125 -1.4172 -0.2199
 9595TIP3   OH252979   5.223   0.341   8.885  0.8668 -0.3757  0.1565
 9595TIP3    H152980   5.219   0.247   8.902  0.2619 -0.5148 -0.6865
 9595TIP3    H252981   5.269   0.377   8.960 -0.0076 -1.1874  1.1089
 9596TIP3   OH252982   3.025   3.850   6.267  0.7827  0.1033 -0.4578
 9596TIP3    H152983   2.936   3.835   6.234  0.2551  0.7878  0.5976
 9596TIP3    H252984   3.033   3.792   6.343  1.0923  0.3156 -0.3232
 9597TIP3   OH252985   0.135   1.983   6.388  0.2082  0.6041  0.0123
 9597TIP3    H152986   0.190   1.910   6.360 -1.5363 -0.8155  0.0721
 9597TIP3    H252987   0.157   1.996   6.480 -0.5323 -0.9267  0.4346
 9598TIP3   OH252988   4.978   5.959   7.902 -0.0985 -0.0827  0.0547
 9598TIP3    H152989   4.900   6.011   7.879  0.1489  0.3637  0.2019
 9598TIP3    H252990   4.950   5.868   7.892 -1.2690  0.0055  2.0313
 9599TIP3   OH252991   5.055   5.341   8.163 -0.0776 -0.0859  0.0122
 9599TIP3    H152992   5.139   5.299   8.146 -0.6352 -0.0479 -3.6854
 9599TIP3    H252993   5.065   5.430   8.131 -1.4874 -0.1174 -0.6262
 9600TIP3   OH252994   6.455   0.185   5.662  0.3423  0.3556 -0.0648
 9600TIP3    H152995   6.440   0.133   5.741  0.4342  0.3251 -0.0675
 9600TIP3    H252996   6.373   0.180   5.614  0.8710 -1.1285 -0.8595
 9601TIP3   OH252997   6.734   4.358   8.286  0.3740  0.5721  0.0797
 9601TIP3    H152998   6.727   4.282   8.345 -0.1160 -0.4987 -1.2889
 9601TIP3    H252999   6.647   4.367   8.249  1.2750 -0.7294 -2.7135
 9602TIP3   OH253000   6.443   5.150   8.229  0.1674  0.3239  0.6916
 9602TIP3    H153001   6.468   5.203   8.152  0.2718  0.8311  1.0674
 9602TIP3    H253002   6.514   5.086   8.238 -0.8121 -1.0673 -0.8263
 9603TIP3   OH253003   1.502   1.439   7.901  0.4819  0.1439  0.1682
 9603TIP3    H153004   1.507   1.514   7.960 -0.7562  0.9184 -0.6598
 9603TIP3    H253005   1.473   1.367   7.958  2.0557  0.1631  1.0435
 9604TIP3   OH253006   4.908   5.313   6.102 -0.6281 -0.6758  0.0997
 9604TIP3    H153007   4.943   5.397   6.130  0.3837 -1.1430  0.2916
 9604TIP3    H253008   4.939   5.251   6.167  0.2305 -1.4957 -1.0426
 9605TIP3   OH253009   6.019   2.582   7.909 -0.0481 -0.0551  0.2095
 9605TIP3    H153010   6.044   2.644   7.841 -0.9436  1.9945  1.6546
 9605TIP3    H253011   5.930   2.607   7.933 -0.2121 -1.5159  1.3040
 9606TIP3   OH253012   4.151   4.380   8.814 -0.2209  0.0595 -0.0622
 9606TIP3    H153013   4.191   4.351   8.897  0.3313  0.7268 -0.0805
 9606TIP3    H253014   4.059   4.395   8.836 -0.3568 -0.9435  0.1278
 9607TIP3   OH253015   0.009   4.683   7.115 -0.1814 -0.5979 -1.0266
 9607TIP3    H153016  -0.057   4.746   7.087 -3.4403 -3.3361 -0.1184
 9607TIP3    H253017   0.058   4.729   7.183 -1.8141  1.2286 -0.9818
 9608TIP3   OH253018   1.577   3.245   7.858 -0.0656  0.4595  0.3191
 9608TIP3    H153019   1.664   3.247   7.819 -0.5988  1.3028 -0.8754
 9608TIP3    H253020   1.563   3.335   7.890 -1.8203  1.3319 -2.6001
 9609TIP3   OH253021   1.481   5.491   5.807 -0.4199 -1.1138  0.2377
 9609TIP3    H153022   1.522   5.570   5.772  0.4054 -2.2135 -1.4220
 9609TIP3    H253023   1.511   5.487   5.898  0.5414 -0.1747 -0.0092
 9610TIP3   OH253024   2.058   1.004   6.544 -0.4311 -0.3050  0.2356
 9610TIP3    H153025   2.081   1.048   6.626 -1.2613 -0.7916  0.7443
 9610TIP3    H253026   2.093   1.062   6.476 -0.2668  0.4222  0.9134
 9611TIP3   OH253027   0.354   5.028   8.512 -0.4302 -0.3959  0.2360
 9611TIP3    H153028   0.320   4.991   8.593 -1.6059 -2.0724 -0.9536
 9611TIP3    H253029   0.277   5.057   8.464  0.1956  0.0099 -0.5515
 9612TIP3   OH253030   4.223   6.007   8.887  0.8647 -0.4301  0.1525
 9612TIP3    H153031   4.140   6.050   8.864  0.5880 -1.3611 -0.6348
 9612TIP3    H253032   4.215   5.988   8.980 -0.1397 -1.2003 -0.0743
 9613TIP3   OH253033   2.407   4.414   7.129  0.5368 -0.1358  0.2539
 9613TIP3    H153034   2.360   4.373   7.202  0.1376 -1.3933 -0.6843
 9613TIP3    H253035   2.464   4.479   7.171 -0.1475 -0.3818  1.6259
 9614TIP3   OH253036   4.460   0.389   5.396  0.0404 -0.0395 -0.4927
 9614TIP3    H153037   4.451   0.415   5.304 -0.6089  1.1402 -0.1165
 9614TIP3    H253038   4.513   0.458   5.436 -1.3290  0.5107  0.4334
 9615TIP3   OH253039   5.571   3.043   6.801 -0.6962  0.6573  0.8039
 9615TIP3    H153040   5.658   3.048   6.841 -0.2607 -1.3009  0.2143
 9615TIP3    H253041   5.583   3.077   6.713  0.2593 -2.3415 -0.3332
 9616TIP3   OH253042   3.110   2.808   6.187  0.1896  0.1095  0.1775
 9616TIP3    H153043   3.164   2.844   6.256  1.6349  1.0349 -1.3677
 9616TIP3    H253044   3.170   2.757   6.133 -0.0415  2.3374 -2.4070
 9617TIP3   OH253045   6.588   4.474   7.026  0.0012 -0.0638  0.1585
 9617TIP3    H153046   6.507   4.515   6.993  0.3934 -0.6827 -1.6873
 9617TIP3    H253047   6.643   4.548   7.053 -0.1541  0.5383 -1.0857
 9618TIP3   OH253048   1.269   5.970   6.071  0.2768  0.2872 -0.0996
 9618TIP3    H153049   1.251   5.881   6.040  0.5107 -0.0842  0.7860
 9618TIP3    H253050   1.263   5.964   6.166  1.2892  1.0011  0.0276
 9619TIP3   OH253051   0.284   6.008   7.938  0.3391 -0.3757  0.3416
 9619TIP3    H153052   0.333   5.978   7.861  1.3398 -0.0138  0.8227
 9619TIP3    H253053   0.342   5.990   8.012 -1.2366 -2.1576  1.2152
 9620TIP3   OH253054   5.371   1.630   6.392 -1.0269 -0.5362  0.4514
 9620TIP3    H153055   5.430   1.695   6.431 -0.0518 -0.8905 -0.3928
 9620TIP3    H253056   5.378   1.644   6.298 -2.4413 -0.4850  0.3281
 9621TIP3   OH253057   2.668   2.137   9.113  0.9231 -0.5477 -0.2700
 9621TIP3    H153058   2.663   2.232   9.107  1.1861 -0.4133  1.1827
 9621TIP3    H253059   2.643   2.117   9.203  1.4593 -1.8069 -0.3738
 9622TIP3   OH253060   3.572   5.187   7.731 -0.6669 -0.0962 -0.0308
 9622TIP3    H153061   3.515   5.159   7.659  0.0975 -0.0235 -0.6841
 9622TIP3    H253062   3.631   5.113   7.744 -0.2852  0.2061 -0.0276
 9623TIP3   OH253063   5.678   5.030   7.855  0.3533  0.4861  0.3937
 9623TIP3    H153064   5.689   5.112   7.808  0.3279 -0.1589 -0.7726
 9623TIP3    H253065   5.674   5.055   7.947  2.1963  1.6199  0.2023
 9624TIP3   OH253066   1.958   3.602   6.688 -0.4260 -0.2313  0.5051
 9624TIP3    H153067   1.973   3.512   6.718 -0.8722 -0.9490 -1.3017
 9624TIP3    H253068   2.046   3.639   6.679 -0.1614 -1.0125 -0.2215
 9625TIP3   OH253069   1.154   0.791   6.965  0.7338 -0.2369 -0.3808
 9625TIP3    H153070   1.195   0.787   6.879  1.7896  0.2569  0.0856
 9625TIP3    H253071   1.110   0.875   6.967  1.9311  0.4019  0.0780
 9626TIP3   OH253072   5.930   2.320   5.603 -0.1518  0.1248 -0.0639
 9626TIP3    H153073   5.838   2.333   5.627 -0.0302 -1.9700  1.9185
 9626TIP3    H253074   5.970   2.283   5.682  1.6977 -1.9157 -1.8316
 9627TIP3   OH253075   2.113   4.746   8.986 -0.2981 -0.2121 -0.0454
 9627TIP3    H153076   2.180   4.794   9.033 -0.9918 -1.2858  2.1645
 9627TIP3    H253077   2.030   4.782   9.017 -0.8260 -2.4680  1.4317
 9628TIP3   OH253078   0.326   6.082   9.061  0.2445  0.2538 -0.4105
 9628TIP3    H153079   0.419   6.063   9.046  0.1499 -0.5977  0.0048
 9628TIP3    H253080   0.313   6.062   9.154 -0.4740 -0.1500 -0.5927
 9629TIP3   OH253081   5.538   5.145   7.062 -0.2031 -0.3004  0.1729
 9629TIP3    H153082   5.569   5.095   7.138  2.3135 -1.4683 -1.4645
 9629TIP3    H253083   5.593   5.223   7.061  0.4612 -0.7551 -0.9102
 9630TIP3   OH253084   4.796   5.584   7.330 -0.0612  0.5707  0.3532
 9630TIP3    H153085   4.879   5.597   7.284  0.9108 -2.0604  1.1767
 9630TIP3    H253086   4.747   5.664   7.315  1.8294  1.4076 -1.8348
 9631TIP3   OH253087   6.402   3.240   8.332 -0.1750  0.6397  0.5183
 9631TIP3    H153088   6.494   3.237   8.306  0.0365  1.4794  1.1162
 9631TIP3    H253089   6.386   3.332   8.353 -1.3743  0.6552 -0.3400
 9632TIP3   OH253090   1.824   3.769   7.071  0.1933  0.0902 -0.0996
 9632TIP3    H153091   1.827   3.787   7.165  2.2458 -2.5291  0.4549
 9632TIP3    H253092   1.863   3.847   7.031 -3.6080  2.6939  0.7842
 9633TIP3   OH253093   3.111   3.967   8.525  0.3548  0.0403  0.3513
 9633TIP3    H153094   3.065   3.889   8.555 -0.4947  0.0749 -0.8018
 9633TIP3    H253095   3.104   4.029   8.598 -2.1561  0.3323 -0.0549
 9634TIP3   OH253096   6.414   5.039   6.451  0.1408  0.0633 -0.5734
 9634TIP3    H153097   6.490   4.981   6.445  0.3172  0.3372 -1.0799
 9634TIP3    H253098   6.449   5.126   6.434 -0.0056  0.4245  0.8061
 9635TIP3   OH253099   3.462   1.711   6.483 -0.3628 -0.1341 -0.0674
 9635TIP3    H153100   3.418   1.634   6.519  0.8606 -0.4386  0.8256
 9635TIP3    H253101   3.405   1.739   6.411 -0.8820 -1.8198 -0.3627
 9636TIP3   OH253102   0.675   2.081   7.767 -0.1822  0.2454  0.1760
 9636TIP3    H153103   0.646   2.113   7.852 -2.4465  1.7687 -1.0691
 9636TIP3    H253104   0.644   1.991   7.763 -0.5838  0.3535  0.7361
 9637TIP3   OH253105   1.980   4.104   5.365  0.2181 -0.3630  0.0401
 9637TIP3    H153106   1.989   4.135   5.456 -0.5073  0.1672 -0.0604
 9637TIP3    H253107   2.059   4.053   5.350  1.5334  1.5309  0.1783
 9638TIP3   OH253108   3.953   1.977   5.494 -0.3501  0.9611 -0.5077
 9638TIP3    H153109   3.992   2.063   5.510 -1.2044  1.3400 -0.3990
 9638TIP3    H253110   3.988   1.950   5.410  1.9636  0.2334  0.6032
 9639TIP3   OH253111   4.533   4.967   6.688 -0.6266  0.1900  0.2467
 9639TIP3    H153112   4.460   4.951   6.628 -0.5622  3.0078 -0.7091
 9639TIP3    H253113   4.604   4.999   6.632  0.6678 -0.4694  1.4305
 9640TIP3   OH253114   1.840   1.403   8.420 -0.8282 -0.2896  0.1540
 9640TIP3    H153115   1.853   1.359   8.336  0.8484 -1.7136  1.0773
 9640TIP3    H253116   1.769   1.354   8.462 -1.0110 -0.2000 -0.0528
 9641TIP3   OH253117   0.863   0.904   8.193  0.0379  0.0550  0.3669
 9641TIP3    H153118   0.902   0.953   8.265 -2.2723 -0.4339  2.0468
 9641TIP3    H253119   0.784   0.953   8.171 -0.6137 -1.1591 -0.1073
 9642TIP3   OH253120   1.384   0.715   8.463  0.1999 -0.8683  0.4191
 9642TIP3    H153121   1.437   0.638   8.443  3.8652  1.2057  1.0705
 9642TIP3    H253122   1.357   0.703   8.554 -0.6890 -2.0531  0.0241
 9643TIP3   OH253123   2.429   1.933   6.258  0.4477 -0.2019  0.1858
 9643TIP3    H153124   2.363   1.909   6.192 -0.2013 -0.4369  0.8974
 9643TIP3    H253125   2.381   1.985   6.322  1.0644  0.0075  0.4849
 9644TIP3   OH253126   0.122   6.678   7.169  1.2167 -0.0671 -0.1873
 9644TIP3    H153127   0.167   6.688   7.085  0.1386  0.6503 -0.6969
 9644TIP3    H253128   0.113   6.768   7.202 -1.1295 -0.0151 -0.8057
 9645TIP3   OH253129   2.516   6.595   7.455 -0.6414  0.1150  0.2857
 9645TIP3    H153130   2.466   6.554   7.525 -2.3757  1.5346 -0.0704
 9645TIP3    H253131   2.480   6.557   7.375  0.4110 -0.5001  0.0846
 9646TIP3   OH253132   0.441   6.438   7.521 -0.0326  0.3700  0.0137
 9646TIP3    H153133   0.408   6.482   7.443 -1.6069 -1.4721 -0.4380
 9646TIP3    H253134   0.426   6.500   7.592 -1.6370  0.8146 -0.6695
 9647TIP3   OH253135   5.719   5.231   8.039  0.2785 -0.0449  0.0024
 9647TIP3    H153136   5.629   5.264   8.034 -0.1086 -1.2327 -1.8501
 9647TIP3    H253137   5.772   5.299   7.997  0.5166  1.3036  2.3155
 9648TIP3   OH253138   6.281   5.543   8.801 -0.1313 -0.7654  0.1923
 9648TIP3    H153139   6.266   5.579   8.889 -0.8439 -1.1465  0.2380
 9648TIP3    H253140   6.193   5.540   8.762  0.1302 -0.9721 -0.3896
 9649TIP3   OH253141   3.694   6.533   8.707  0.2175  0.0664 -0.3051
 9649TIP3    H153142   3.746   6.611   8.692  0.8682 -0.6602 -2.1195
 9649TIP3    H253143   3.758   6.467   8.734 -0.1102 -0.2222 -0.2312
 9650TIP3   OH253144   6.382   2.797   5.709 -0.4788 -0.8573  0.1435
 9650TIP3    H153145   6.450   2.844   5.757 -0.3028 -0.3363 -0.5896
 9650TIP3    H253146   6.302   2.811   5.759 -1.0824  2.8061 -1.5358
 9651TIP3   OH253147   3.463   5.554   7.947 -0.0457  0.3418 -0.1831
 9651TIP3    H153148   3.408   5.576   8.022  0.0028 -0.8244  0.2056
 9651TIP3    H253149   3.480   5.638   7.905 -0.8637  0.8982  0.5604
 9652TIP3   OH253150   6.407   2.291   8.506 -0.1904  0.5161  0.4546
 9652TIP3    H153151   6.356   2.306   8.427 -1.9751 -2.6147  0.8589
 9652TIP3    H253152   6.478   2.233   8.477  0.9189  1.7028  0.6741
 9653TIP3   OH253153   5.149   3.154   7.115 -0.0355  0.3293  0.0178
 9653TIP3    H153154   5.218   3.150   7.050 -2.0645  1.5321 -2.4211
 9653TIP3    H253155   5.081   3.096   7.082 -1.3964  1.4760  0.6660
 9654TIP3   OH253156   4.996   4.548   8.122 -0.5755  0.5814  0.0396
 9654TIP3    H153157   5.078   4.505   8.147 -1.5386 -1.1846  0.3237
 9654TIP3    H253158   4.969   4.596   8.200 -1.0359 -0.8492  0.7978
 9655TIP3   OH253159   0.810   5.845   6.458  0.3929 -0.6155  0.2770
 9655TIP3    H153160   0.715   5.855   6.462  0.4973  0.1139  1.1705
 9655TIP3    H253161   0.829   5.770   6.514  0.2367 -1.6537 -1.0086
 9656TIP3   OH253162   0.781   5.073   7.894  0.3451  0.7149 -0.0952
 9656TIP3    H153163   0.692   5.054   7.866 -0.1939 -0.1557  1.9968
 9656TIP3    H253164   0.824   5.107   7.816 -1.9194  1.5859 -1.0516
 9657TIP3   OH253165   5.081   1.944   7.815  0.2164  0.1416  0.5183
 9657TIP3    H153166   5.124   1.860   7.803 -0.9397 -0.3444 -0.5590
 9657TIP3    H253167   5.046   1.941   7.904  1.1121 -0.0555  0.8691
 9658TIP3   OH253168   5.988   2.263   6.260 -0.5557  0.2204 -0.9451
 9658TIP3    H153169   5.975   2.228   6.348 -0.8997 -0.4753 -1.2689
 9658TIP3    H253170   6.067   2.220   6.228  0.0991  1.1593 -0.6430
 9659TIP3   OH253171   0.820   0.288   8.794 -0.2005 -0.3023 -0.0245
 9659TIP3    H153172   0.874   0.316   8.720 -0.9329  0.7300 -0.1788
 9659TIP3    H253173   0.883   0.274   8.865  0.3554  0.0599 -0.4356
 9660TIP3   OH253174   0.643   4.760   9.019 -0.2522 -0.7718 -0.5982
 9660TIP3    H153175   0.547   4.763   9.015 -0.3828 -2.8309 -0.1983
 9660TIP3    H253176   0.665   4.672   8.988  1.4066 -0.8786  0.7546
 9661TIP3   OH253177   3.966   3.777   7.586 -0.3954 -0.5039 -0.4687
 9661TIP3    H153178   4.013   3.718   7.644  0.3562 -1.4519 -1.9712
 9661TIP3    H253179   3.900   3.818   7.641  0.5790 -1.0134  1.1301
 9662TIP3   OH253180   3.314   2.888   7.005 -0.3055 -0.0775 -0.2442
 9662TIP3    H153181   3.390   2.868   7.059  0.4408  1.6714 -0.5735
 9662TIP3    H253182   3.347   2.946   6.936 -1.9643  1.0553 -0.1743
 9663TIP3   OH253183   0.841   1.740   6.146 -0.1778  1.0110  0.6469
 9663TIP3    H153184   0.830   1.724   6.240 -0.0986  0.4527  0.5634
 9663TIP3    H253185   0.752   1.746   6.112 -0.2169  0.1136  0.5763
 9664TIP3   OH253186   5.323   5.791   7.733 -0.1409 -0.5703  0.0595
 9664TIP3    H153187   5.368   5.782   7.649 -0.5088 -1.8269 -0.0293
 9664TIP3    H253188   5.279   5.876   7.728  0.3605 -0.3468 -0.7572
 9665TIP3   OH253189   3.576   4.552   6.703  0.1946  0.1454  0.2655
 9665TIP3    H153190   3.628   4.500   6.641  1.3816  0.0877  1.2906
 9665TIP3    H253191   3.636   4.618   6.736 -1.2123  2.0407 -0.7846
 9666TIP3   OH253192   0.787   1.975   8.366 -0.0139 -0.1360 -0.4625
 9666TIP3    H153193   0.860   1.946   8.311  1.0919 -0.9346  1.3349
 9666TIP3    H253194   0.779   1.908   8.434 -1.5965  0.5921  0.1287
 9667TIP3   OH253195   2.486   1.782   7.684 -0.2538  0.2865  0.7633
 9667TIP3    H153196   2.549   1.711   7.690 -0.0983  0.4091  0.5945
 9667TIP3    H253197   2.467   1.790   7.590 -0.5781  0.1999  0.8187
 9668TIP3   OH253198   5.245   0.957   6.256 -0.2245 -0.9555 -0.2951
 9668TIP3    H153199   5.295   0.984   6.332 -1.1566 -1.7002  0.6128
 9668TIP3    H253200   5.308   0.913   6.200  0.1995 -1.6501  0.7042
 9669TIP3   OH253201   0.375   5.182   8.846 -0.0675 -0.4156  0.2753
 9669TIP3    H153202   0.311   5.111   8.843 -2.3437  1.5318 -2.2975
 9669TIP3    H253203   0.403   5.186   8.937 -3.0421 -1.8896  1.3589
 9670TIP3   OH253204   3.135   1.116   7.152  0.0132 -0.5360  0.4234
 9670TIP3    H153205   3.225   1.144   7.136 -0.2946  1.2041  1.4489
 9670TIP3    H253206   3.083   1.166   7.089 -0.3643 -0.2410  0.9576
 9671TIP3   OH253207   2.553   0.542   8.218 -0.7245 -0.1953  0.1312
 9671TIP3    H153208   2.589   0.578   8.299  0.3610 -0.1416 -0.3579
 9671TIP3    H253209   2.510   0.617   8.176  0.3986  0.2531 -0.2555
 9672TIP3   OH253210   4.010   1.578   7.064  0.1244  0.0978 -0.1919
 9672TIP3    H153211   4.063   1.567   6.985 -1.4283 -0.8399 -1.1650
 9672TIP3    H253212   4.059   1.640   7.118  1.1848  0.8673 -1.9524
 9673TIP3   OH253213   6.279   0.252   6.622  0.4387 -0.2166 -0.5167
 9673TIP3    H153214   6.371   0.273   6.639  0.2243 -0.9758  1.9983
 9673TIP3    H253215   6.282   0.195   6.544  1.9302  0.8442 -1.2931
 9674TIP3   OH253216   4.434   6.700   7.986  0.0343 -0.0106  0.1279
 9674TIP3    H153217   4.348   6.738   7.973  0.1876  1.0748  1.9499
 9674TIP3    H253218   4.437   6.677   8.079  1.2863 -1.1366 -0.1528
 9675TIP3   OH253219   3.346   0.479   8.881 -0.1732  0.1458  0.8479
 9675TIP3    H153220   3.371   0.499   8.791 -0.1926  1.0878  1.0379
 9675TIP3    H253221   3.422   0.505   8.933 -0.6899  0.9176  1.2260
 9676TIP3   OH253222   4.788   5.490   7.573  0.4618 -0.6001  0.2203
 9676TIP3    H153223   4.753   5.511   7.487  2.1728  0.5722 -0.2485
 9676TIP3    H253224   4.882   5.510   7.566  0.7666 -1.1707  2.1336
 9677TIP3   OH253225   4.839   4.293   6.601  0.6879  0.0742 -0.6168
 9677TIP3    H153226   4.893   4.362   6.639 -1.0999  0.8511  0.6906
 9677TIP3    H253227   4.819   4.236   6.675 -0.3620 -0.1163 -1.0302
 9678TIP3   OH253228   2.434   3.167   8.136  0.2012 -0.3184 -0.2379
 9678TIP3    H153229   2.486   3.176   8.216 -1.7084 -0.0464  1.0550
 9678TIP3    H253230   2.424   3.073   8.124 -2.7472 -0.4878  2.2251
 9679TIP3   OH253231   4.409   4.563   5.669 -0.3320 -0.0005 -0.6005
 9679TIP3    H153232   4.481   4.530   5.723 -0.2081  0.2004 -0.6404
 9679TIP3    H253233   4.433   4.654   5.651  0.1207 -0.3395 -1.8086
 9680TIP3   OH253234   5.745   0.418   6.258  0.1370 -0.3001  0.7566
 9680TIP3    H153235   5.664   0.392   6.301 -1.0298  1.1678 -0.4498
 9680TIP3    H253236   5.747   0.513   6.264 -0.1685  0.0424 -2.4230
 9681TIP3   OH253237   0.291   3.647   8.547  0.7158 -0.4429 -0.0255
 9681TIP3    H153238   0.220   3.683   8.493  0.5251  2.1966  1.8306
 9681TIP3    H253239   0.256   3.563   8.578 -0.4245 -0.5251 -1.3832
 9682TIP3   OH253240   3.283   6.453   9.151 -0.2241 -0.1485 -0.0385
 9682TIP3    H153241   3.331   6.510   9.212  0.8073 -0.8978 -0.1427
 9682TIP3    H253242   3.191   6.467   9.175  0.0277  1.1600  0.2886
 9683TIP3   OH253243   1.918   6.657   8.641  0.6924 -0.2627 -0.1065
 9683TIP3    H153244   1.840   6.613   8.675  0.4604  0.0824 -0.1868
 9683TIP3    H253245   1.984   6.645   8.710 -0.6018  2.9499  1.9318
 9684TIP3   OH253246   5.494   5.620   7.109  0.2506  0.0574 -0.3684
 9684TIP3    H153247   5.547   5.576   7.043 -1.0712  0.4162 -1.7055
 9684TIP3    H253248   5.422   5.659   7.060 -1.6860 -1.0486  1.4623
 9685TIP3   OH253249   6.338   0.963   8.990  0.2691  0.0970  0.4704
 9685TIP3    H153250   6.364   0.980   8.899  0.8212  0.5639  0.7124
 9685TIP3    H253251   6.354   1.046   9.036 -1.3653  0.3085  0.7027
 9686TIP3   OH253252   0.155   6.376   7.500  0.4835 -0.6640 -0.3531
 9686TIP3    H153253   0.237   6.421   7.482  0.8837 -0.9120  0.7742
 9686TIP3    H253254   0.145   6.380   7.595 -0.4567 -1.2409 -0.4092
 9687TIP3   OH253255   1.820   1.660   6.877 -0.0563  0.4380 -0.4533
 9687TIP3    H153256   1.857   1.713   6.806  0.8073  1.0560  0.4363
 9687TIP3    H253257   1.836   1.711   6.956 -0.5229 -0.4871  0.2610
 9688TIP3   OH253258   2.124   0.406   7.761 -0.2263  0.0629  0.2292
 9688TIP3    H153259   2.087   0.329   7.717 -1.7912  0.4274  0.8466
 9688TIP3    H253260   2.053   0.470   7.762 -0.2008  0.1648  3.0540
 9689TIP3   OH253261   1.073   3.559   8.202 -0.7535 -0.2803 -0.2864
 9689TIP3    H153262   1.004   3.526   8.145 -0.1982 -0.7361 -0.7107
 9689TIP3    H253263   1.154   3.544   8.153 -0.4379  1.2055 -0.2473
 9690TIP3   OH253264   3.483   1.682   6.772 -0.0924  0.0779 -0.1616
 9690TIP3    H153265   3.531   1.750   6.723  0.8395 -0.1160  0.4614
 9690TIP3    H253266   3.547   1.612   6.784 -0.5410 -0.1933  0.6747
 9691TIP3   OH253267   4.665   4.965   7.539 -0.0215  0.1838  0.2298
 9691TIP3    H153268   4.615   4.906   7.595  0.7755 -1.5768 -0.8322
 9691TIP3    H253269   4.717   5.018   7.600 -1.2058  0.2491  1.2249
 9692TIP3   OH253270   5.113   4.675   6.339  0.3082 -0.6188 -0.2563
 9692TIP3    H153271   5.105   4.613   6.411  1.9920 -0.3891  0.1752
 9692TIP3    H253272   5.181   4.637   6.283  1.9511  1.1512  0.4198
 9693TIP3   OH253273   0.258   6.577   5.833  0.1673 -0.2132 -0.6415
 9693TIP3    H153274   0.308   6.529   5.767  2.9617 -0.6678  1.5990
 9693TIP3    H253275   0.270   6.669   5.811 -1.2469 -0.3684 -2.2491
 9694TIP3   OH253276   2.228   5.584   6.234 -0.3127 -0.0278 -0.5329
 9694TIP3    H153277   2.151   5.629   6.197 -1.2418 -1.5492 -0.5097
 9694TIP3    H253278   2.201   5.493   6.241  1.7056 -0.7005 -1.0460
 9695TIP3   OH253279   3.845   5.662   6.333 -0.0117 -0.7613  0.5003
 9695TIP3    H153280   3.769   5.634   6.283  0.0139  1.2710 -0.8194
 9695TIP3    H253281   3.919   5.618   6.291  0.1355  1.6929 -2.1078
 9696TIP3   OH253282   4.433   3.563   7.994 -0.1275 -0.1088  0.2374
 9696TIP3    H153283   4.495   3.490   7.988 -1.5471 -1.5426  1.7591
 9696TIP3    H253284   4.375   3.550   7.919  0.1400 -0.0261  0.0143
 9697TIP3   OH253285   0.434   5.816   8.802 -0.2380 -0.2403  0.9616
 9697TIP3    H153286   0.472   5.819   8.714 -1.3235 -0.2573  0.4844
 9697TIP3    H253287   0.452   5.903   8.838 -1.0422  0.2617  0.1805
 9698TIP3   OH253288   2.318   4.213   5.944 -0.2846 -0.5481 -0.1488
 9698TIP3    H153289   2.287   4.303   5.940 -1.4962 -0.9236  0.4402
 9698TIP3    H253290   2.335   4.197   6.037 -0.8602 -1.1786 -0.1462
 9699TIP3   OH253291   2.798   0.921   6.637 -0.1230 -0.6744 -0.1819
 9699TIP3    H153292   2.877   0.974   6.649  0.3197 -1.4008  0.1440
 9699TIP3    H253293   2.811   0.878   6.552 -1.3863  1.2517 -1.4422
 9700TIP3   OH253294   1.559   3.840   6.568 -1.0740  0.3107  0.1342
 9700TIP3    H153295   1.638   3.791   6.544 -0.2159  1.0668  1.3169
 9700TIP3    H253296   1.505   3.777   6.616 -0.6936  0.0819  0.2655
 9701TIP3   OH253297   4.874   4.959   5.998  0.0464 -0.1350  0.0021
 9701TIP3    H153298   4.881   5.055   5.995 -0.1064 -0.0318  1.6328
 9701TIP3    H253299   4.944   4.928   5.942  1.6837  0.9429  1.3600
 9702TIP3   OH253300   3.290   2.254   7.448 -0.4891  0.2808  0.2102
 9702TIP3    H153301   3.269   2.164   7.421  1.8793 -0.0621 -0.6524
 9702TIP3    H253302   3.301   2.247   7.543  2.4764 -1.0539 -0.1223
 9703TIP3   OH253303   3.281   2.563   8.300 -0.1246 -0.3583  0.3855
 9703TIP3    H153304   3.213   2.582   8.235 -0.2019  1.7507  1.0066
 9703TIP3    H253305   3.318   2.479   8.272 -1.6834 -0.6291 -1.0520
 9704TIP3   OH253306   1.354   2.672   6.746  0.6730 -0.8518  0.3695
 9704TIP3    H153307   1.315   2.695   6.661  1.1116 -0.2982  0.3179
 9704TIP3    H253308   1.307   2.593   6.773  0.5329 -1.0369 -0.3943
 9705TIP3   OH253309   4.763   6.673   8.581  0.3927 -0.1871 -0.4798
 9705TIP3    H153310   4.801   6.674   8.493  1.0676 -1.4596 -0.2309
 9705TIP3    H253311   4.838   6.662   8.640 -0.1596 -0.6872  0.1588
 9706TIP3   OH253312   5.205   0.262   8.061  0.2072 -0.7985  0.1658
 9706TIP3    H153313   5.253   0.286   8.141 -0.3529 -4.3959  1.7820
 9706TIP3    H253314   5.121   0.307   8.071  0.3015 -0.8410  1.4137
 9707TIP3   OH253315   6.511   5.413   6.618  0.8917  0.2662 -0.2347
 9707TIP3    H153316   6.550   5.483   6.670 -1.2087  1.0224  0.4280
 9707TIP3    H253317   6.563   5.411   6.538  1.9362  1.5710  0.3719
 9708TIP3   OH253318   5.617   5.568   8.406  0.3514  0.0671  0.0991
 9708TIP3    H153319   5.547   5.511   8.437 -1.3060  0.5979 -2.3898
 9708TIP3    H253320   5.602   5.651   8.450 -0.2485  0.0107  0.0049
 9709TIP3   OH253321   1.788   4.457   7.751  0.2530  0.2589  0.4099
 9709TIP3    H153322   1.735   4.490   7.823  1.0653  2.5200  0.0781
 9709TIP3    H253323   1.733   4.471   7.673  0.7383  1.2881  0.2272
 9710TIP3   OH253324   3.028   2.145   7.254  0.2145  0.6815 -0.2134
 9710TIP3    H153325   2.992   2.162   7.167  0.1206  1.6999  0.0037
 9710TIP3    H253326   3.121   2.127   7.238  0.1149  0.4563 -0.5575
 9711TIP3   OH253327   0.896   3.642   6.252  0.1658  0.1664 -0.5336
 9711TIP3    H153328   0.909   3.731   6.287 -0.3710 -0.1857  0.5912
 9711TIP3    H253329   0.902   3.585   6.328  0.9437 -0.8242 -1.3085
 9712TIP3   OH253330   5.266   2.313   7.761 -0.0788  0.7915  0.0482
 9712TIP3    H153331   5.215   2.374   7.814 -2.0593 -0.5641 -0.1560
 9712TIP3    H253332   5.293   2.245   7.823  1.8028  1.6329  0.2087
 9713TIP3   OH253333   4.821   3.852   6.089 -0.0698  0.5053  0.6351
 9713TIP3    H153334   4.728   3.852   6.066  0.0811 -1.0179 -0.1335
 9713TIP3    H253335   4.865   3.887   6.012  0.1799 -1.5657 -0.2438
 9714TIP3   OH253336   1.220   2.013   6.315  0.1194  0.0595 -0.5352
 9714TIP3    H153337   1.283   2.084   6.302 -0.3516  0.3180 -1.5470
 9714TIP3    H253338   1.209   1.975   6.227 -0.7995 -0.2610 -0.2952
 9715TIP3   OH253339   6.498   4.243   7.156 -0.0257 -0.0267  0.4177
 9715TIP3    H153340   6.454   4.185   7.095 -0.1349 -0.3613  0.8127
 9715TIP3    H253341   6.515   4.323   7.106  1.6860 -1.0177 -0.6531
 9716TIP3   OH253342   3.908   6.258   7.541 -0.3143  0.2615 -0.1516
 9716TIP3    H153343   3.938   6.264   7.631  0.0908  0.0552 -0.2717
 9716TIP3    H253344   3.982   6.286   7.488 -0.0547 -0.9523 -0.4824
 9717TIP3   OH253345   2.244   4.052   5.743  0.2865  0.2787  0.5605
 9717TIP3    H153346   2.156   4.063   5.779  0.9468  0.0070  2.3470
 9717TIP3    H253347   2.302   4.089   5.810  1.5520  0.1905 -0.4551
 9718TIP3   OH253348   5.159   2.221   6.450 -0.2537  0.3304 -0.0112
 9718TIP3    H153349   5.121   2.134   6.454 -0.7696  0.5803  0.8562
 9718TIP3    H253350   5.141   2.259   6.536 -0.6495  1.5460 -0.6078
 9719TIP3   OH253351   3.284   6.364   6.367  0.5823 -0.0486 -1.1374
 9719TIP3    H153352   3.223   6.426   6.326  0.1371  0.1503 -0.1883
 9719TIP3    H253353   3.258   6.279   6.333 -1.1190 -0.1386  0.2723
 9720TIP3   OH253354   0.714   4.623   8.243 -0.2907 -0.0001 -0.1529
 9720TIP3    H153355   0.766   4.600   8.165  0.2784 -0.0565  0.2364
 9720TIP3    H253356   0.667   4.703   8.218  2.1282  1.7080  0.3914
 9721TIP3   OH253357   4.203   6.213   6.800  0.1726 -0.1333 -0.0603
 9721TIP3    H153358   4.214   6.254   6.714  0.9089  2.1137  1.0181
 9721TIP3    H253359   4.132   6.263   6.841  1.0866  0.0936  1.3147
 9722TIP3   OH253360   0.857   3.504   8.524 -0.2911 -0.3260 -0.3529
 9722TIP3    H153361   0.925   3.570   8.534  0.3539 -0.7438 -1.7593
 9722TIP3    H253362   0.785   3.535   8.579  0.6104  0.6910  0.2842
 9723TIP3   OH253363   0.606   5.431   8.615 -0.3195 -0.2222  0.2757
 9723TIP3    H153364   0.604   5.359   8.552 -0.1743 -0.0076  0.0229
 9723TIP3    H253365   0.672   5.406   8.679  0.7892  0.3366 -0.6077
 9724TIP3   OH253366   5.430   5.442   5.816  0.0095  0.9992  0.2430
 9724TIP3    H153367   5.336   5.455   5.828 -0.0751  1.3025 -0.6488
 9724TIP3    H253368   5.440   5.431   5.721  0.4612 -2.3059  0.5520
 9725TIP3   OH253369   5.467   4.257   8.146  0.5537  0.4775  0.2584
 9725TIP3    H153370   5.381   4.259   8.105  1.5261 -0.3270 -1.9936
 9725TIP3    H253371   5.512   4.334   8.110  1.2855  0.0175  0.1644
 9726TIP3   OH253372   6.223   3.336   6.444  0.2426  0.5568  0.6420
 9726TIP3    H153373   6.182   3.305   6.525 -0.9423 -0.9418 -0.4839
 9726TIP3    H253374   6.208   3.266   6.381  2.7649  0.8471 -0.4217
 9727TIP3   OH253375   5.586   0.076   5.697  0.3432 -0.4312 -0.1991
 9727TIP3    H153376   5.568   0.039   5.610  0.1905 -1.1064  0.1225
 9727TIP3    H253377   5.522   0.035   5.755 -2.0621  2.6425 -0.3588
 9728TIP3   OH253378   0.743   0.463   7.447  0.0022  0.2582  0.3005
 9728TIP3    H153379   0.703   0.548   7.427  1.3352  0.9787  0.5410
 9728TIP3    H253380   0.807   0.449   7.377 -0.9774 -1.1101 -0.3596
 9729TIP3   OH253381   6.476   0.489   8.022 -0.2031  0.0038 -0.4259
 9729TIP3    H153382   6.509   0.431   7.954  0.5412  1.0160 -0.9624
 9729TIP3    H253383   6.544   0.557   8.030 -1.2271  1.0207 -0.1198
 9730TIP3   OH253384   6.041   1.018   5.994 -0.5446  0.5819  0.5164
 9730TIP3    H153385   6.083   0.947   5.947 -1.4492  0.4777 -0.1563
 9730TIP3    H253386   6.056   1.095   5.939  0.3725  0.9106  1.2071
 9731TIP3   OH253387   0.667   0.183   7.427 -0.5223 -0.2935  0.5695
 9731TIP3    H153388   0.689   0.272   7.455  1.3128 -0.8503  0.9983
 9731TIP3    H253389   0.747   0.133   7.440 -0.7872 -1.5122 -1.8983
 9732TIP3   OH253390   4.338   0.895   6.541  0.1138  0.1056 -0.4439
 9732TIP3    H153391   4.324   0.831   6.471  0.0604  0.9650 -1.2425
 9732TIP3    H253392   4.250   0.921   6.568  0.0885 -1.5409  1.2251
 9733TIP3   OH253393   4.474   0.024   8.674  0.2824 -0.4258 -0.1657
 9733TIP3    H153394   4.417   0.066   8.739  0.5917  1.3459 -0.9719
 9733TIP3    H253395   4.520  -0.044   8.723  0.2917  0.6579  1.4149
 9734TIP3   OH253396   2.284   0.367   6.211 -0.5428 -0.0766  0.0834
 9734TIP3    H153397   2.359   0.308   6.205 -1.0042 -0.6860  0.1978
 9734TIP3    H253398   2.309   0.432   6.277  0.3191  0.3894 -0.6810
 9735TIP3   OH253399   6.248   5.370   7.814  0.3633  0.1769 -0.0271
 9735TIP3    H153400   6.339   5.348   7.794  0.8594  1.5270  0.6363
 9735TIP3    H253401   6.202   5.359   7.731  0.8646 -1.6893 -0.1021
 9736TIP3   OH253402   5.861   2.906   5.519  0.7248 -0.3705  0.2095
 9736TIP3    H153403   5.841   2.823   5.562  1.1714  0.5603  2.3696
 9736TIP3    H253404   5.955   2.918   5.534  0.9409 -0.0896 -1.2619
 9737TIP3   OH253405   6.256   0.329   8.056  0.5622 -0.1201 -0.3040
 9737TIP3    H153406   6.280   0.414   8.092 -1.4235  0.3573  0.0178
 9737TIP3    H253407   6.194   0.350   7.986  0.8514 -1.2688 -0.9298
 9738TIP3   OH253408   0.562   4.118   7.036 -0.1442 -0.2079 -0.2660
 9738TIP3    H153409   0.654   4.109   7.062  0.6569 -0.0535 -2.7912
 9738TIP3    H253410   0.542   4.035   6.993 -0.9410  0.0674 -0.4308
 9739TIP3   OH253411   3.986   1.787   8.733 -0.4329  0.4051 -0.4456
 9739TIP3    H153412   4.081   1.785   8.719 -0.5635 -0.9141 -1.3043
 9739TIP3    H253413   3.968   1.878   8.759  1.0164  0.7507 -0.5266
 9740TIP3   OH253414   3.241   5.891   7.924  0.0935  0.1567  0.3574
 9740TIP3    H153415   3.166   5.912   7.979  0.6897 -0.1007  1.3014
 9740TIP3    H253416   3.205   5.883   7.836 -1.0690 -0.4861  0.8741
 9741TIP3   OH253417   3.359   1.690   5.603  0.8139 -0.0849  0.1834
 9741TIP3    H153418   3.268   1.670   5.623  0.1628 -1.4301 -3.3637
 9741TIP3    H253419   3.399   1.606   5.581  1.5688  0.8823 -2.6931
 9742TIP3   OH253420   2.838   3.855   7.730 -0.1694 -0.2830 -0.2367
 9742TIP3    H153421   2.881   3.827   7.649 -2.9836 -0.8800 -1.6532
 9742TIP3    H253422   2.837   3.776   7.785  1.2807 -0.0184  0.2064
 9743TIP3   OH253423   3.285   1.914   7.981 -0.1708 -0.0221 -0.0391
 9743TIP3    H153424   3.278   1.825   7.947 -0.0349  0.4080 -1.2466
 9743TIP3    H253425   3.312   1.903   8.072 -1.3793 -1.2429  0.2014
 9744TIP3   OH253426   6.359   1.682   7.049 -0.1735  0.1036  0.3799
 9744TIP3    H153427   6.417   1.620   7.093 -1.6712 -2.4603 -1.0212
 9744TIP3    H253428   6.397   1.768   7.068  3.0042 -1.2967  0.9926
 9745TIP3   OH253429   1.514   3.882   6.967 -0.7439  0.3343  0.1414
 9745TIP3    H153430   1.495   3.972   6.992  0.7188  0.7765 -0.2676
 9745TIP3    H253431   1.579   3.852   7.031  0.1816  0.2156 -0.8196
 9746TIP3   OH253432   3.451   5.999   5.519  0.8668 -0.3740 -0.3565
 9746TIP3    H153433   3.378   5.942   5.493 -0.2748  0.7688  0.2255
 9746TIP3    H253434   3.479   5.965   5.604  2.3277 -2.0018 -1.4398
 9747TIP3   OH253435   5.607   2.702   8.370  0.4715 -0.1867 -0.0793
 9747TIP3    H153436   5.590   2.795   8.356  1.0426 -0.2628 -1.3917
 9747TIP3    H253437   5.530   2.657   8.336  0.7497 -0.2503 -0.6329
 9748TIP3   OH253438   0.441   3.084   7.283  0.4867  1.1319  0.5171
 9748TIP3    H153439   0.359   3.053   7.245  1.6415 -1.2741 -0.1673
 9748TIP3    H253440   0.435   3.059   7.375  1.2967 -1.0659  0.0266
 9749TIP3   OH253441   2.597   5.292   8.168 -0.0394  0.1820 -0.1043
 9749TIP3    H153442   2.676   5.338   8.196 -0.0781  0.4494 -0.4326
 9749TIP3    H253443   2.546   5.281   8.249 -0.9109  2.4081 -0.2656
 9750TIP3   OH253444   5.173   1.623   5.900  0.3347  0.3049 -0.4418
 9750TIP3    H153445   5.175   1.536   5.862  1.5121  1.1852 -2.5962
 9750TIP3    H253446   5.177   1.609   5.995 -1.2405 -1.9728 -0.6594
 9751TIP3   OH253447   4.937   4.808   7.165 -0.0026  0.5179 -0.0772
 9751TIP3    H153448   5.001   4.823   7.096 -0.2891 -0.2654 -0.5229
 9751TIP3    H253449   4.952   4.879   7.228 -0.0302  1.5100 -1.1517
 9752TIP3   OH253450   4.140   3.926   6.713  0.4798  0.3885  0.3689
 9752TIP3    H153451   4.229   3.905   6.684  0.0268  1.5320 -2.0289
 9752TIP3    H253452   4.094   3.952   6.634 -2.1341 -0.4894  1.4840
 9753TIP3   OH253453   2.787   2.929   5.638 -0.5189 -0.1236 -0.3915
 9753TIP3    H153454   2.862   2.941   5.580  0.0621 -1.2132  0.1059
 9753TIP3    H253455   2.732   3.005   5.621  0.2932  0.2781 -1.3695
 9754TIP3   OH253456   0.549   4.421   7.056 -0.2327 -0.0961 -0.0053
 9754TIP3    H153457   0.482   4.449   6.994 -0.9214  0.2490  0.8648
 9754TIP3    H253458   0.555   4.326   7.043 -1.0286 -0.1603  0.0151
 9755TIP3   OH253459   5.489   5.956   7.522 -0.1086 -0.5201  0.1198
 9755TIP3    H153460   5.458   5.970   7.433  1.8415  2.1497 -0.2879
 9755TIP3    H253461   5.556   5.889   7.514 -1.0429 -1.4489 -0.1121
 9756TIP3   OH253462   5.287   0.285   6.386 -0.6759  0.0423  0.2897
 9756TIP3    H153463   5.201   0.264   6.351 -1.7262  0.2208  2.5751
 9756TIP3    H253464   5.306   0.213   6.447  0.9641 -0.1638 -0.4041
 9757TIP3   OH253465   5.567   4.310   8.409 -0.3781  0.8649 -0.2083
 9757TIP3    H153466   5.658   4.337   8.407 -0.0578 -0.1387  0.0427
 9757TIP3    H253467   5.539   4.312   8.317  0.4706 -0.6161 -0.5402
 9758TIP3   OH253468   3.013   4.571   7.805  0.5987 -0.2976 -0.1499
 9758TIP3    H153469   2.971   4.551   7.721  0.8468 -1.0094 -0.1162
 9758TIP3    H253470   2.940   4.592   7.863  0.4480  0.5281 -0.6171
 9759TIP3   OH253471   1.833   3.175   8.875 -0.0218 -0.1717 -0.3381
 9759TIP3    H153472   1.900   3.182   8.944  0.5176 -3.6703 -0.3278
 9759TIP3    H253473   1.751   3.161   8.922  0.2992 -2.2510 -0.3242
 9760TIP3   OH253474   3.970   2.577   7.332 -0.5155 -0.2165 -0.3521
 9760TIP3    H153475   3.916   2.562   7.411 -0.3930 -3.9375 -0.7906
 9760TIP3    H253476   4.060   2.564   7.362 -0.1944  1.2517 -0.5981
 9761TIP3   OH253477   2.430   5.803   8.341 -0.5040  0.6576 -0.0799
 9761TIP3    H153478   2.350   5.809   8.393 -1.8607  1.3722 -2.1234
 9761TIP3    H253479   2.451   5.709   8.340 -1.1895  0.4856  0.6127
 9762TIP3   OH253480   3.763   5.011   6.288  0.3638 -0.1199  0.0718
 9762TIP3    H153481   3.746   5.028   6.381  0.9940 -0.8210  0.3246
 9762TIP3    H253482   3.793   4.920   6.286 -0.5168 -0.3979 -0.9367
 9763TIP3   OH253483   2.408   3.221   7.207  0.1361  0.0089 -0.3770
 9763TIP3    H153484   2.482   3.181   7.253 -0.2370  0.2566  0.4728
 9763TIP3    H253485   2.351   3.147   7.184 -0.1408 -0.0401  0.4329
 9764TIP3   OH253486   4.469   5.021   5.947  0.6112 -0.7454  0.2340
 9764TIP3    H153487   4.554   5.031   5.990  0.5886 -1.7048  0.5112
 9764TIP3    H253488   4.437   5.111   5.937  0.4556 -0.4962  2.5253
 9765TIP3   OH253489   0.282   5.508   7.902 -0.0650 -0.3303  0.5477
 9765TIP3    H153490   0.242   5.430   7.865 -0.2711 -0.1014  0.2840
 9765TIP3    H253491   0.371   5.510   7.866  0.0303 -0.5842  0.7645
 9766TIP3   OH253492   6.071   6.423   7.456  0.1072  0.2409  0.1472
 9766TIP3    H153493   6.084   6.389   7.544 -1.4603 -1.1319 -0.1094
 9766TIP3    H253494   6.010   6.496   7.467 -0.8951 -0.5680  0.1264
 9767TIP3   OH253495   5.539   0.949   6.825 -0.1526  0.5299 -0.0475
 9767TIP3    H153496   5.489   0.900   6.890 -0.0405 -0.5062 -0.7274
 9767TIP3    H253497   5.490   1.031   6.814 -1.0606  0.0268  0.1447
 9768TIP3   OH253498   5.555   1.580   8.707  0.0008  0.1320  0.6233
 9768TIP3    H153499   5.508   1.499   8.688 -1.7908  1.1025  0.7953
 9768TIP3    H253500   5.603   1.599   8.626 -0.4153 -0.5385  0.2105
 9769TIP3   OH253501   0.960   5.900   6.236  0.3124 -0.5337  0.1307
 9769TIP3    H153502   1.055   5.906   6.242  0.1688  0.7345  1.6457
 9769TIP3    H253503   0.932   5.879   6.325 -0.8462 -0.6930 -0.2626
 9770TIP3   OH253504   0.824   4.842   8.817 -0.2046 -0.0887  0.2939
 9770TIP3    H153505   0.750   4.842   8.878 -0.0624  0.2938  0.4713
 9770TIP3    H253506   0.846   4.750   8.806 -0.6045 -0.1947  0.3660
 9771TIP3   OH253507   5.218   1.263   8.797 -0.3379  0.1098  0.1858
 9771TIP3    H153508   5.219   1.210   8.877  2.1713  2.9268  2.2444
 9771TIP3    H253509   5.268   1.211   8.734 -1.1949 -1.5747  0.8110
 9772TIP3   OH253510   6.417   0.266   8.275 -0.0638  0.5817  0.2446
 9772TIP3    H153511   6.392   0.279   8.184  0.8756 -0.1399 -0.1391
 9772TIP3    H253512   6.367   0.189   8.303  1.8126 -1.0551 -0.6179
 9773TIP3   OH253513   4.329   3.079   7.786  0.1163  1.4642 -0.2616
 9773TIP3    H153514   4.355   3.016   7.854 -0.2888  0.5981 -0.8947
 9773TIP3    H253515   4.390   3.152   7.797  0.6547  0.9281  0.4273
 9774TIP3   OH253516   0.058   3.079   6.566  0.1362  0.0345  0.5492
 9774TIP3    H153517   0.057   3.173   6.547  0.4297 -0.1078 -0.1962
 9774TIP3    H253518   0.036   3.074   6.659 -1.6573  0.7374  0.2196
 9775TIP3   OH253519   6.107   2.521   5.539  0.1870 -0.2663 -0.0089
 9775TIP3    H153520   6.044   2.570   5.487 -0.6313 -2.9106 -1.6853
 9775TIP3    H253521   6.065   2.437   5.555  2.2577 -1.1634  1.1040
 9776TIP3   OH253522   2.946   5.697   8.005 -0.2994 -0.5202  0.3448
 9776TIP3    H153523   2.970   5.788   8.020  1.4098 -0.9096  0.2077
 9776TIP3    H253524   2.851   5.698   8.000 -0.3403  1.1864  0.7567
 9777TIP3   OH253525   2.849   3.443   8.163  0.2481  0.0583 -0.0610
 9777TIP3    H153526   2.794   3.375   8.124 -1.2775  1.0033  0.3569
 9777TIP3    H253527   2.858   3.509   8.094 -0.4203  0.5952  0.3487
 9778TIP3   OH253528   5.460   6.253   7.900  0.1996 -0.1234  0.4736
 9778TIP3    H153529   5.462   6.164   7.934  1.6356 -0.2294  0.1903
 9778TIP3    H253530   5.370   6.267   7.873  0.2780 -2.1048 -1.0446
 9779TIP3   OH253531   4.011   1.234   7.606  0.5053  0.0142 -0.1682
 9779TIP3    H153532   4.034   1.281   7.526  0.1835  1.8884  0.7809
 9779TIP3    H253533   4.091   1.191   7.633  0.9544  0.4333 -0.8081
 9780TIP3   OH253534   3.563   0.729   8.499  0.7707 -0.0000  0.5882
 9780TIP3    H153535   3.569   0.765   8.411  1.2924  0.2844  0.7353
 9780TIP3    H253536   3.642   0.675   8.509 -1.2825 -3.6110 -0.6682
 9781TIP3   OH253537   3.567   4.925   5.491 -0.2418  0.1566 -0.3246
 9781TIP3    H153538   3.487   4.877   5.514 -0.4265  0.5143 -0.2207
 9781TIP3    H253539   3.634   4.889   5.549 -0.2134 -0.4960 -0.7534
 9782TIP3   OH253540   4.164   5.933   8.308 -0.4569 -0.2114  0.2257
 9782TIP3    H153541   4.103   5.997   8.345  0.0085  0.6760 -0.5140
 9782TIP3    H253542   4.227   5.918   8.378  0.6344  1.7397 -0.2627
 9783TIP3   OH253543   3.857   1.642   8.950  0.3974  0.2722 -0.6122
 9783TIP3    H153544   3.804   1.707   8.903  1.4460  1.7173  0.1161
 9783TIP3    H253545   3.934   1.629   8.896 -0.1317 -0.9404 -1.1011
 9784TIP3   OH253546   6.165   0.682   8.413  0.7707  0.1150 -0.0607
 9784TIP3    H153547   6.205   0.607   8.456  0.8041  0.1255 -0.0737
 9784TIP3    H253548   6.126   0.733   8.485 -0.8959 -0.8785 -0.2012
 9785TIP3   OH253549   4.976   0.417   8.139 -1.2708 -0.3675  0.2185
 9785TIP3    H153550   4.897   0.469   8.124 -1.0100 -0.2945 -1.0730
 9785TIP3    H253551   5.027   0.468   8.201 -1.3433  0.5948 -0.4830
 9786TIP3   OH253552   5.657   5.279   8.761 -0.4678 -0.2162  0.6783
 9786TIP3    H153553   5.746   5.254   8.787 -0.6301  0.9205  2.4493
 9786TIP3    H253554   5.640   5.361   8.807 -2.2103 -0.0682 -0.1474
 9787TIP3   OH253555   5.219   3.053   7.696 -0.4078 -0.3382  0.2397
 9787TIP3    H153556   5.248   3.144   7.693  0.8299 -0.7357 -0.1704
 9787TIP3    H253557   5.124   3.059   7.689 -0.3228  0.9020 -0.1723
 9788TIP3   OH253558   0.079   1.892   8.794 -0.5504  0.1981  0.2911
 9788TIP3    H153559   0.019   1.841   8.849  0.3892  1.5132  2.7251
 9788TIP3    H253560   0.165   1.853   8.810 -0.0097  1.6779  1.2212
 9789TIP3   OH253561   1.599   0.765   7.260 -0.4993 -0.5846 -0.1691
 9789TIP3    H153562   1.624   0.788   7.350 -2.0383 -2.2217  0.7475
 9789TIP3    H253563   1.618   0.671   7.254 -0.3500 -0.4754 -1.5849
 9790TIP3   OH253564   0.498   5.145   7.902  0.3022 -0.0033  0.3011
 9790TIP3    H153565   0.419   5.178   7.858  0.2874  0.3917  0.6123
 9790TIP3    H253566   0.484   5.168   7.994  0.0823 -1.2960  0.6071
 9791TIP3   OH253567   3.699   0.533   7.615 -0.1689  0.5790  0.0881
 9791TIP3    H153568   3.685   0.439   7.601 -0.9310  1.0760 -3.5382
 9791TIP3    H253569   3.649   0.553   7.694 -1.5110 -1.7456 -0.0673
 9792TIP3   OH253570   5.301   4.913   8.947  0.6797 -0.6934 -0.1039
 9792TIP3    H153571   5.355   4.931   8.870  1.9908 -0.4792  0.8270
 9792TIP3    H253572   5.276   4.999   8.980 -3.2577 -0.7003 -2.4452
 9793TIP3   OH253573   0.771   3.354   7.317 -0.2189  0.4183  0.4713
 9793TIP3    H153574   0.757   3.391   7.404  0.5311 -0.1643  0.8521
 9793TIP3    H253575   0.866   3.349   7.308 -0.2917 -0.3993 -0.0006
 9794TIP3   OH253576   6.126   2.917   5.600 -0.3520  0.3321  0.3764
 9794TIP3    H153577   6.101   2.854   5.667  0.1014  0.2133  0.4390
 9794TIP3    H253578   6.215   2.944   5.624 -0.8721  1.6851  0.8651
 9795TIP3   OH253579   2.710   2.107   5.648  0.6998  0.2098 -0.3062
 9795TIP3    H153580   2.737   2.168   5.716  0.4030  0.6814 -0.6022
 9795TIP3    H253581   2.638   2.152   5.603  1.8134  0.5186 -1.8436
 9796TIP3   OH253582   5.026   5.697   7.202 -0.0115  0.2375 -0.2615
 9796TIP3    H153583   4.970   5.746   7.142 -1.5530 -0.4551  0.5583
 9796TIP3    H253584   5.051   5.761   7.269 -0.6764  0.3031 -0.0734
 9797TIP3   OH253585   3.012   5.331   5.487  0.1093  0.2673 -0.0102
 9797TIP3    H153586   2.958   5.258   5.456 -0.0199  0.3271  0.0732
 9797TIP3    H253587   3.096   5.292   5.509 -0.5177 -0.1651  1.7336
 9798TIP3   OH253588   0.082   5.017   6.560  0.3559  0.3124 -0.2259
 9798TIP3    H153589   0.154   5.011   6.498  1.0076 -0.2212  0.5630
 9798TIP3    H253590   0.007   5.046   6.507  0.7990 -0.4750 -1.3299
 9799TIP3   OH253591   3.879   1.740   6.786 -0.8716 -0.0255  0.0023
 9799TIP3    H153592   3.935   1.814   6.810 -0.3351 -0.4924  0.2344
 9799TIP3    H253593   3.855   1.701   6.870 -0.5286 -0.5551 -0.1358
 9800TIP3   OH253594   1.399   6.435   8.663  0.0081 -0.1284  0.2062
 9800TIP3    H153595   1.473   6.466   8.611 -1.1025  0.7793 -0.8674
 9800TIP3    H253596   1.374   6.510   8.717 -0.2963 -0.3540  0.3849
 9801TIP3   OH253597   6.679   3.467   6.781 -0.1854  0.0317 -0.6079
 9801TIP3    H153598   6.726   3.513   6.712  0.8260 -0.1385 -0.0519
 9801TIP3    H253599   6.636   3.536   6.831 -0.7269  0.1718 -1.2591
 9802TIP3   OH253600   2.483   4.205   7.739  0.0492  0.3285  0.2609
 9802TIP3    H153601   2.462   4.219   7.832 -0.3353  0.2002  0.1972
 9802TIP3    H253602   2.564   4.155   7.740  0.9635  1.7516  0.5068
 9803TIP3   OH253603   4.240   4.065   5.389  0.2378  0.7516 -0.1585
 9803TIP3    H153604   4.196   4.150   5.400 -0.2238  0.6806 -1.3422
 9803TIP3    H253605   4.332   4.085   5.402  0.4737  2.0159 -3.0140
 9804TIP3   OH253606   2.822   5.924   6.842  0.5356  0.1905 -0.3425
 9804TIP3    H153607   2.875   5.916   6.763  0.1285  0.6891 -0.6712
 9804TIP3    H253608   2.779   5.839   6.852  0.9074 -0.0086 -0.4211
 9805TIP3   OH253609   1.108   6.563   5.883 -0.4261  0.0393  0.6945
 9805TIP3    H153610   1.060   6.595   5.959 -1.3889 -0.5407  0.3446
 9805TIP3    H253611   1.084   6.621   5.812 -0.9776 -0.5179  0.4144
 9806TIP3   OH253612   4.722   4.621   7.530 -0.7838 -0.5696 -0.3208
 9806TIP3    H153613   4.733   4.651   7.440 -0.0213  0.0466 -0.0335
 9806TIP3    H253614   4.811   4.615   7.564 -1.0262 -1.5474  0.1566
 9807TIP3   OH253615   4.324   2.701   6.363  0.0669 -0.2756 -0.2831
 9807TIP3    H153616   4.389   2.641   6.325  0.1299 -0.7962  0.6269
 9807TIP3    H253617   4.247   2.689   6.308  0.4215 -0.3825 -0.7708
 9808TIP3   OH253618   3.007   6.425   7.986 -0.3282 -0.3936 -0.1147
 9808TIP3    H153619   3.030   6.386   7.902  0.1225  1.7377 -1.0369
 9808TIP3    H253620   2.922   6.466   7.971  0.9696  2.3665 -0.4238
 9809TIP3   OH253621   3.177   1.027   5.793  0.1968  0.7732  0.0997
 9809TIP3    H153622   3.161   1.121   5.783 -0.0933  0.5589 -2.1073
 9809TIP3    H253623   3.103   0.995   5.844  0.5467  1.7949  1.2899
 9810TIP3   OH253624   6.156   5.057   8.158 -0.5877 -0.3097 -0.2969
 9810TIP3    H153625   6.199   4.998   8.219  1.7446  1.1922 -0.3721
 9810TIP3    H253626   6.217   5.063   8.084 -2.2887 -0.2993 -1.7782
 9811TIP3   OH253627   2.746   5.376   7.441 -0.0967 -0.1059 -0.3827
 9811TIP3    H153628   2.753   5.425   7.523 -0.0648  0.5882 -0.7931
 9811TIP3    H253629   2.820   5.407   7.388 -0.6851  0.1993 -1.0510
 9812TIP3   OH253630   6.483   6.029   6.440 -0.1812  0.1331  0.4958
 9812TIP3    H153631   6.490   6.038   6.345 -0.3948  1.3988  0.5823
 9812TIP3    H253632   6.395   5.995   6.455 -0.2211  0.1312  0.2566
 9813TIP3   OH253633   1.350   3.876   5.715  0.0783  0.1662  0.6625
 9813TIP3    H153634   1.441   3.895   5.695 -0.3661  0.8211 -0.9146
 9813TIP3    H253635   1.305   3.960   5.707 -1.0619 -0.5596 -1.2610
 9814TIP3   OH253636   2.618   1.752   6.964  0.4859  0.2324  0.4277
 9814TIP3    H153637   2.637   1.669   7.007  1.3123 -0.4226 -1.1157
 9814TIP3    H253638   2.539   1.735   6.913 -0.4117  0.9615  1.5290
 9815TIP3   OH253639   0.717   0.844   6.447  0.2732 -0.1340 -0.2205
 9815TIP3    H153640   0.692   0.754   6.468 -0.7113  0.2969  0.5492
 9815TIP3    H253641   0.756   0.878   6.528  0.6524  0.1322 -0.5095
 9816TIP3   OH253642   6.464   4.041   6.906 -0.4066 -0.2252 -0.4585
 9816TIP3    H153643   6.462   3.969   6.843 -1.4905 -0.6316  0.0122
 9816TIP3    H253644   6.377   4.039   6.947  0.8305 -1.1104  2.3316
 9817TIP3   OH253645   4.898   4.457   5.707 -0.9138 -0.2472 -0.4627
 9817TIP3    H153646   4.967   4.408   5.752  0.5361  1.4879 -0.7056
 9817TIP3    H253647   4.941   4.536   5.674 -2.8426  0.5114 -1.3480
 9818TIP3   OH253648   1.191   6.052   6.365  0.0213 -0.1755 -0.6196
 9818TIP3    H153649   1.200   6.146   6.347 -0.9610  0.3475  1.3139
 9818TIP3    H253650   1.156   6.048   6.454 -3.1982 -2.2744 -1.7974
 9819TIP3   OH253651   2.412   2.721   6.270 -0.4074  0.2907 -0.0993
 9819TIP3    H153652   2.486   2.768   6.232  0.1166 -1.1716 -1.0054
 9819TIP3    H253653   2.440   2.699   6.359 -0.3690  1.0489  0.0784
 9820TIP3   OH253654   5.563   6.235   7.313 -0.4060 -0.0346 -0.2807
 9820TIP3    H153655   5.505   6.285   7.255 -0.5929 -0.0926 -0.1436
 9820TIP3    H253656   5.641   6.218   7.260  0.1853  1.4560  0.0694
 9821TIP3   OH253657   3.073   3.673   6.464 -0.2812  0.1975  0.3279
 9821TIP3    H153658   3.110   3.720   6.539  1.7647  0.7733 -0.9463
 9821TIP3    H253659   3.138   3.605   6.445 -1.3460 -0.6930 -0.2088
 9822TIP3   OH253660   1.505   0.695   8.048  0.2978  0.2768 -0.2357
 9822TIP3    H153661   1.525   0.764   7.984  1.7021  1.2843  1.2067
 9822TIP3    H253662   1.430   0.728   8.096 -1.1446 -0.7512 -1.6748
 9823TIP3   OH253663   0.447   2.680   6.459 -0.1868 -0.2908 -0.7134
 9823TIP3    H153664   0.426   2.766   6.424 -0.1070 -0.4673 -1.2034
 9823TIP3    H253665   0.365   2.632   6.458 -0.2272 -0.2262 -0.4597
 9824TIP3   OH253666   3.062   2.180   9.219 -0.0651  0.1072  0.2832
 9824TIP3    H153667   3.001   2.107   9.207  0.9893 -0.6619 -0.6462
 9824TIP3    H253668   3.148   2.142   9.202  0.4201  1.8260 -1.4549
 9825TIP3   OH253669   2.219   5.796   8.503  0.7132 -0.0678 -0.1348
 9825TIP3    H153670   2.143   5.740   8.515 -0.7557  1.2567 -2.5295
 9825TIP3    H253671   2.255   5.808   8.591 -1.5842 -1.0806  1.0133
 9826TIP3   OH253672   5.636   0.469   8.206  0.2674 -0.0781 -0.6048
 9826TIP3    H153673   5.617   0.536   8.272 -1.2426  0.1797 -1.2360
 9826TIP3    H253674   5.677   0.398   8.254 -0.9106  0.0416  0.6587
 9827TIP3   OH253675   2.804   3.624   6.573  0.1670  0.2011  0.7534
 9827TIP3    H153676   2.785   3.693   6.637  0.4541  1.5024 -0.4980
 9827TIP3    H253677   2.899   3.626   6.563  0.1873 -0.4637  0.7755
 9828TIP3   OH253678   4.817   0.652   8.431 -0.8414  0.2532  0.3612
 9828TIP3    H153679   4.824   0.716   8.360 -0.4983  1.0147  1.0626
 9828TIP3    H253680   4.753   0.690   8.492  0.2963  0.5591  1.4064
 9829TIP3   OH253681   5.831   5.290   6.666  0.0787  0.1800 -0.1438
 9829TIP3    H153682   5.859   5.201   6.689 -0.3788 -0.3151 -1.4245
 9829TIP3    H253683   5.853   5.343   6.744 -0.9859 -1.2979  1.2153
 9830TIP3   OH253684   6.339   2.508   6.748 -0.0719 -0.1380 -0.1756
 9830TIP3    H153685   6.424   2.514   6.792 -0.3526 -1.7454  0.6268
 9830TIP3    H253686   6.335   2.419   6.716 -0.8131  0.3879 -1.6007
 9831TIP3   OH253687   2.415   1.655   6.830  0.2637 -0.8464 -0.3689
 9831TIP3    H153688   2.386   1.564   6.841 -1.7634 -0.0464  1.7811
 9831TIP3    H253689   2.337   1.703   6.803  0.6778  0.6427  0.9148
 9832TIP3   OH253690   2.635   2.426   8.323  0.4396  0.0262 -0.1427
 9832TIP3    H153691   2.706   2.366   8.301 -0.0503 -1.3183  1.6842
 9832TIP3    H253692   2.679   2.501   8.364  0.8933 -0.0545 -0.4712
 9833TIP3   OH253693   5.780   2.094   6.010 -0.1548 -0.2277 -0.1654
 9833TIP3    H153694   5.697   2.142   6.019 -0.6576 -1.2149  0.6547
 9833TIP3    H253695   5.797   2.059   6.097  0.3744 -1.2502 -0.6594
 9834TIP3   OH253696   3.193   2.823   6.487 -0.3732  0.3766  0.6271
 9834TIP3    H153697   3.142   2.749   6.520 -2.2729  0.6644 -1.4214
 9834TIP3    H253698   3.281   2.787   6.471 -0.5875 -0.7790  1.9052
 9835TIP3   OH253699   0.023   5.591   7.361 -0.0263 -0.4917  0.1858
 9835TIP3    H153700   0.060   5.674   7.332  0.9044 -1.6267 -2.1397
 9835TIP3    H253701  -0.069   5.610   7.376 -0.1651  0.7041 -1.7594
 9836TIP3   OH253702   3.615   4.628   5.454  0.1239  0.1415 -0.2502
 9836TIP3    H153703   3.638   4.709   5.408 -0.6832  0.5093 -0.0137
 9836TIP3    H253704   3.634   4.646   5.546  0.9477 -0.3089 -0.3232
 9837TIP3   OH253705   0.630   5.411   8.084 -0.5550 -0.0437  0.0552
 9837TIP3    H153706   0.587   5.358   8.017 -0.0046  0.4670 -0.7196
 9837TIP3    H253707   0.717   5.372   8.093 -0.8417 -0.5046  0.9476
 9838TIP3   OH253708   1.381   5.492   6.521 -0.1470 -0.0117 -0.0057
 9838TIP3    H153709   1.319   5.465   6.453 -1.5779 -0.2081  1.3440
 9838TIP3    H253710   1.415   5.576   6.490 -0.9715  0.0371 -0.8212
 9839TIP3   OH253711   1.445   6.579   6.819  0.6546  0.1785  0.6702
 9839TIP3    H153712   1.371   6.549   6.767  0.8377 -0.8304  0.9699
 9839TIP3    H253713   1.493   6.638   6.760 -0.8759  1.6197  0.7895
 9840TIP3   OH253714   1.546   0.187   8.328 -0.1347 -0.2967 -0.1471
 9840TIP3    H153715   1.495   0.193   8.247  1.0173 -0.8185 -0.9293
 9840TIP3    H253716   1.489   0.227   8.394 -1.1497  0.0311 -1.1748
 9841TIP3   OH253717   5.125   3.132   6.808  0.1550  0.0972 -0.3087
 9841TIP3    H153718   5.207   3.159   6.848 -1.2925  1.6456  1.9146
 9841TIP3    H253719   5.141   3.132   6.714  2.3098  1.6519  0.0089
 9842TIP3   OH253720   1.988   4.745   7.562  0.0529  0.3199 -0.0570
 9842TIP3    H153721   1.949   4.712   7.481  0.4945 -1.4245  0.3958
 9842TIP3    H253722   1.997   4.839   7.548 -1.0730  0.2395 -1.5200
 9843TIP3   OH253723   1.147   4.307   8.147  0.7465 -0.3234 -0.5055
 9843TIP3    H153724   1.057   4.276   8.138  1.0250 -1.2862 -0.1403
 9843TIP3    H253725   1.149   4.390   8.099  0.4259 -1.7838 -3.2624
 9844TIP3   OH253726   3.003   1.667   6.336  0.1474 -0.0028 -0.4345
 9844TIP3    H153727   3.048   1.748   6.359 -0.2984  0.1911 -0.2346
 9844TIP3    H253728   2.938   1.656   6.406 -1.7516  0.9743 -1.9676
 9845TIP3   OH253729   0.950   0.428   7.265  0.3114 -0.3642 -0.2712
 9845TIP3    H153730   1.001   0.445   7.186  0.9859 -3.5803 -0.6388
 9845TIP3    H253731   1.014   0.431   7.336  0.3967 -1.0291 -0.3139
 9846TIP3   OH253732   4.525   3.409   6.561 -0.0475 -0.1251 -0.2437
 9846TIP3    H153733   4.606   3.454   6.534  0.8136 -0.2593  1.9066
 9846TIP3    H253734   4.460   3.435   6.496  1.6484  0.2311 -1.8722
 9847TIP3   OH253735   3.477   3.861   7.271  0.0797  0.4017  0.2187
 9847TIP3    H153736   3.398   3.820   7.236  0.3176  0.8244 -0.8593
 9847TIP3    H253737   3.533   3.787   7.296 -0.5874  0.1018  0.8517
 9848TIP3   OH253738   0.741   1.638   8.873  0.0366  0.1830 -0.1398
 9848TIP3    H153739   0.793   1.610   8.798 -0.1908  1.5025 -0.8184
 9848TIP3    H253740   0.736   1.734   8.865  1.3283  0.5598  2.4042
 9849TIP3   OH253741   5.223   1.080   8.333 -0.7340  0.6215  0.0015
 9849TIP3    H153742   5.275   1.134   8.392  0.0900  1.4593 -1.4368
 9849TIP3    H253743   5.133   1.111   8.344 -0.7973 -0.0735  1.6820
 9850TIP3   OH253744   5.589   6.500   6.705 -0.6312 -0.1484 -0.5725
 9850TIP3    H153745   5.593   6.591   6.736 -0.3199  0.0235 -1.1155
 9850TIP3    H253746   5.563   6.450   6.782  1.1849  0.1250  0.2644
 9851TIP3   OH253747   2.695   3.255   5.660  0.9775 -0.4701  0.0939
 9851TIP3    H153748   2.790   3.256   5.654  1.2073  2.6629  1.7481
 9851TIP3    H253749   2.669   3.346   5.642 -1.6360 -1.0402  0.5091
 9852TIP3   OH253750   3.153   0.315   9.092  0.2056  0.2304 -0.3261
 9852TIP3    H153751   3.232   0.311   9.146 -0.4351 -0.6148  0.5799
 9852TIP3    H253752   3.125   0.224   9.082 -0.6174  0.5107 -0.6930
 9853TIP3   OH253753   4.895   0.303   6.980 -0.4819 -0.3800 -0.1401
 9853TIP3    H153754   4.918   0.395   6.989  0.1480 -0.7122  2.3670
 9853TIP3    H253755   4.979   0.257   6.977 -0.7886 -0.9427 -0.2934
 9854TIP3   OH253756   6.555   0.525   9.645 -0.0022 -0.2231  0.1820
 9854TIP3    H153757   6.643   0.544   9.679  0.7294  0.2276 -1.8498
 9854TIP3    H253758   6.562   0.435   9.611 -0.4971 -0.3810  0.4812
 9855TIP3   OH253759   1.072   3.429   6.089  0.0999  0.1379 -0.2779
 9855TIP3    H153760   0.986   3.416   6.127  0.1877  0.2853 -0.0238
 9855TIP3    H253761   1.097   3.518   6.115  0.0397  0.3507 -0.9252
 9856TIP3   OH253762   2.715   3.117   6.741 -0.1951 -0.0815  0.2941
 9856TIP3    H153763   2.774   3.193   6.746 -1.3776  0.8345  0.9413
 9856TIP3    H253764   2.712   3.084   6.831  0.6271 -1.1629 -0.0625
 9857TIP3   OH253765   0.745   4.492   7.408 -0.2871  0.3607 -0.0258
 9857TIP3    H153766   0.683   4.539   7.353  0.4387  0.0848 -1.1094
 9857TIP3    H253767   0.819   4.473   7.350  0.4109 -0.1178  0.9939
 9858TIP3   OH253768   1.736   3.589   8.638  0.0650  0.3194  0.4580
 9858TIP3    H153769   1.725   3.504   8.682 -1.3395  1.6472  2.8710
 9858TIP3    H253770   1.806   3.632   8.687 -0.0894  1.0316  0.0582
 9859TIP3   OH253771   6.145   5.892   8.037 -0.4001 -0.3850 -0.5401
 9859TIP3    H153772   6.218   5.952   8.023 -0.1580 -0.8369 -1.2830
 9859TIP3    H253773   6.183   5.816   8.082 -0.4709 -0.4850 -0.6459
 9860TIP3   OH253774   2.695   0.520   6.232  0.3189 -0.3652  0.3833
 9860TIP3    H153775   2.755   0.469   6.285  0.8950 -0.9727 -0.8073
 9860TIP3    H253776   2.629   0.458   6.203  1.0618 -0.5191 -1.1284
 9861TIP3   OH253777   2.661   1.383   5.914 -0.0438  0.2467  0.7297
 9861TIP3    H153778   2.702   1.466   5.889  0.9830 -0.5611 -0.3769
 9861TIP3    H253779   2.574   1.407   5.944 -0.1792  1.6226 -0.6594
 9862TIP3   OH253780   3.269   0.519   7.962 -0.2395  0.2903 -0.0997
 9862TIP3    H153781   3.315   0.600   7.939  1.2112 -1.1273 -2.6829
 9862TIP3    H253782   3.184   0.526   7.919  0.2162  0.1214 -1.0544
 9863TIP3   OH253783   5.307   0.494   6.547  0.8033 -0.0708 -0.3710
 9863TIP3    H153784   5.299   0.423   6.483  1.0329  0.3789 -0.9036
 9863TIP3    H253785   5.230   0.485   6.603  0.3604 -0.1825 -0.9939
 9864TIP3   OH253786   1.446   4.205   6.953 -0.4261 -0.0684 -0.5004
 9864TIP3    H153787   1.475   4.295   6.966 -0.8938  0.2921 -1.7881
 9864TIP3    H253788   1.381   4.210   6.883 -1.1960 -1.2874  0.0876
 9865TIP3   OH253789   4.285   4.704   7.154 -0.1145 -0.5074 -0.1013
 9865TIP3    H153790   4.252   4.714   7.243 -1.1851  1.0384 -0.6165
 9865TIP3    H253791   4.363   4.759   7.151 -1.0981  0.9230 -0.5688
 9866TIP3   OH253792   4.556   0.207   5.975 -0.2155  0.3848 -0.5654
 9866TIP3    H153793   4.520   0.293   5.956 -1.6899 -0.3423 -1.2818
 9866TIP3    H253794   4.502   0.147   5.924  0.4158 -1.0125  0.3440
 9867TIP3   OH253795   4.214   4.493   6.563  0.2723  0.0637 -0.3025
 9867TIP3    H153796   4.297   4.541   6.573 -0.5287  1.4064  0.1031
 9867TIP3    H253797   4.156   4.532   6.627 -1.0739  0.0077 -1.4493
 9868TIP3   OH253798   2.769   2.667   7.676 -0.1569  0.0816  0.7742
 9868TIP3    H153799   2.709   2.600   7.708 -0.3129 -0.4731 -0.5988
 9868TIP3    H253800   2.852   2.620   7.662  0.2300  0.5543  1.4053
 9869TIP3   OH253801   0.748   6.144   8.674  0.2583 -0.5272  0.1842
 9869TIP3    H153802   0.807   6.097   8.614  0.4161  1.2349 -1.1433
 9869TIP3    H253803   0.747   6.234   8.640 -0.6151  0.2642  2.1521
 9870TIP3   OH253804   3.797   2.457   7.145 -0.2679  0.3308 -0.1409
 9870TIP3    H153805   3.841   2.489   7.223 -0.1709 -2.0982  0.9033
 9870TIP3    H253806   3.719   2.512   7.137  0.5307  1.6456  0.7085
 9871TIP3   OH253807   1.643   3.235   7.229  0.2735  0.5399  0.1294
 9871TIP3    H153808   1.675   3.259   7.141  1.9736 -0.8487  0.3173
 9871TIP3    H253809   1.719   3.247   7.286 -0.1324 -0.8306  0.9950
 9872TIP3   OH253810   0.848   5.051   6.746 -0.0896  0.4066  0.8101
 9872TIP3    H153811   0.864   5.041   6.652  0.0560 -0.7809  0.9438
 9872TIP3    H253812   0.876   5.140   6.766  1.0810  0.2414 -0.0258
 9873TIP3   OH253813   5.327   3.738   6.633  0.2275  0.0231 -0.4584
 9873TIP3    H153814   5.337   3.823   6.675  2.6265 -0.8363  0.9771
 9873TIP3    H253815   5.415   3.700   6.635 -0.8217 -2.6699 -0.6208
 9874TIP3   OH253816   6.204   1.820   5.851 -0.2795  0.0374  0.0819
 9874TIP3    H153817   6.170   1.899   5.892 -0.7062  0.9179 -1.8479
 9874TIP3    H253818   6.136   1.794   5.788 -0.2550 -2.0156  0.8270
 9875TIP3   OH253819   1.185   6.722   8.147  0.0810  0.6363 -0.2112
 9875TIP3    H153820   1.243   6.664   8.099  1.0393  2.9391 -2.0260
 9875TIP3    H253821   1.242   6.770   8.207 -0.6132  0.1254  0.8996
 9876TIP3   OH253822   1.240   4.454   6.092 -0.2552  0.3317 -0.6023
 9876TIP3    H153823   1.304   4.481   6.159  0.3334  1.1294 -1.4663
 9876TIP3    H253824   1.292   4.443   6.012 -1.4414  3.1222 -1.8839
 9877TIP3   OH253825   2.200   5.359   7.843  0.0591 -0.4415  0.3911
 9877TIP3    H153826   2.175   5.437   7.892 -0.7139  0.1656 -0.8986
 9877TIP3    H253827   2.292   5.346   7.864  0.6581  1.7700 -0.5300
 9878TIP3   OH253828   5.420   5.235   8.338 -0.1589 -0.2299  0.3474
 9878TIP3    H153829   5.454   5.155   8.378  0.1588  0.1594  0.8771
 9878TIP3    H253830   5.424   5.300   8.408 -2.1461 -0.1890  0.4748
 9879TIP3   OH253831   6.166   3.574   5.981 -0.4802 -0.1964 -0.1625
 9879TIP3    H153832   6.202   3.542   6.064 -0.0054 -0.9580 -0.6532
 9879TIP3    H253833   6.173   3.499   5.921 -1.9232 -0.0377 -0.5670
 9880TIP3   OH253834   3.530   5.304   6.437 -0.2981 -0.5245  0.4510
 9880TIP3    H153835   3.508   5.223   6.390  0.5742  0.7948 -2.4703
 9880TIP3    H253836   3.616   5.286   6.474 -0.1191 -0.9688 -0.1534
 9881TIP3   OH253837   0.909   6.635   7.639  0.4585 -0.0142  0.1093
 9881TIP3    H153838   0.873   6.561   7.590  0.6438 -0.2356  0.3035
 9881TIP3    H253839   0.953   6.594   7.714  1.5517  0.2119 -0.3898
 9882TIP3   OH253840   1.453   5.905   5.849 -0.6059  0.0694 -0.5508
 9882TIP3    H153841   1.401   5.869   5.921  0.3160 -0.8279 -0.3082
 9882TIP3    H253842   1.527   5.948   5.891 -0.5582  0.3723 -0.9373
 9883TIP3   OH253843   2.432   4.293   6.544  0.3706  0.2847  0.3607
 9883TIP3    H153844   2.523   4.264   6.545  0.6698  1.1734 -0.0897
 9883TIP3    H253845   2.400   4.265   6.458  0.0641 -0.4567  0.7062
 9884TIP3   OH253846   6.293   5.812   7.145  0.3562  0.3176  0.0336
 9884TIP3    H153847   6.214   5.844   7.100  1.0856  1.1626 -0.6758
 9884TIP3    H253848   6.273   5.823   7.238 -0.8199 -0.5945 -0.0867
 9885TIP3   OH253849   2.816   6.702   8.026  0.0355 -0.0054  0.6221
 9885TIP3    H153850   2.768   6.623   8.051 -0.7781 -0.5635 -2.3008
 9885TIP3    H253851   2.754   6.773   8.042 -1.3462 -0.5731 -1.6684
 9886TIP3   OH253852   3.987   2.180   5.839  0.6221  0.3747 -0.0969
 9886TIP3    H153853   3.916   2.128   5.800  1.8982 -3.3131  1.9974
 9886TIP3    H253854   3.942   2.243   5.896 -1.0524 -1.0553  0.2537
 9887TIP3   OH253855   0.108   0.603   7.686  0.0793 -0.1215 -0.3567
 9887TIP3    H153856   0.139   0.688   7.715 -2.4078  0.9087 -0.4384
 9887TIP3    H253857   0.122   0.545   7.761  0.0306  0.8538  0.4223
 9888TIP3   OH253858   5.013   3.315   6.229  0.4941  0.4702  0.3229
 9888TIP3    H153859   5.063   3.385   6.271 -0.4909  0.8930  0.8438
 9888TIP3    H253860   5.016   3.335   6.136  2.6194 -0.4144  0.1521
 9889TIP3   OH253861   5.150   4.467   7.372 -0.2830  0.8460  0.5142
 9889TIP3    H153862   5.202   4.501   7.446 -0.0255  2.5203 -0.3766
 9889TIP3    H253863   5.164   4.531   7.302 -1.1031 -0.3162 -0.7627
 9890TIP3   OH253864   1.459   4.568   6.236  0.8204  0.8002  0.2357
 9890TIP3    H153865   1.515   4.617   6.176  0.2938  0.4481 -0.5582
 9890TIP3    H253866   1.400   4.634   6.273  0.8180  0.9425 -0.0196
 9891TIP3   OH253867   1.141   6.376   7.446 -0.2282 -0.3171  0.0391
 9891TIP3    H153868   1.190   6.294   7.448  0.0644 -0.1458  1.5312
 9891TIP3    H253869   1.081   6.370   7.521 -0.4965  0.6499 -0.0833
 9892TIP3   OH253870   4.947   1.178   8.829 -0.5385  0.2518 -0.2676
 9892TIP3    H153871   5.011   1.124   8.875 -1.5635 -0.4606  0.3730
 9892TIP3    H253872   4.955   1.264   8.869  1.4758  0.7655 -1.6540
 9893TIP3   OH253873   4.695   6.230   9.131 -0.0914  0.2372 -0.0065
 9893TIP3    H153874   4.772   6.249   9.077  1.2333 -0.6330  1.4851
 9893TIP3    H253875   4.657   6.316   9.149  1.0175  0.7649 -0.0967
 9894TIP3   OH253876   0.840   5.658   6.647 -1.0969 -1.2434 -0.2100
 9894TIP3    H153877   0.799   5.738   6.680 -1.0266 -0.4842 -1.8275
 9894TIP3    H253878   0.847   5.601   6.723 -0.5673  0.5243  1.1543
 9895TIP3   OH253879   6.040   4.805   8.034 -0.3583  0.1158  0.2387
 9895TIP3    H153880   6.076   4.882   8.078 -2.2276  0.7594  0.7737
 9895TIP3    H253881   6.093   4.795   7.955 -0.4965  2.4368 -0.2398
 9896TIP3   OH253882   4.084   3.435   8.113  0.1428 -0.2225 -0.2839
 9896TIP3    H153883   4.034   3.357   8.138 -1.3179  0.4904 -0.8527
 9896TIP3    H253884   4.155   3.401   8.059  1.8636 -1.5192  2.5852
 9897TIP3   OH253885   5.614   3.071   7.318  0.1295 -0.1653  0.8506
 9897TIP3    H153886   5.650   3.026   7.394 -1.0609  0.2377  1.6936
 9897TIP3    H253887   5.565   3.004   7.271 -0.6567 -0.0262  1.4563
 9898TIP3   OH253888   4.027   4.419   7.393  0.7222 -0.6369  0.1436
 9898TIP3    H153889   4.107   4.426   7.341  0.3154 -0.3668 -0.4626
 9898TIP3    H253890   3.992   4.333   7.372  0.5101 -0.4917 -0.1009
 9899TIP3   OH253891   5.339   5.965   7.006  0.3942 -0.1877  0.5936
 9899TIP3    H153892   5.281   6.025   6.959  0.8744  0.1226  0.3928
 9899TIP3    H253893   5.338   5.998   7.096 -1.3271 -1.3845  1.0567
 9900TIP3   OH253894   0.568   5.554   6.571 -0.4450  0.1796  0.1500
 9900TIP3    H153895   0.587   5.637   6.528 -0.2221  1.0407  1.8304
 9900TIP3    H253896   0.487   5.570   6.619 -0.6212 -0.7014  0.1596
 9901TIP3   OH253897   2.106   6.730   6.705 -0.2658  0.0040 -0.0379
 9901TIP3    H153898   2.150   6.762   6.783  0.0994  0.1151 -0.2872
 9901TIP3    H253899   2.177   6.696   6.650 -0.5833 -0.6653 -0.0450
 9902TIP3   OH253900   5.552   5.984   5.652  0.1332  0.1766 -0.2447
 9902TIP3    H153901   5.612   6.058   5.641  0.0477  0.0960 -1.4279
 9902TIP3    H253902   5.590   5.914   5.598 -0.6827 -0.0769 -0.5129
 9903TIP3   OH253903   1.764   4.760   7.739  0.3038  0.2366 -0.1654
 9903TIP3    H153904   1.839   4.758   7.680  1.0266 -0.4457  0.7431
 9903TIP3    H253905   1.687   4.761   7.681  0.9199 -2.2098 -1.1422
 9904TIP3   OH253906   0.644   0.908   8.009 -0.3892  0.0662  0.4728
 9904TIP3    H153907   0.626   0.832   7.954  0.1603 -1.3689  2.1678
 9904TIP3    H253908   0.558   0.944   8.029 -0.6116  0.5167 -1.1178
 9905TIP3   OH253909   5.595   2.581   7.027  0.3535  0.4569  0.1862
 9905TIP3    H153910   5.538   2.651   7.058 -0.2458 -0.7391  1.9069
 9905TIP3    H253911   5.538   2.523   6.976  0.4251  0.2018  0.3946
 9906TIP3   OH253912   1.459   1.659   7.675 -0.0670  0.5139  0.1354
 9906TIP3    H153913   1.428   1.666   7.585 -1.7207  2.6638  0.7920
 9906TIP3    H253914   1.470   1.565   7.690 -2.7770 -0.1292 -1.3397
 9907TIP3   OH253915   6.707   5.388   8.341 -0.5932 -0.0926  0.0995
 9907TIP3    H153916   6.620   5.414   8.313 -0.5785 -0.6111 -0.4610
 9907TIP3    H253917   6.696   5.297   8.371 -0.2529 -0.1524  0.0487
 9908TIP3   OH253918   6.505   6.147   8.850 -0.3858 -0.2388 -0.3144
 9908TIP3    H153919   6.495   6.088   8.925  0.7677 -0.6891 -0.4829
 9908TIP3    H253920   6.504   6.089   8.773  0.2010  0.0125 -0.5213
 9909TIP3   OH253921   5.823   5.700   6.808 -0.8126 -0.0382 -0.5465
 9909TIP3    H153922   5.874   5.678   6.731 -1.9500 -0.2383 -1.2645
 9909TIP3    H253923   5.886   5.738   6.869  0.4455 -1.5070 -0.8687
 9910TIP3   OH253924   1.190   6.385   6.570 -0.7189 -0.6650  0.2581
 9910TIP3    H153925   1.193   6.480   6.579 -0.2988 -0.6705  0.1939
 9910TIP3    H253926   1.144   6.355   6.649 -0.3952 -0.4429  0.5368
 9911TIP3   OH253927   3.410   0.279   6.180  0.8189  0.3855 -0.7374
 9911TIP3    H153928   3.410   0.285   6.276  0.0991  0.9687 -0.7636
 9911TIP3    H253929   3.486   0.224   6.160 -0.6047 -2.1231  0.2963
 9912TIP3   OH253930   2.444   6.459   7.216  0.1350  0.2080  0.2649
 9912TIP3    H153931   2.371   6.413   7.256  0.0301 -1.0729 -1.2902
 9912TIP3    H253932   2.503   6.390   7.186  1.7214  1.1984  0.9575
 9913TIP3   OH253933   1.949   5.569   7.916 -0.1050  0.0752 -0.1434
 9913TIP3    H153934   1.952   5.571   8.011  3.4185 -2.1504 -0.0296
 9913TIP3    H253935   1.965   5.660   7.890  1.0136  0.3789  1.4471
 9914TIP3   OH253936   6.206   5.152   6.673 -0.0851 -0.2242 -0.2487
 9914TIP3    H153937   6.251   5.236   6.680 -2.4741  1.0967  0.3518
 9914TIP3    H253938   6.191   5.141   6.579 -0.1828  0.2729 -0.2946
 9915TIP3   OH253939   3.325   0.638   6.247  0.5308  0.2980 -0.3555
 9915TIP3    H153940   3.364   0.698   6.183 -1.0038  0.9603 -0.7284
 9915TIP3    H253941   3.241   0.678   6.268  0.1615 -0.9300  0.6056
 9916TIP3   OH253942   1.826   0.969   6.390 -0.3327  0.3183 -0.5926
 9916TIP3    H153943   1.898   0.960   6.453 -1.6415 -0.6758  0.8338
 9916TIP3    H253944   1.863   0.938   6.307  1.4826  1.7880 -0.4162
 9917TIP3   OH253945   2.648   3.697   9.097 -0.4070 -0.3148 -0.0463
 9917TIP3    H153946   2.665   3.728   9.186 -0.6142 -1.3100  0.3585
 9917TIP3    H253947   2.729   3.716   9.050  0.0165 -0.5344  0.5737
 9918TIP3   OH253948   3.713   5.883   6.686 -0.3850 -0.6374  0.1617
 9918TIP3    H153949   3.783   5.913   6.629 -0.8133  0.9415  0.4100
 9918TIP3    H253950   3.644   5.853   6.627 -1.1449  1.7076 -0.2517
 9919TIP3   OH253951   4.885   0.873   8.239  0.0238  0.0944 -0.1253
 9919TIP3    H153952   4.950   0.849   8.173 -0.8794 -0.9435 -0.6821
 9919TIP3    H253953   4.871   0.967   8.227  1.9985  0.5229  0.5624
 9920TIP3   OH253954   2.043   2.761   6.985 -0.1600 -0.3530 -0.0034
 9920TIP3    H153955   2.046   2.847   7.025  0.8585 -1.2916  2.1225
 9920TIP3    H253956   1.978   2.713   7.036  0.8716 -1.4648  0.3327
 9921TIP3   OH253957   2.266   0.801   7.616 -0.1615  0.5159  0.0038
 9921TIP3    H153958   2.307   0.744   7.681 -0.5466  0.5176  0.2525
 9921TIP3    H253959   2.335   0.819   7.553  0.1760  0.3950  0.3349
 9922TIP3   OH253960   0.808   1.630   6.414  0.4901 -0.7906  0.4666
 9922TIP3    H153961   0.755   1.551   6.418  0.2841 -0.6277  1.0271
 9922TIP3    H253962   0.896   1.602   6.438  0.9397 -1.2810 -1.5460
 9923TIP3   OH253963   0.062   0.307   8.537  0.0916  0.0518  0.0076
 9923TIP3    H153964   0.107   0.272   8.461 -1.3458 -0.3434 -0.6945
 9923TIP3    H253965   0.000   0.371   8.502 -0.8570 -0.4011  0.7766
 9924TIP3   OH253966   4.336   0.015   5.935 -0.1429 -0.5730  0.4963
 9924TIP3    H153967   4.366  -0.020   5.851  0.2869 -1.1313  0.8735
 9924TIP3    H253968   4.248   0.049   5.917 -0.2505 -1.1283 -0.0674
 9925TIP3   OH253969   2.312   4.291   7.932 -0.1725 -0.1491 -0.4441
 9925TIP3    H153970   2.296   4.364   7.872 -2.1219 -0.5323 -0.4473
 9925TIP3    H253971   2.226   4.252   7.946  0.3427 -0.6222  1.9267
 9926TIP3   OH253972   0.744   5.870   7.311 -0.5168 -1.0126  0.1720
 9926TIP3    H153973   0.833   5.903   7.300 -0.5044 -0.8013  0.8295
 9926TIP3    H253974   0.750   5.776   7.291 -0.0455 -1.0945  0.6779
 9927TIP3   OH253975   0.019   3.175   7.380 -0.1259  0.7699  0.0406
 9927TIP3    H153976   0.075   3.238   7.425  0.7357  0.8771 -1.1290
 9927TIP3    H253977  -0.032   3.228   7.319 -0.0268  0.4290 -0.3401
 9928TIP3   OH253978   5.028   2.800   7.410 -0.0767 -0.2464  0.1071
 9928TIP3    H153979   4.972   2.871   7.378  0.5243  0.2837  0.2086
 9928TIP3    H253980   4.976   2.721   7.397 -1.5412  0.3871  1.7838
 9929TIP3   OH253981   4.169   4.296   6.365  0.0101  0.0066  0.0614
 9929TIP3    H153982   4.213   4.361   6.421  1.2255  0.7850 -1.7089
 9929TIP3    H253983   4.128   4.348   6.296 -0.8665 -0.9759 -0.1742
 9930TIP3   OH253984   5.613   5.904   6.761  0.2585 -0.4501  0.5079
 9930TIP3    H153985   5.585   5.855   6.684  3.1085  1.0824 -1.6391
 9930TIP3    H253986   5.679   5.849   6.802  1.1414  0.1594 -0.0734
 9931TIP3   OH253987   4.416   5.443   8.908  0.4155 -0.0613 -0.0621
 9931TIP3    H153988   4.348   5.465   8.971  0.8431 -0.6890  0.6392
 9931TIP3    H253989   4.493   5.491   8.939  0.7638 -0.7766  0.2018
 9932TIP3   OH253990   0.593   5.046   9.131 -0.2037  0.4064  0.1817
 9932TIP3    H153991   0.610   4.970   9.076  1.6902  0.7638  0.1953
 9932TIP3    H253992   0.550   5.011   9.210  0.3950 -0.5998  0.0692
 9933TIP3   OH253993   4.145   0.382   6.886  0.0921 -0.4395  0.1153
 9933TIP3    H153994   4.097   0.400   6.806  1.1619  0.7960 -0.2767
 9933TIP3    H253995   4.096   0.311   6.928 -1.9411  0.6205 -0.3561
 9934TIP3   OH253996   1.056   3.329   7.590 -0.1170  0.4702 -0.1579
 9934TIP3    H153997   1.117   3.313   7.518  0.0111 -0.1567  0.0859
 9934TIP3    H253998   1.038   3.423   7.586 -1.0369  0.2563 -1.7458
 9935TIP3   OH253999   2.970   6.016   7.633  0.2454  0.0966 -0.5223
 9935TIP3    H154000   2.875   6.015   7.635  0.1659  2.3576  1.4854
 9935TIP3    H254001   2.995   5.924   7.645 -1.6104 -0.7161 -2.3005
 9936TIP3   OH254002   0.265   6.331   6.021 -0.2621 -0.5116 -0.1070
 9936TIP3    H154003   0.243   6.411   5.972 -1.0101 -1.0696 -0.7062
 9936TIP3    H254004   0.289   6.267   5.954 -1.3142 -1.2870  0.2298
 9937TIP3   OH254005   4.326   0.980   5.550  0.1850 -0.0223  0.3709
 9937TIP3    H154006   4.361   0.911   5.493  0.3040 -0.3152  0.7945
 9937TIP3    H254007   4.370   1.060   5.521 -1.0854  0.1731 -1.1555
 9938TIP3   OH254008   2.871   4.902   5.575  0.7118  0.3419 -0.5412
 9938TIP3    H154009   2.788   4.885   5.529  0.2167 -0.8065  0.7160
 9938TIP3    H254010   2.868   4.844   5.651  1.8590  1.6340  0.5246
 9939TIP3   OH254011   2.256   4.947   7.999  0.4801 -0.2941  0.2862
 9939TIP3    H154012   2.172   4.915   7.965  0.0748  1.0458 -0.0611
 9939TIP3    H254013   2.244   5.042   8.005  1.6757 -0.1792  1.0930
 9940TIP3   OH254014   2.026   4.224   5.595 -0.1093  0.0832  0.7769
 9940TIP3    H154015   2.055   4.315   5.603  1.0330 -0.3316  1.6338
 9940TIP3    H254016   1.980   4.207   5.677 -1.3416  0.2169  0.1348
 9941TIP3   OH254017   1.161   2.706   8.217  0.2537 -0.1945  0.0066
 9941TIP3    H154018   1.107   2.733   8.143 -0.9838 -0.6976  0.7032
 9941TIP3    H254019   1.250   2.731   8.192 -0.3672  1.1928 -0.9014
 9942TIP3   OH254020   6.001   3.849   7.072 -0.3859  0.3803 -0.1128
 9942TIP3    H154021   5.920   3.882   7.034  1.3033  2.0840 -2.5322
 9942TIP3    H254022   6.002   3.884   7.161 -1.9301  0.9815 -0.3039
 9943TIP3   OH254023   3.979   1.733   5.663 -0.6187  0.2127 -0.6315
 9943TIP3    H154024   3.901   1.748   5.716 -0.6578 -0.3260 -0.5306
 9943TIP3    H254025   3.984   1.810   5.606 -0.8858  0.5306 -0.2298
 9944TIP3   OH254026   5.946   1.523   6.937 -0.2629 -0.0317  0.4455
 9944TIP3    H154027   5.896   1.525   7.019  0.7733 -0.5824  1.1137
 9944TIP3    H254028   5.912   1.448   6.890 -0.5087 -0.0205  0.6044
 9945TIP3   OH254029   0.057   0.185   6.863  0.1210 -0.1448 -0.1318
 9945TIP3    H154030   0.112   0.124   6.815  0.6707 -0.2647  0.6423
 9945TIP3    H254031   0.098   0.270   6.850  0.4543 -0.2237  0.3844
 9946TIP3   OH254032   2.869   4.945   6.088  0.0988 -0.3089  0.6157
 9946TIP3    H154033   2.827   4.993   6.016  1.8999 -0.4273 -0.5661
 9946TIP3    H254034   2.810   4.872   6.105 -1.6445  1.1130  1.0222
 9947TIP3   OH254035   4.749   3.065   6.675 -0.2273 -0.3956  0.3876
 9947TIP3    H154036   4.663   3.101   6.653  0.8587  0.8488 -2.2446
 9947TIP3    H254037   4.793   3.136   6.723  0.4209  0.2537 -1.1084
 9948TIP3   OH254038   5.518   1.085   6.162 -0.8095  0.5601 -0.2841
 9948TIP3    H154039   5.511   1.037   6.079 -0.2491  0.5218 -0.3131
 9948TIP3    H254040   5.436   1.133   6.168 -0.8752  0.5338 -0.8453
 9949TIP3   OH254041   1.650   6.086   6.825  0.3824  0.0787 -0.1160
 9949TIP3    H154042   1.721   6.023   6.814  1.1126  0.7929  0.4029
 9949TIP3    H254043   1.694   6.170   6.835 -0.5115  0.4572  0.7746
 9950TIP3   OH254044   2.298   1.741   8.378  0.3568 -0.3422  0.0027
 9950TIP3    H154045   2.279   1.772   8.467 -0.6864  1.0880 -0.6772
 9950TIP3    H254046   2.382   1.696   8.386 -0.1049 -0.9510  1.8646
 9951TIP3   OH254047   1.257   3.123   6.279 -0.5776 -0.2197  0.3789
 9951TIP3    H154048   1.283   3.178   6.206  1.7158 -0.3379  1.0240
 9951TIP3    H254049   1.310   3.043   6.270 -1.1086 -0.7312  1.5089
 9952TIP3   OH254050   0.982   3.602   7.575 -0.0734  0.2316  0.2382
 9952TIP3    H154051   0.966   3.626   7.484 -1.9226  2.9206  1.1404
 9952TIP3    H254052   1.067   3.640   7.596  0.5181 -0.6977 -0.4276
 9953TIP3   OH254053   4.153   2.398   5.848  0.0134  0.1390 -0.1875
 9953TIP3    H154054   4.110   2.313   5.857  2.3098 -1.1091 -0.0710
 9953TIP3    H254055   4.125   2.430   5.762 -1.1672 -0.5487 -0.0876
 9954TIP3   OH254056   0.724   3.437   7.848 -0.3065 -0.1407 -0.4760
 9954TIP3    H154057   0.714   3.362   7.907 -0.7749  0.9819  0.9276
 9954TIP3    H254058   0.645   3.489   7.861  0.2610  0.8827 -1.0047
 9955TIP3   OH254059   5.190   0.977   7.945  0.0760 -0.4297  0.3563
 9955TIP3    H154060   5.225   0.995   8.032  1.2062  1.6739 -0.4566
 9955TIP3    H254061   5.259   0.927   7.902  1.4695  2.1654 -0.6469
 9956TIP3   OH254062   3.031   0.456   7.041  0.0784 -0.0361  0.1015
 9956TIP3    H154063   3.119   0.431   7.067  0.2686  1.1392  0.6616
 9956TIP3    H254064   2.974   0.417   7.108  0.2913  0.2502  0.4550
 9957TIP3   OH254065   3.983   0.008   7.593 -0.0249  0.1120 -0.4497
 9957TIP3    H154066   4.044  -0.066   7.596 -0.3163 -0.1008  1.1224
 9957TIP3    H254067   3.897  -0.033   7.590 -0.2387  0.3083  1.4429
 9958TIP3   OH254068   1.224   1.804   7.247 -0.1223  0.2374  0.0786
 9958TIP3    H154069   1.219   1.717   7.207 -0.3811  0.4135 -0.2784
 9958TIP3    H254070   1.137   1.842   7.234 -0.3926  0.0777  1.3295
 9959TIP3   OH254071   1.217   6.672   6.624 -0.2724 -0.3405  0.3528
 9959TIP3    H154072   1.198   6.708   6.711  0.2956  0.0901  0.3052
 9959TIP3    H254073   1.259   6.744   6.577 -1.1290 -0.3613 -0.4953
 9960TIP3   OH254074   1.861   6.526   9.049  0.4370  0.4851  0.0192
 9960TIP3    H154075   1.852   6.564   9.137  0.2559 -0.5197  0.4565
 9960TIP3    H254076   1.772   6.506   9.022  0.4979  0.7388 -0.3707
 9961TIP3   OH254077   4.129   0.166   7.814  0.5213  0.4576 -0.3328
 9961TIP3    H154078   4.101   0.124   7.732  1.3713  1.2577 -1.0518
 9961TIP3    H254079   4.060   0.145   7.876  0.1254 -0.6377 -1.1043
 9962TIP3   OH254080   0.831   1.141   9.435  0.3925  0.3391 -0.0090
 9962TIP3    H154081   0.743   1.150   9.471 -0.4151  0.9044 -2.0103
 9962TIP3    H254082   0.865   1.231   9.432  0.7238  0.2157 -0.0247
 9963TIP3   OH254083   3.462   6.694   6.795 -0.5394  0.6000 -0.1779
 9963TIP3    H154084   3.409   6.743   6.858  0.0981  0.4469  0.4890
 9963TIP3    H254085   3.399   6.642   6.746 -1.0071  0.3784  0.6437
 9964TIP3   OH254086   5.133   2.506   7.568 -0.5972  0.0773 -0.1015
 9964TIP3    H154087   5.114   2.600   7.564  1.0300  0.5104  1.3762
 9964TIP3    H254088   5.147   2.488   7.661 -2.3351 -1.9760 -0.1433
 9965TIP3   OH254089   5.618   5.019   6.741  0.3406  0.7126 -0.5473
 9965TIP3    H154090   5.711   5.011   6.719  0.8583  0.0645  1.6238
 9965TIP3    H254091   5.604   5.113   6.752  0.6280  0.8458 -1.2701
 9966TIP3   OH254092   6.581   1.536   6.145 -0.0897 -0.1312  1.1718
 9966TIP3    H154093   6.486   1.532   6.144 -0.1343  0.5236 -0.9347
 9966TIP3    H254094   6.607   1.457   6.192 -1.6549 -1.7960 -0.5647
 9967TIP3   OH254095   2.111   2.662   6.454 -0.0261 -0.3126 -1.0204
 9967TIP3    H154096   2.177   2.618   6.507 -1.4786  0.2988  1.4206
 9967TIP3    H254097   2.125   2.628   6.365  1.4987 -2.5651 -0.0033
 9968TIP3   OH254098   4.946   0.894   7.558 -0.2393  0.3567 -0.7006
 9968TIP3    H154099   4.932   0.935   7.643 -0.6725  1.3092 -1.2160
 9968TIP3    H254100   4.903   0.809   7.565 -0.6951  0.6290 -0.1332
 9969TIP3   OH254101   3.125   6.396   8.216  0.6604  0.2708  0.0168
 9969TIP3    H154102   3.108   6.475   8.266  0.3240  0.6720 -0.7091
 9969TIP3    H254103   3.080   6.410   8.133 -0.0521 -1.0208  0.1643
 9970TIP3   OH254104   3.185   3.235   6.316  0.7633  0.5398  0.5130
 9970TIP3    H154105   3.225   3.176   6.380  2.3939  1.7035  0.6457
 9970TIP3    H254106   3.137   3.178   6.257 -1.1891 -0.5594  2.9729
 9971TIP3   OH254107   5.184   2.970   8.130  0.0147 -0.3420 -0.7250
 9971TIP3    H154108   5.192   2.925   8.045  0.4744 -0.6965 -0.4968
 9971TIP3    H254109   5.176   2.899   8.194  0.1773 -0.0829 -0.4175
 9972TIP3   OH254110   3.815   0.885   7.788 -0.1204 -0.6512  0.3471
 9972TIP3    H154111   3.871   0.918   7.718 -2.0282 -0.9754 -1.4413
 9972TIP3    H254112   3.864   0.813   7.827  2.1234  1.2136  1.1901
 9973TIP3   OH254113   0.441   6.533   8.422 -0.5633 -0.4177 -0.4801
 9973TIP3    H154114   0.457   6.610   8.368 -3.5331  0.1194 -0.7276
 9973TIP3    H254115   0.478   6.460   8.372  2.2035  0.7240 -0.2851
 9974TIP3   OH254116   4.667   3.660   7.638  0.0587  0.2032  0.6712
 9974TIP3    H154117   4.690   3.595   7.571  2.1649 -1.5754  2.9137
 9974TIP3    H254118   4.590   3.704   7.603 -0.6671 -2.5607 -1.6427
 9975TIP3   OH254119   1.992   1.026   9.213  0.4784 -0.0743 -0.2238
 9975TIP3    H154120   1.907   0.985   9.226  0.8732 -0.9242 -0.2028
 9975TIP3    H254121   2.042   0.961   9.164  1.0182  0.5361 -0.4920
 9976TIP3   OH254122   4.466   5.814   9.288 -0.4447 -0.0817  0.2036
 9976TIP3    H154123   4.516   5.895   9.299 -0.5285 -0.2567  2.2094
 9976TIP3    H254124   4.516   5.749   9.336 -1.4191 -0.7780  0.3007
 9977TIP3   OH254125   3.295   0.338   7.166 -0.0536  0.1921  0.2638
 9977TIP3    H154126   3.363   0.405   7.159 -0.4902  0.5316 -0.9791
 9977TIP3    H254127   3.338   0.257   7.139 -0.2239  0.4738 -0.8930
 9978TIP3   OH254128   1.737   5.665   5.819  0.1429 -0.2953 -0.5147
 9978TIP3    H154129   1.775   5.740   5.773  1.7600  0.1252  1.3404
 9978TIP3    H254130   1.684   5.704   5.889  1.0285 -0.8506  0.4953
 9979TIP3   OH254131   2.611   1.060   7.650  0.3007 -0.1041  0.6783
 9979TIP3    H154132   2.645   1.008   7.577  0.0999 -1.6139  1.6097
 9979TIP3    H254133   2.547   1.119   7.610  1.1621  0.0401 -0.5395
 9980TIP3   OH254134   3.639   1.100   6.879 -0.2055  0.4130 -0.7674
 9980TIP3    H154135   3.549   1.104   6.845 -0.3120 -0.8642 -0.6683
 9980TIP3    H254136   3.631   1.053   6.962  0.6631 -0.4252 -1.1521
 9981TIP3   OH254137   1.936   5.799   6.129  0.1702  0.3671 -0.4821
 9981TIP3    H154138   1.932   5.895   6.133 -1.3757  0.4322 -2.1332
 9981TIP3    H254139   2.011   5.781   6.073  0.8786  0.5685  0.3810
 9982TIP3   OH254140   1.257   2.645   6.248  0.4299 -0.3387 -0.3153
 9982TIP3    H154141   1.167   2.661   6.219 -0.1322 -2.0986  0.2866
 9982TIP3    H254142   1.266   2.549   6.243  1.9333 -0.2637  0.5979
 9983TIP3   OH254143   0.806   5.171   6.203 -0.1416  0.2629 -0.1883
 9983TIP3    H154144   0.805   5.257   6.246 -3.4773  0.4350 -0.2876
 9983TIP3    H254145   0.790   5.191   6.111  2.7993 -0.3561 -0.9309
 9984TIP3   OH254146   1.454   6.405   5.993  0.2165 -0.0226  0.2955
 9984TIP3    H154147   1.406   6.487   6.006 -1.5140 -0.7187 -1.3609
 9984TIP3    H254148   1.437   6.381   5.902  2.8627 -0.8962 -0.0619
 9985TIP3   OH254149   2.125   3.429   7.818  0.6990  0.0226  0.0322
 9985TIP3    H154150   2.067   3.474   7.879  1.2961  0.4010  0.3261
 9985TIP3    H254151   2.078   3.350   7.794  0.0355  0.3534  0.2218
 9986TIP3   OH254152   4.119   1.245   8.259  0.0830  0.0730  0.2669
 9986TIP3    H154153   4.129   1.193   8.180 -1.1901 -0.2551  0.2893
 9986TIP3    H254154   4.207   1.254   8.294  0.7888  1.0224 -1.6745
 9987TIP3   OH254155   0.404   5.561   7.528  0.6339  0.3036  0.0256
 9987TIP3    H154156   0.371   5.618   7.458  0.4437 -0.1028 -0.2205
 9987TIP3    H254157   0.336   5.496   7.540  0.2688  0.8943  1.2298
 9988TIP3   OH254158   1.768   5.090   7.141  0.4762  0.0682 -0.1231
 9988TIP3    H154159   1.852   5.136   7.149  0.3139  0.9273 -2.7670
 9988TIP3    H254160   1.702   5.159   7.138 -0.0781 -0.4774 -0.7641
 9989TIP3   OH254161   0.209   5.832   8.533 -0.2170 -0.0178  0.7485
 9989TIP3    H154162   0.156   5.898   8.578 -1.3212 -0.4273  0.0766
 9989TIP3    H254163   0.251   5.879   8.461 -0.4817  0.0953  0.6671
 9990TIP3   OH254164   5.855   5.293   6.390  0.4530 -0.6209  0.4243
 9990TIP3    H154165   5.874   5.293   6.484  1.7165 -0.4974  0.1909
 9990TIP3    H254166   5.761   5.275   6.385  0.3246 -0.4621  1.7123
 9991TIP3   OH254167   5.570   2.554   5.938 -0.1390 -0.2161  0.6860
 9991TIP3    H154168   5.487   2.582   5.901  0.2183 -0.8546 -0.6581
 9991TIP3    H254169   5.569   2.587   6.028 -1.0268  1.3863  0.1125
 9992TIP3   OH254170   0.889   5.690   8.487  0.4260 -0.4867  0.2136
 9992TIP3    H154171   0.864   5.706   8.578  3.0266 -1.0656  1.1128
 9992TIP3    H254172   0.882   5.595   8.476  1.4210 -0.5785  0.2685
 9993TIP3   OH254173   4.747   4.819   6.182  0.1215  0.3075 -1.1582
 9993TIP3    H154174   4.691   4.748   6.152  0.9907 -0.4137 -1.1131
 9993TIP3    H254175   4.775   4.864   6.102 -1.0069  1.0708 -1.1470
 9994TIP3   OH254176   2.130   4.704   8.606 -0.0221  0.2398 -0.3471
 9994TIP3    H154177   2.113   4.636   8.540 -3.5862  0.8479 -0.2760
 9994TIP3    H254178   2.129   4.786   8.557  0.1803  0.5103  0.0980
 9995TIP3   OH254179   4.528   6.244   8.010 -0.6055  0.1398 -0.5148
 9995TIP3    H154180   4.560   6.322   7.965 -0.9222  0.5279 -0.0780
 9995TIP3    H254181   4.433   6.253   8.011 -0.5995  0.2463  0.4080
 9996TIP3   OH254182   5.428   5.106   8.750  0.3985  0.2606 -0.1811
 9996TIP3    H154183   5.517   5.141   8.745  1.4614 -2.2201  0.2621
 9996TIP3    H254184   5.425   5.038   8.683 -0.5066 -1.0313  1.1125
 9997TIP3   OH254185   2.187   1.478   8.920 -0.1723 -0.0715 -0.3976
 9997TIP3    H154186   2.279   1.490   8.894 -0.7944  2.4566 -1.7270
 9997TIP3    H254187   2.165   1.390   8.887  1.8461 -0.9170  0.3378
 9998TIP3   OH254188   3.981   5.616   6.601  0.4284 -0.1495 -0.1866
 9998TIP3    H154189   4.053   5.679   6.608  0.6430 -0.3703 -0.3847
 9998TIP3    H254190   3.922   5.655   6.536  0.3724  0.0289 -0.0286
 9999TIP3   OH254191   3.378   5.513   7.405 -0.1623 -0.2987  0.4213
 9999TIP3    H154192   3.456   5.474   7.368  0.3861  0.4962  0.7110
 9999TIP3    H254193   3.408   5.596   7.442 -1.0167 -0.2871  1.1189
10000TIP3   OH254194   3.340   5.720   8.143  0.5586 -0.0032 -0.2132
10000TIP3    H154195   3.340   5.778   8.068  0.6327 -1.1405 -1.1246
10000TIP3    H254196   3.391   5.766   8.210 -0.0968  1.3166 -0.6049
10001TIP3   OH254197   1.332   0.934   6.222 -0.0979  0.2202 -0.3231
10001TIP3    H154198   1.398   0.876   6.259 -2.1817 -1.3027  1.2732
10001TIP3    H254199   1.325   0.908   6.131  0.7650 -0.2819 -0.2606
10002TIP3   OH254200   3.773   4.981   7.760  0.1231  0.0959 -0.8051
10002TIP3    H154201   3.764   4.887   7.773 -0.3384  0.3184  0.7824
10002TIP3    H254202   3.833   5.009   7.829  1.1017  0.8356 -1.9202
10003TIP3   OH254203   1.002   5.425   8.678  0.2289 -0.0022 -0.2744
10003TIP3    H154204   1.005   5.497   8.741 -2.6644  1.8366 -2.0429
10003TIP3    H254205   0.939   5.364   8.716  0.2598 -0.0597 -0.3157
10004TIP3   OH254206   0.937   6.048   5.566  0.1451  0.0442  0.0146
10004TIP3    H154207   0.981   6.116   5.514  0.2889 -1.1325 -1.4400
10004TIP3    H254208   0.993   6.038   5.643  0.9557  0.5057 -0.4951
10005TIP3   OH254209   4.304   0.223   6.481 -0.1361  0.0651  0.6589
10005TIP3    H154210   4.291   0.149   6.422  0.6037 -1.0783  1.8782
10005TIP3    H254211   4.222   0.230   6.530 -1.3330  1.9724 -1.4529
10006TIP3   OH254212   3.864   5.875   9.499 -0.0027  0.6439  0.0103
10006TIP3    H154213   3.900   5.892   9.411  0.6285 -0.9058 -0.0570
10006TIP3    H254214   3.791   5.936   9.506 -0.2182  0.6511 -1.6951
10007TIP3   OH254215   3.049   3.571   6.800  0.2912 -0.2896  0.1831
10007TIP3    H154216   3.005   3.656   6.796 -0.0872 -0.2584  2.8707
10007TIP3    H254217   3.140   3.591   6.779  0.2218  0.8447  0.8373
10008TIP3   OH254218   0.020   6.526   6.244 -0.0083 -0.1606  0.0769
10008TIP3    H154219  -0.054   6.520   6.304 -0.4424 -1.2927 -0.5519
10008TIP3    H254220  -0.007   6.476   6.167  0.5332  1.2602 -1.0769
10009TIP3   OH254221   4.143   2.010   7.230  0.2612 -0.1522 -0.4592
10009TIP3    H154222   4.230   2.005   7.270 -0.8237  0.0589  2.1283
10009TIP3    H254223   4.144   2.093   7.181  1.4057 -0.0114 -0.2371
10010TIP3   OH254224   3.435   0.238   6.451  0.3972  0.4851  0.1405
10010TIP3    H154225   3.477   0.222   6.535 -0.1210 -0.3167  0.2632
10010TIP3    H254226   3.414   0.150   6.418 -1.2662  0.8537  0.1407
10011TIP3   OH254227   5.043   4.231   6.907 -0.0503 -0.2288  0.2962
10011TIP3    H154228   5.092   4.312   6.916 -0.3213 -0.0665  0.3026
10011TIP3    H254229   4.966   4.254   6.855  0.6140 -0.7790 -0.9945
10012TIP3   OH254230   2.606   6.438   5.996 -0.8519  0.0174 -0.0382
10012TIP3    H154231   2.607   6.529   5.965 -1.3732  0.1228  0.2591
10012TIP3    H254232   2.690   6.403   5.965  0.0466  1.0315  1.1379
10013TIP3   OH254233   0.311   5.496   9.117 -0.4371 -0.1590 -0.6576
10013TIP3    H154234   0.275   5.426   9.172  0.1937  0.8769  1.1849
10013TIP3    H254235   0.398   5.465   9.094  0.6813  0.7984  1.9114
10014TIP3   OH254236   2.014   4.569   7.870  0.6769  0.2994 -0.2931
10014TIP3    H154237   2.086   4.531   7.822  0.9540 -1.5858  1.4603
10014TIP3    H254238   1.935   4.536   7.827  0.8624  0.7360 -0.9825
10015TIP3   OH254239   3.055   1.727   9.129  0.2977 -0.1480 -0.0664
10015TIP3    H154240   3.094   1.690   9.209  2.4765  0.0506 -0.9730
10015TIP3    H254241   2.963   1.740   9.151  1.0091  0.7916  2.7545
10016TIP3   OH254242   2.981   0.371   6.768 -0.9259 -0.5847  0.5813
10016TIP3    H154243   2.950   0.462   6.767  1.9394  0.4853 -0.0978
10016TIP3    H254244   3.027   0.363   6.852 -1.3529 -1.5308  0.7419
10017TIP3   OH254245   5.178   3.426   6.998  0.3231 -0.1004  0.1735
10017TIP3    H154246   5.202   3.410   6.906  1.6423  0.5322  0.3832
10017TIP3    H254247   5.171   3.338   7.036  0.2668 -0.3552 -0.4093
10018TIP3   OH254248   1.710   4.737   5.228  0.2564 -0.8898  0.0224
10018TIP3    H154249   1.733   4.695   5.145  2.1260 -1.0657  0.5824
10018TIP3    H254250   1.646   4.678   5.268 -0.6128 -0.8433 -1.2316
10019TIP3   OH254251   2.763   0.996   7.128  0.0621  0.3511  0.3431
10019TIP3    H154252   2.819   0.923   7.153  2.3811  2.6826  2.6300
10019TIP3    H254253   2.738   0.978   7.037  1.4392 -2.6702  0.4634
10020TIP3   OH254254   5.654   4.140   6.512 -0.2192  0.0628 -0.8424
10020TIP3    H154255   5.717   4.162   6.580 -1.7189  2.7030 -0.1619
10020TIP3    H254256   5.578   4.108   6.560 -0.8770  0.8716 -1.3119
10021TIP3   OH254257   5.438   6.171   8.880 -0.0128 -0.1300 -0.0981
10021TIP3    H154258   5.476   6.238   8.822 -0.1359  0.1516  0.1417
10021TIP3    H254259   5.485   6.091   8.857  3.4879  0.8506  2.7014
10022TIP3   OH254260   5.143   1.060   6.953 -0.2204 -0.2656 -0.3484
10022TIP3    H154261   5.052   1.054   6.984  0.2246 -0.8157  0.9151
10022TIP3    H254262   5.158   1.154   6.945 -0.2712 -0.0725  1.4577
10023TIP3   OH254263   4.161   0.197   8.413 -0.1470  0.3870  0.6864
10023TIP3    H154264   4.075   0.190   8.370  0.3724  1.1198 -0.5134
10023TIP3    H254265   4.146   0.254   8.487 -0.9916 -0.6297  1.3328
10024TIP3   OH254266   2.388   3.627   6.324  0.6357 -0.4696 -0.4980
10024TIP3    H154267   2.478   3.594   6.315 -0.2912 -2.8792 -1.7789
10024TIP3    H254268   2.357   3.636   6.234 -1.2270 -2.2210 -0.1003
10025TIP3   OH254269   5.963   0.676   7.414 -0.1467 -0.7863  0.3172
10025TIP3    H154270   5.915   0.617   7.356  1.4288 -0.8049 -1.0173
10025TIP3    H254271   6.054   0.650   7.406  0.2818  0.1513  1.7229
10026TIP3   OH254272   6.216   1.481   6.420  0.7391 -0.0645  0.4529
10026TIP3    H154273   6.263   1.538   6.480  1.1760 -1.4511  1.4746
10026TIP3    H254274   6.254   1.499   6.334  0.4706  1.5640  0.6414
10027TIP3   OH254275   6.088   6.332   6.479 -0.5235  0.1615 -0.1632
10027TIP3    H154276   6.108   6.286   6.397 -0.8711  1.8293 -1.2347
10027TIP3    H254277   6.009   6.290   6.512 -0.8563 -0.0077 -1.1378
10028TIP3   OH254278   6.182   0.917   7.338  0.3312  0.3404 -0.1074
10028TIP3    H154279   6.104   0.973   7.338  0.3310  0.3994  2.0900
10028TIP3    H254280   6.151   0.833   7.305 -0.5099  0.5672  0.0621
10029TIP3   OH254281   4.011   5.180   6.285  0.4025 -0.1933  0.0272
10029TIP3    H154282   3.920   5.164   6.261  0.1188  0.8790  0.3346
10029TIP3    H254283   4.011   5.184   6.381  0.0694  3.3012  0.0233
10030TIP3   OH254284   5.211   1.795   7.336  0.4935 -0.4687  0.0301
10030TIP3    H154285   5.194   1.862   7.403  1.2623 -0.3377  0.1054
10030TIP3    H254286   5.236   1.846   7.258 -1.0605 -0.5895 -0.5785
10031TIP3   OH254287   4.638   5.756   6.795 -0.4799 -0.1904  0.5438
10031TIP3    H154288   4.589   5.721   6.868 -2.8101 -0.8863 -1.2256
10031TIP3    H254289   4.692   5.683   6.764  0.6242  0.1509  1.6065
10032TIP3   OH254290   2.198   1.122   5.869  0.3374 -0.1601 -0.4478
10032TIP3    H154291   2.240   1.103   5.952 -1.2677  0.0739  0.4672
10032TIP3    H254292   2.183   1.217   5.871  0.9615 -0.0302 -1.3529
10033TIP3   OH254293   2.795   5.973   9.002  0.5098 -0.2078  0.2413
10033TIP3    H154294   2.835   5.907   9.058  3.0555 -0.5743 -1.8636
10033TIP3    H254295   2.718   5.930   8.964  1.8100 -1.8188 -0.6619
10034TIP3   OH254296   2.140   1.211   8.828  0.1652  0.0031 -0.5953
10034TIP3    H154297   2.096   1.128   8.814 -0.4041  0.0519  0.8261
10034TIP3    H254298   2.209   1.192   8.891  0.6077  0.4266 -0.9460
10035TIP3   OH254299   5.578   3.897   6.064  0.1230  0.0869 -0.3095
10035TIP3    H154300   5.556   3.842   6.139 -0.1920  0.4517 -0.1298
10035TIP3    H254301   5.589   3.985   6.101  1.4038  0.0103 -0.4774
10036TIP3   OH254302   6.368   2.458   6.420 -0.0164 -0.7085  0.0555
10036TIP3    H154303   6.462   2.472   6.428 -0.1023 -0.4225  0.6608
10036TIP3    H254304   6.354   2.434   6.328  0.4762  0.6672 -0.4021
10037TIP3   OH254305   4.210   0.327   8.833  0.0887  0.4973 -0.8209
10037TIP3    H154306   4.252   0.243   8.848  0.1430  0.8856  1.6520
10037TIP3    H254307   4.273   0.391   8.867 -1.2911  1.2735  0.3828
10038TIP3   OH254308   6.406   5.640   6.432  0.1673 -0.3319 -0.4763
10038TIP3    H154309   6.455   5.569   6.391 -0.7084 -0.4448 -1.3886
10038TIP3    H254310   6.469   5.684   6.488  0.6658 -1.9974  0.3323
10039TIP3   OH254311   1.075   2.192   7.758 -0.2413 -0.0959  0.3018
10039TIP3    H154312   1.044   2.282   7.747 -0.5415 -0.3360 -1.0322
10039TIP3    H254313   1.056   2.150   7.674  0.2199 -1.3094  0.7829
10040TIP3   OH254314   3.701   5.623   9.450 -0.1344  0.4753  0.1591
10040TIP3    H154315   3.622   5.661   9.486  0.2699 -1.6271  3.7583
10040TIP3    H254316   3.773   5.670   9.494  0.4234 -1.2939  1.2402
10041TIP3   OH254317   0.545   5.716   8.567 -0.3796  0.0948 -0.3514
10041TIP3    H154318   0.573   5.629   8.596  0.1779  0.4783  0.2750
10041TIP3    H254319   0.533   5.707   8.472  1.3945 -0.2146 -0.5718
10042TIP3   OH254320   4.642   4.185   6.173  0.0319  0.1891 -0.5224
10042TIP3    H154321   4.685   4.132   6.239 -0.1858 -0.1633 -0.6578
10042TIP3    H254322   4.626   4.269   6.216 -1.5153 -0.5314  0.4084
10043TIP3   OH254323   6.536   3.624   7.479  0.2074 -0.2927 -0.5550
10043TIP3    H154324   6.621   3.645   7.441  0.3740  0.9942  0.4429
10043TIP3    H254325   6.556   3.567   7.553  0.2276  0.1081 -0.2465
10044TIP3   OH254326   3.732   5.083   8.832 -0.0838 -0.2236  0.2276
10044TIP3    H154327   3.803   5.147   8.833  1.6335 -2.0237  0.9682
10044TIP3    H254328   3.743   5.036   8.749  0.4512 -1.3670  0.9211
10045TIP3   OH254329   0.743   5.318   6.638  0.5344  0.0786  0.1673
10045TIP3    H154330   0.700   5.402   6.623 -1.4438 -0.5762  1.6595
10045TIP3    H254331   0.706   5.261   6.570 -1.2310 -0.5233  1.5417
10046TIP3   OH254332   3.958   1.323   6.008  0.2375 -0.3065  0.3402
10046TIP3    H154333   3.910   1.266   5.947 -2.2106 -0.3572  2.1576
10046TIP3    H254334   4.002   1.262   6.068 -0.3528 -0.3062  0.7864
10047TIP3   OH254335   2.430   2.264   6.718  0.2134 -0.0091 -0.5680
10047TIP3    H154336   2.463   2.275   6.807 -0.6448  0.0151 -0.2434
10047TIP3    H254337   2.402   2.352   6.691  1.1341  0.1175 -1.1342
10048TIP3   OH254338   0.443   4.212   7.893 -0.2881  0.4392 -0.2318
10048TIP3    H154339   0.507   4.184   7.959 -0.4918 -0.0705 -0.2527
10048TIP3    H254340   0.474   4.299   7.866  0.3093  0.2597 -0.1312
10049TIP3   OH254341   0.170   6.719   8.705 -0.0194  0.0019  0.1746
10049TIP3    H154342   0.237   6.663   8.744  1.4431  0.9512 -0.8479
10049TIP3    H254343   0.192   6.807   8.737 -1.6590  0.1485  0.9547
10050TIP3   OH254344   3.444   1.208   7.269  0.5571  0.1212 -0.1298
10050TIP3    H154345   3.454   1.252   7.184 -0.6016 -0.3145 -0.5143
10050TIP3    H254346   3.534   1.199   7.302  0.8487  2.8372  0.0340
10051TIP3   OH254347   6.053   6.025   5.594 -0.6316 -0.2452 -0.0442
10051TIP3    H154348   6.134   5.975   5.607 -0.5217  0.2606  1.4607
10051TIP3    H254349   6.065   6.103   5.649 -1.6215  0.4661 -0.8046
10052TIP3   OH254350   5.680   5.055   7.287 -0.4945  0.1085 -0.3905
10052TIP3    H154351   5.612   5.039   7.353 -1.1118  1.2125 -0.7278
10052TIP3    H254352   5.762   5.054   7.336 -0.8308 -0.3555  0.1779
10053TIP3   OH254353   5.587   1.471   7.003  0.2735  0.2632 -0.3407
10053TIP3    H154354   5.648   1.467   6.930  0.5535  2.1906 -0.2469
10053TIP3    H254355   5.501   1.480   6.961  0.0717 -1.7246 -0.4537
10054TIP3   OH254356   2.668   6.016   6.546 -0.3063 -0.1744 -0.2425
10054TIP3    H154357   2.657   6.072   6.622  1.2579 -0.1647  0.0223
10054TIP3    H254358   2.729   5.948   6.575 -0.7342 -0.9385 -1.0930
10055TIP3   OH254359   3.447   4.244   8.539 -0.2095 -0.5471  0.2290
10055TIP3    H154360   3.444   4.296   8.458  0.1850 -1.3053 -0.2823
10055TIP3    H254361   3.482   4.305   8.604 -2.5309  0.7380  0.3876
10056TIP3   OH254362   5.895   1.256   7.060  0.1488  0.6383  0.2040
10056TIP3    H154363   5.822   1.194   7.063  0.1325  0.7033  1.2776
10056TIP3    H254364   5.912   1.268   6.966 -1.3204  0.7426 -0.0698
10057TIP3   OH254365   2.829   6.149   6.354 -0.5681  0.0229  0.3214
10057TIP3    H154366   2.871   6.069   6.320 -1.0099  0.8213 -2.2881
10057TIP3    H254367   2.779   6.118   6.430  0.1343 -1.9832  0.0482
10058TIP3   OH254368   5.300   5.993   8.605  0.0618  0.6115 -0.2522
10058TIP3    H154369   5.302   5.929   8.676 -1.1222  0.5174 -0.2770
10058TIP3    H254370   5.229   5.964   8.548  2.5463 -0.7402 -2.8936
10059TIP3   OH254371   0.480   1.564   6.946 -0.3599 -0.2897  0.2074
10059TIP3    H154372   0.422   1.618   7.000  0.2253  1.2901 -0.6786
10059TIP3    H254373   0.430   1.484   6.929 -1.5565  0.2793  0.9367
10060TIP3   OH254374   0.601   0.788   8.736  0.0384  0.0461 -0.1649
10060TIP3    H154375   0.635   0.705   8.770  0.3222  0.4565  0.5799
10060TIP3    H254376   0.548   0.763   8.660  0.3907 -0.7835 -0.1498
10061TIP3   OH254377   4.079   4.020   7.450  0.3083 -0.1060 -0.1156
10061TIP3    H154378   4.029   3.942   7.472  0.3272 -0.1583 -0.2607
10061TIP3    H254379   4.167   3.988   7.433  0.4571  0.0181  0.4012
10062TIP3   OH254380   4.921   1.514   8.902  0.3918  0.2628 -0.3219
10062TIP3    H154381   5.003   1.560   8.919 -1.0545  2.6080  0.9199
10062TIP3    H254382   4.914   1.511   8.807  1.2898  1.2977 -0.4404
10063TIP3   OH254383   3.916   5.130   7.580 -0.5432  0.1054 -0.5812
10063TIP3    H154384   3.857   5.060   7.610  0.1802 -0.0822  0.4772
10063TIP3    H254385   3.923   5.188   7.656  0.1775  0.4415 -0.9013
10064TIP3   OH254386   2.564   2.128   7.515  0.2746  0.3280 -0.0907
10064TIP3    H154387   2.592   2.037   7.529  0.6357  0.6837  1.8996
10064TIP3    H254388   2.484   2.122   7.464  0.0378 -1.1492  0.4181
10065TIP3   OH254389   3.027   5.796   7.415  0.4698  0.1964 -0.5714
10065TIP3    H154390   3.037   5.890   7.428  1.5206 -0.0606  0.6985
10065TIP3    H254391   2.947   5.774   7.464  1.2341  0.1641  0.7131
10066TIP3   OH254392   1.063   3.970   5.954 -0.2760  0.2557  0.1110
10066TIP3    H154393   1.149   3.929   5.965 -0.0314  0.4521 -1.0142
10066TIP3    H254394   1.001   3.899   5.969  0.1001 -0.0604  0.2016
10067TIP3   OH254395   1.743   5.039   6.394  0.2152 -0.0336 -0.1289
10067TIP3    H154396   1.682   4.999   6.333  0.8127  0.1019 -0.8297
10067TIP3    H254397   1.828   5.034   6.350  0.6120  0.3066  0.5765
10068TIP3   OH254398   1.768   3.000   5.861 -0.2957 -0.1832 -0.0166
10068TIP3    H154399   1.785   3.044   5.778  1.9803 -0.7229  0.0742
10068TIP3    H254400   1.772   3.069   5.927 -0.2415 -0.0225 -0.1883
10069TIP3   OH254401   4.387   0.239   7.839  0.6168 -0.1831 -0.3310
10069TIP3    H154402   4.314   0.178   7.827  0.8599 -0.4022 -0.7426
10069TIP3    H254403   4.353   0.306   7.898  0.3137 -0.6673  0.0526
10070TIP3   OH254404   3.540   0.586   9.032 -0.1953 -0.2730  0.0696
10070TIP3    H154405   3.578   0.599   9.119 -0.1961 -0.1813  0.0563
10070TIP3    H254406   3.612   0.605   8.972 -0.0778 -0.7269  0.0581
10071TIP3   OH254407   4.653   3.656   7.179 -0.6963 -0.7206 -0.1764
10071TIP3    H154408   4.561   3.676   7.160 -0.8108 -1.1881 -0.1456
10071TIP3    H254409   4.701   3.735   7.155 -1.3447  0.4136  2.0162
10072TIP3   OH254410   1.261   4.535   5.387 -0.0784 -0.8039  0.4785
10072TIP3    H154411   1.275   4.502   5.476  0.0058  2.3245  1.7408
10072TIP3    H254412   1.166   4.546   5.380  0.0428  0.7853  0.9657
10073TIP3   OH254413   3.791   1.732   7.619  0.1685 -0.5333 -0.2416
10073TIP3    H154414   3.784   1.664   7.686 -1.0750 -0.1663  0.0232
10073TIP3    H254415   3.703   1.768   7.612  0.8340  1.2049 -0.2185
10074TIP3   OH254416   2.102   4.821   9.330  0.1223 -0.2577 -0.4194
10074TIP3    H154417   2.133   4.739   9.291 -0.8747 -0.1006 -1.6008
10074TIP3    H254418   2.008   4.821   9.314 -0.2034  0.2062  1.3287
10075TIP3   OH254419   0.638   3.638   6.644 -0.2704  0.4285 -0.5465
10075TIP3    H154420   0.673   3.584   6.715 -1.7428  0.1304 -0.0173
10075TIP3    H254421   0.713   3.655   6.587  1.1280  1.3655  1.4811
10076TIP3   OH254422   4.588   0.986   6.147 -0.0138  0.2255 -0.3883
10076TIP3    H154423   4.613   1.033   6.226 -0.4918  2.1198 -1.3060
10076TIP3    H254424   4.517   0.928   6.174  1.0193 -0.4948  0.9021
10077TIP3   OH254425   5.948   0.946   8.167 -0.1273 -0.6637 -0.2745
10077TIP3    H154426   5.993   1.030   8.150  0.9071 -1.1600 -0.0726
10077TIP3    H254427   5.998   0.882   8.116 -1.7276 -0.9749 -1.5144
10078TIP3   OH254428   4.048   3.152   7.889 -0.3207  0.0079 -0.4528
10078TIP3    H154429   4.123   3.092   7.893 -1.2706 -1.1594  0.3179
10078TIP3    H254430   3.980   3.110   7.940 -1.9083  0.4883 -2.0565
10079TIP3   OH254431   5.095   3.221   5.678 -0.1757 -0.3722  0.6089
10079TIP3    H154432   5.032   3.207   5.607 -0.9532  1.1017  0.9666
10079TIP3    H254433   5.042   3.251   5.752  0.8731  0.3179  1.1052
10080TIP3   OH254434   4.501   2.787   6.084 -0.3040  0.1743 -0.6404
10080TIP3    H154435   4.519   2.780   6.178  1.9541  2.1448 -0.8354
10080TIP3    H254436   4.502   2.697   6.052  1.0540 -0.3831  0.8810
10081TIP3   OH254437   4.669   4.708   7.786  0.5173 -0.2746 -0.1770
10081TIP3    H154438   4.654   4.662   7.703  0.1578 -1.7511  0.6806
10081TIP3    H254439   4.738   4.659   7.829  1.9119  1.4649 -0.2814
10082TIP3   OH254440   4.857   4.712   8.319  0.1924 -0.7540  0.1725
10082TIP3    H154441   4.859   4.635   8.375  0.6827  0.4401  1.9006
10082TIP3    H254442   4.826   4.783   8.376  0.3908  0.4715 -1.1600
10083TIP3   OH254443   4.197   2.392   6.348 -0.0217 -0.5202 -0.5041
10083TIP3    H154444   4.282   2.432   6.329  0.6952 -0.8753  1.7208
10083TIP3    H254445   4.158   2.377   6.262  1.9141  0.1682 -1.5578
10084TIP3   OH254446   6.717   4.332   8.685  0.6634  0.4518  0.1175
10084TIP3    H154447   6.623   4.340   8.705  0.2666  0.1483 -1.4777
10084TIP3    H254448   6.747   4.423   8.675  0.4227  0.5410  0.1957
10085TIP3   OH254449   2.119   5.546   6.507 -0.5616 -0.1160 -0.4578
10085TIP3    H154450   2.079   5.469   6.466  2.0354 -1.6834 -0.2599
10085TIP3    H254451   2.149   5.600   6.433  0.8922 -1.1703 -0.6801
10086TIP3   OH254452   1.346   5.703   6.041  0.3792  0.2072 -0.2794
10086TIP3    H154453   1.422   5.646   6.050  1.7642  1.9102 -0.6631
10086TIP3    H254454   1.333   5.740   6.129 -0.0194 -0.1023 -0.2088
10087TIP3   OH254455   0.910   5.633   6.174  0.1496 -0.1732  0.4539
10087TIP3    H154456   0.977   5.611   6.109  0.4896 -0.0033  0.7465
10087TIP3    H254457   0.931   5.722   6.201 -2.1295  1.2340 -1.8715
10088TIP3   OH254458   2.275   4.820   6.631 -0.2214 -0.9023  0.2391
10088TIP3    H154459   2.317   4.735   6.641  0.4017 -0.6862 -0.4449
10088TIP3    H254460   2.323   4.862   6.560 -0.6162 -0.0380  0.4703
10089TIP3   OH254461   3.063   4.135   5.757 -0.4217 -0.7689 -0.2453
10089TIP3    H154462   3.006   4.098   5.825 -1.9477  0.3900 -0.8422
10089TIP3    H254463   3.078   4.225   5.784 -0.5300 -0.4788 -1.1053
10090TIP3   OH254464   3.795   4.902   7.306  0.2922 -0.4029 -0.3541
10090TIP3    H154465   3.739   4.980   7.307  0.5597 -0.1922  0.9623
10090TIP3    H254466   3.743   4.836   7.260  0.2459  0.6621 -1.8949
10091TIP3   OH254467   0.375   2.293   6.385  0.4930  0.1249  0.0812
10091TIP3    H154468   0.342   2.204   6.371  0.2684 -0.2826  2.6430
10091TIP3    H254469   0.470   2.283   6.389  0.5840  0.3058 -1.3252
10092TIP3   OH254470   4.796   3.530   6.739  0.2434 -0.4466 -0.1908
10092TIP3    H154471   4.890   3.544   6.741  0.2887 -0.7017 -0.5294
10092TIP3    H254472   4.771   3.550   6.649 -0.2533  1.0954  0.2470
10093TIP3   OH254473   0.250   6.020   9.312 -0.1396  0.1590 -0.1592
10093TIP3    H154474   0.237   6.020   9.407  1.0868  0.4475  0.0228
10093TIP3    H254475   0.205   5.942   9.282  0.0938 -0.3430  0.7592
10094TIP3   OH254476   5.132   1.301   7.722 -0.3683  0.1467 -0.2779
10094TIP3    H154477   5.116   1.242   7.796 -1.1284 -0.1783 -0.6916
10094TIP3    H254478   5.056   1.290   7.666 -0.4151  1.3725 -0.4800
10095TIP3   OH254479   2.573   4.164   5.745 -0.0572  0.1774  0.3364
10095TIP3    H154480   2.544   4.223   5.675 -1.1513 -0.4381  0.2410
10095TIP3    H254481   2.627   4.098   5.700  0.8266  0.8545  0.3813
10096TIP3   OH254482   6.006   3.589   7.511 -0.3466  0.0384  0.4353
10096TIP3    H154483   6.070   3.638   7.459 -1.3133  0.1888 -0.6518
10096TIP3    H254484   6.042   3.589   7.600  2.0287 -1.3870 -0.4422
10097TIP3   OH254485   4.142   5.073   6.073 -0.1377 -0.6517 -0.2805
10097TIP3    H154486   4.065   5.130   6.078  0.5575  0.2451  0.4988
10097TIP3    H254487   4.201   5.107   6.140  0.3383 -2.2343  0.1396
10098TIP3   OH254488   2.769   3.327   7.499 -0.4745 -0.1820  0.2135
10098TIP3    H154489   2.750   3.282   7.416 -2.7757 -0.5498  0.8619
10098TIP3    H254490   2.743   3.264   7.566 -0.9761  1.0139  1.1772
10099TIP3   OH254491   3.983   0.740   8.699  0.3459  0.0550 -0.2099
10099TIP3    H154492   3.919   0.683   8.655 -1.9851  0.3082  2.5506
10099TIP3    H254493   4.004   0.694   8.780  2.0192  1.0490 -0.0423
10100TIP3   OH254494   3.935   0.642   7.302  1.0767 -0.1070  0.0141
10100TIP3    H154495   4.014   0.695   7.309  0.0260  1.3277  2.0008
10100TIP3    H254496   3.947   0.573   7.366  0.3792  0.6491  0.9914
10101TIP3   OH254497   2.738   5.925   5.643 -0.3163 -0.2852 -0.0236
10101TIP3    H154498   2.669   5.882   5.593 -0.6340  1.0010 -0.7539
10101TIP3    H254499   2.738   5.882   5.728 -1.6286 -0.6904 -0.2136
10102TIP3   OH254500   3.869   6.436   7.835  0.0196  0.0816 -0.0239
10102TIP3    H154501   3.964   6.424   7.825 -0.0806 -0.3044 -0.5886
10102TIP3    H254502   3.839   6.352   7.871  0.2054  1.0349  2.5429
10103TIP3   OH254503   3.776   0.268   7.225  0.0492 -0.7469 -0.0745
10103TIP3    H154504   3.822   0.231   7.300  0.4061 -0.7935 -0.3147
10103TIP3    H254505   3.689   0.228   7.228  0.4733 -1.7146 -0.4046
10104TIP3   OH254506   3.712   5.104   6.553 -0.0856 -0.0633  0.5506
10104TIP3    H154507   3.674   5.027   6.595 -0.3701  0.3443  1.0385
10104TIP3    H254508   3.771   5.141   6.618  1.5616 -0.9665 -0.3569
10105TIP3   OH254509   5.125   4.932   5.552 -0.0704 -0.2788 -1.5714
10105TIP3    H154510   5.198   4.991   5.535 -0.9784  0.9373 -1.3729
10105TIP3    H254511   5.048   4.989   5.555 -0.7068 -1.1463  0.9112
10106TIP3   OH254512   4.936   4.890   6.393  0.2264  0.4516 -0.4306
10106TIP3    H154513   4.993   4.825   6.352  0.5526 -0.5376  1.4837
10106TIP3    H254514   4.852   4.879   6.350  0.2858 -1.2374 -0.1492
10107TIP3   OH254515   1.142   4.646   6.934 -0.5651  0.1023  0.0779
10107TIP3    H154516   1.094   4.585   6.879 -1.5504 -0.0840  1.1066
10107TIP3    H254517   1.091   4.727   6.932  0.5952  0.8565 -1.0713
10108TIP3   OH254518   2.904   4.149   7.315  0.4355 -0.2378  0.6556
10108TIP3    H154519   2.883   4.119   7.403  0.1032  1.2013  1.0973
10108TIP3    H254520   2.963   4.083   7.280 -0.4959 -1.5192  1.4484
10109TIP3   OH254521   2.899   0.665   6.931 -0.1830  0.2444 -0.5498
10109TIP3    H154522   2.983   0.711   6.927 -0.9233  1.6822 -0.3560
10109TIP3    H254523   2.922   0.575   6.954  1.2426  0.8377  0.5377
10110TIP3   OH254524   2.188   4.509   6.001  0.3789 -0.0308 -0.0884
10110TIP3    H154525   2.159   4.464   6.080  1.5082 -2.7591 -1.0930
10110TIP3    H254526   2.115   4.565   5.976 -1.4465 -1.8561  0.9076
10111TIP3   OH254527   2.867   5.881   8.354  0.2251  0.4703  0.3213
10111TIP3    H154528   2.775   5.903   8.340 -0.1565 -0.5724  1.0361
10111TIP3    H254529   2.887   5.917   8.441  0.5120  0.7173  0.1582
10112TIP3   OH254530   2.111   5.315   5.771  0.2133 -0.2531  0.3859
10112TIP3    H154531   2.040   5.356   5.821  1.6449  2.1936  0.5403
10112TIP3    H254532   2.068   5.283   5.691 -1.2499  0.1451  0.9733
10113TIP3   OH254533   3.284   6.538   6.632  0.3016  0.4537 -0.0482
10113TIP3    H154534   3.299   6.465   6.573 -1.6574 -0.5128  0.5788
10113TIP3    H254535   3.218   6.592   6.589 -0.7855 -0.0023  1.0131
10114TIP3   OH254536   3.785   4.444   8.621  0.4811 -0.0326  0.2881
10114TIP3    H154537   3.693   4.419   8.631 -0.2846  0.8674 -3.0983
10114TIP3    H254538   3.829   4.406   8.697 -2.4332 -1.7495  1.2753
10115TIP3   OH254539   1.386   0.300   8.532  0.1438  0.5251  0.3321
10115TIP3    H154540   1.344   0.235   8.587  2.0638 -1.1323 -0.0558
10115TIP3    H254541   1.407   0.372   8.591 -0.9421  0.3227  0.9994
10116TIP3   OH254542   5.024   0.445   7.682 -0.5274  0.0627 -0.0356
10116TIP3    H154543   5.082   0.437   7.757 -1.9479  0.7233  1.1868
10116TIP3    H254544   5.026   0.358   7.641  0.4776 -0.2289  0.5924
10117TIP3   OH254545   1.294   1.977   6.781  0.0137 -0.0739  0.1659
10117TIP3    H154546   1.389   1.972   6.769 -0.2080  0.1420 -2.1070
10117TIP3    H254547   1.257   1.932   6.705 -1.7163  0.1817  0.8052
10118TIP3   OH254548   2.790   3.835   8.397 -0.6506 -0.4782  0.0438
10118TIP3    H154549   2.774   3.743   8.416 -0.5426 -0.5706 -0.2967
10118TIP3    H254550   2.831   3.835   8.310  0.4201 -0.1850  0.5366
10119TIP3   OH254551   0.349   0.062   7.029 -0.5763  0.1834 -0.1094
10119TIP3    H154552   0.374   0.102   6.946 -0.5669 -0.7961 -0.5789
10119TIP3    H254553   0.330   0.137   7.086 -1.6101  0.8726 -1.2934
10120TIP3   OH254554   2.562   0.273   6.205  0.4615  0.3313  0.4297
10120TIP3    H154555   2.559   0.190   6.251  1.1341  0.4987  0.7890
10120TIP3    H254556   2.616   0.256   6.127  0.7238  0.4630  0.5802
10121TIP3   OH254557   0.145   3.646   8.825 -0.5749  0.1966 -0.6140
10121TIP3    H154558   0.115   3.563   8.863  0.0754 -0.1666 -0.8711
10121TIP3    H254559   0.230   3.662   8.866 -0.0065 -0.0434 -1.6539
10122TIP3   OH254560   1.776   0.526   6.669  0.1945  0.0318 -0.7254
10122TIP3    H154561   1.825   0.529   6.587  0.3126  0.4133 -0.6467
10122TIP3    H254562   1.826   0.583   6.728 -1.0228  1.4848 -1.0281
10123TIP3   OH254563   2.623   5.335   8.456  0.0723 -0.3422 -0.4557
10123TIP3    H154564   2.665   5.250   8.448  1.1526  0.1968 -0.7349
10123TIP3    H254565   2.687   5.390   8.501 -0.4136  0.4404 -0.6906
10124TIP3   OH254566   0.806   5.807   5.841  0.0904  0.2095 -0.0763
10124TIP3    H154567   0.877   5.851   5.795  1.0464  1.0706  2.0843
10124TIP3    H254568   0.795   5.857   5.922  0.2806 -2.6814  1.8840
10125TIP3   OH254569   1.264   3.228   7.448  0.0271 -0.0191  0.0980
10125TIP3    H154570   1.356   3.255   7.453  0.4821 -1.6783  1.1516
10125TIP3    H254571   1.267   3.139   7.415 -1.2817  0.1930 -0.6603
10126TIP3   OH254572   1.268   0.521   5.687  0.3515 -0.1982 -0.4316
10126TIP3    H154573   1.318   0.444   5.660  1.1670  0.5684 -1.1789
10126TIP3    H254574   1.306   0.593   5.636 -0.8791  0.5749 -0.2818
10127TIP3   OH254575   1.054   5.992   5.828  0.1508 -0.0819 -0.1894
10127TIP3    H154576   1.119   5.944   5.777  2.0940  3.3098 -1.2094
10127TIP3    H254577   1.103   6.063   5.869 -2.4765  1.0289  1.2473
10128TIP3   OH254578   1.111   5.299   6.932 -0.1740 -0.0135 -0.3655
10128TIP3    H154579   1.150   5.282   6.846  0.3533  1.3010 -0.4219
10128TIP3    H254580   1.184   5.292   6.993 -0.6707 -1.5929  0.0874
10129TIP3   OH254581   2.057   4.549   7.162 -0.4499 -0.8428 -0.0099
10129TIP3    H154582   2.143   4.589   7.177 -0.2393 -1.1654 -0.3255
10129TIP3    H254583   2.038   4.502   7.242 -2.4278  2.8704  1.9848
10130TIP3   OH254584   1.072   5.284   5.990 -0.0333 -0.3902  0.6493
10130TIP3    H154585   1.080   5.246   6.077  1.9772 -0.0308  0.6802
10130TIP3    H254586   1.065   5.379   6.006  0.5141 -0.3085  0.4354
10131TIP3   OH254587   1.388   3.248   6.488 -0.1838 -0.3229  0.2498
10131TIP3    H154588   1.381   3.153   6.500 -0.6843 -0.5340 -1.3559
10131TIP3    H254589   1.346   3.264   6.403 -1.0889  1.4901  0.9950
10132TIP3   OH254590   5.992   3.381   6.867  0.1157  0.1361 -0.1916
10132TIP3    H154591   6.010   3.328   6.945 -0.2967  2.7855  1.8326
10132TIP3    H254592   5.902   3.412   6.879 -0.0182  0.4961 -1.8329
10133TIP3   OH254593   1.077   6.320   6.822 -0.0808 -0.5190  0.3477
10133TIP3    H154594   1.064   6.254   6.890  1.5327 -0.0228  1.2004
10133TIP3    H254595   1.054   6.403   6.865  2.8121  0.0513  1.0542
10134TIP3   OH254596   2.452   5.092   8.685 -0.0637 -0.5133  0.1080
10134TIP3    H154597   2.527   5.116   8.738  0.0059  0.5932 -0.4723
10134TIP3    H254598   2.377   5.104   8.743  0.1726 -1.4423  0.6296
10135TIP3   OH254599   3.588   4.766   8.845 -0.4373  0.4300 -0.6963
10135TIP3    H154600   3.628   4.834   8.900 -0.6907  0.1895 -0.2048
10135TIP3    H254601   3.578   4.691   8.904  1.7378 -0.7673 -1.7350
10136TIP3   OH254602   1.032   6.312   8.214  0.2583  0.3425  0.3859
10136TIP3    H154603   1.127   6.313   8.225  0.8641 -0.1636 -3.2641
10136TIP3    H254604   1.011   6.397   8.175 -0.7582  0.3902  1.0157
10137TIP3   OH254605   0.484   1.275   9.203 -0.6328  0.3578 -0.3784
10137TIP3    H154606   0.433   1.260   9.282 -1.3418  0.5609 -0.7951
10137TIP3    H254607   0.428   1.327   9.146  0.4442  1.5531 -0.4009
10138TIP3   OH254608   1.973   3.345   6.755  0.0550 -0.4538 -0.1174
10138TIP3    H154609   1.997   3.345   6.847 -0.3886 -0.6632 -0.0057
10138TIP3    H254610   2.040   3.291   6.713 -0.4119 -1.3238  0.2466
10139TIP3   OH254611   0.642   2.392   6.847 -0.0150  0.2714 -0.3071
10139TIP3    H154612   0.598   2.385   6.932 -2.5477 -1.0560 -1.6130
10139TIP3    H254613   0.644   2.486   6.829 -0.9311  0.4570  0.4826
10140TIP3   OH254614   0.799   0.278   7.114  0.2371  0.5029 -0.3055
10140TIP3    H154615   0.762   0.343   7.055 -1.0291  1.4944  1.4798
10140TIP3    H254616   0.843   0.330   7.182 -1.0546 -0.4581  1.3261
10141TIP3   OH254617   4.116   4.336   9.123  0.3126  0.3961  0.3754
10141TIP3    H154618   4.116   4.416   9.175  0.7366 -0.5119  1.8335
10141TIP3    H254619   4.029   4.298   9.137  0.9965 -0.7221  1.8827
10142TIP3   OH254620   0.145   5.835   7.253 -0.2631 -0.1388 -0.0567
10142TIP3    H154621   0.068   5.838   7.197 -2.0898  1.8340  2.3320
10142TIP3    H254622   0.199   5.908   7.224 -1.6387  1.4523  1.2183
10143TIP3   OH254623   0.415   0.116   6.262  0.2257  0.3966 -0.5438
10143TIP3    H154624   0.431   0.062   6.339  0.0126  2.2712  0.8866
10143TIP3    H254625   0.378   0.056   6.198  0.1332 -1.1624  0.8994
10144TIP3   OH254626   4.714   4.828   6.844  0.1760 -0.5713 -0.4770
10144TIP3    H154627   4.716   4.892   6.915  0.9466  0.6862 -1.5635
10144TIP3    H254628   4.641   4.856   6.789  0.1447 -0.9848 -0.6504
10145TIP3   OH254629   4.286   2.030   7.630  0.2840 -0.2052  0.0163
10145TIP3    H154630   4.265   1.948   7.584  1.2360 -0.2164 -0.4214
10145TIP3    H254631   4.314   2.002   7.717  0.1508 -0.3075  0.0275
10146TIP3   OH254632   2.756   2.316   5.831  0.6168 -0.5625  0.2537
10146TIP3    H154633   2.772   2.286   5.921  3.6201  3.0487  1.1730
10146TIP3    H254634   2.686   2.380   5.839 -1.4802 -2.6155 -0.6700
10147TIP3   OH254635   6.151   2.452   7.559 -0.1815 -0.6239 -0.5529
10147TIP3    H154636   6.239   2.456   7.522  0.3603  2.7861  0.7244
10147TIP3    H254637   6.155   2.382   7.624  2.2362  0.6823  0.8173
10148TIP3   OH254638   5.568   6.670   7.150  0.7910  0.2015  0.4755
10148TIP3    H154639   5.564   6.765   7.161 -1.3595  0.3177 -0.7318
10148TIP3    H254640   5.605   6.638   7.232  0.3592  1.9985  1.4170
10149TIP3   OH254641   4.626   2.071   6.239 -0.3902  0.0808  0.3729
10149TIP3    H154642   4.541   2.079   6.283 -2.4796  1.0336 -3.3423
10149TIP3    H254643   4.612   2.002   6.174  1.3537  0.9204 -0.9817
10150TIP3   OH254644   4.957   6.744   7.718 -0.3096  0.4670 -0.0679
10150TIP3    H154645   5.031   6.780   7.768  0.8133 -0.0509 -1.3068
10150TIP3    H254646   4.962   6.787   7.633  0.9812 -2.3614 -1.5557
10151TIP3   OH254647   1.396   5.473   7.522 -0.4596 -0.1397  0.6955
10151TIP3    H154648   1.357   5.519   7.596 -1.8329  0.0809 -0.1200
10151TIP3    H254649   1.450   5.405   7.561  0.8493  1.5215  1.9305
10152TIP3   OH254650   2.481   4.518   6.882  0.3921 -0.0493  0.3148
10152TIP3    H154651   2.428   4.501   6.960  0.0684 -0.9244 -0.0818
10152TIP3    H254652   2.417   4.524   6.811  0.6071  1.5828  0.2142
10153TIP3   OH254653   3.465   5.486   5.817  0.4288  0.0558 -0.0429
10153TIP3    H154654   3.546   5.443   5.787  0.1092  0.1863 -1.1354
10153TIP3    H254655   3.495   5.551   5.880  1.0265 -0.9812  0.7757
10154TIP3   OH254656   3.509   6.239   6.623 -0.0411  0.4111  0.0043
10154TIP3    H154657   3.513   6.318   6.677  0.1167  0.2452  0.2364
10154TIP3    H254658   3.595   6.198   6.634 -0.3135 -0.0762  0.3143
10155TIP3   OH254659   4.615   5.789   7.550  0.7307  0.1432 -0.4408
10155TIP3    H154660   4.573   5.730   7.487 -1.3414  1.0725  0.0060
10155TIP3    H254661   4.619   5.738   7.631 -1.1850  0.6139 -0.0184
10156TIP3   OH254662   4.707   2.484   6.221 -0.1961  0.7234  0.2670
10156TIP3    H154663   4.795   2.447   6.214  0.4881  2.4919 -1.9112
10156TIP3    H254664   4.720   2.570   6.260 -0.9438  0.9972 -0.0620
10157TIP3   OH254665   6.377   3.784   6.382  0.1327 -0.2896  0.1712
10157TIP3    H154666   6.429   3.865   6.383 -1.1988  0.6091 -0.2589
10157TIP3    H254667   6.288   3.814   6.368 -0.4768 -1.8149  0.6361
10158TIP3   OH254668   6.667   1.603   7.177  0.0783 -0.1200 -0.3737
10158TIP3    H154669   6.694   1.639   7.093 -0.8876 -1.5737 -1.3532
10158TIP3    H254670   6.747   1.561   7.211  0.3326 -0.0231 -0.8416
10159TIP3   OH254671   0.074   3.728   8.383  0.4349  0.1686  0.2036
10159TIP3    H154672   0.037   3.644   8.353  0.9208  0.1519 -0.3858
10159TIP3    H254673   0.000   3.775   8.421 -0.0470 -0.1423 -0.3288
10160TIP3   OH254674   1.910   1.798   7.102 -0.2826 -0.4590 -0.9272
10160TIP3    H154675   1.895   1.752   7.185  2.0090 -0.3998 -0.4262
10160TIP3    H254676   1.913   1.891   7.126  1.6739 -0.5227 -0.8238
10161TIP3   OH254677   0.419   3.602   6.195 -0.4758 -0.0125  0.1806
10161TIP3    H154678   0.428   3.615   6.101 -2.6072  2.4312  0.1794
10161TIP3    H254679   0.324   3.593   6.209 -0.3483  0.9704  2.1595
10162TIP3   OH254680   3.941   4.872   8.427 -0.1520  0.6914  0.3768
10162TIP3    H154681   3.953   4.799   8.366 -1.1078 -1.4198  2.5905
10162TIP3    H254682   4.017   4.867   8.485 -0.8283  0.6983  1.2786
10163TIP3   OH254683   5.778   0.269   8.335  0.0603  0.1686 -0.1468
10163TIP3    H154684   5.854   0.221   8.303  0.0069  0.3730 -0.5930
10163TIP3    H254685   5.794   0.280   8.429 -0.3144 -1.4261  0.1311
10164TIP3   OH254686   0.251   2.154   8.025 -0.6602  0.0267  0.2186
10164TIP3    H154687   0.258   2.173   8.119 -0.4047  0.0391  0.1978
10164TIP3    H254688   0.179   2.209   7.995 -0.3635  0.4656  0.2929
10165TIP3   OH254689   1.520   5.497   6.075  0.1708 -0.0781 -0.1787
10165TIP3    H154690   1.486   5.431   6.136 -1.2702  1.1145  0.3693
10165TIP3    H254691   1.596   5.534   6.119 -1.2747  1.2883  1.3268
10166TIP3   OH254692   4.399   4.885   6.444 -0.8475  0.1181  0.7669
10166TIP3    H154693   4.320   4.846   6.406 -0.9371  0.4218  0.6432
10166TIP3    H254694   4.435   4.940   6.375 -0.9211  0.5418  1.0609
10167TIP3   OH254695   2.977   2.922   8.497  0.1890  0.3201  0.4741
10167TIP3    H154696   3.041   2.853   8.480  1.4512  0.9500  2.3392
10167TIP3    H254697   2.920   2.921   8.421  2.2532 -0.4731 -1.1686
10168TIP3   OH254698   1.962   3.657   8.733 -0.5425 -0.4826 -0.2575
10168TIP3    H154699   2.004   3.580   8.771 -1.5790 -1.4717 -1.0349
10168TIP3    H254700   1.981   3.728   8.794  1.0369 -1.1828  0.1148
10169TIP3   OH254701   3.551   3.602   8.428 -0.3224 -0.1775 -0.2132
10169TIP3    H154702   3.538   3.610   8.333  1.2383  0.2925 -0.4195
10169TIP3    H254703   3.473   3.641   8.466 -1.4706 -1.3290 -1.2874
10170TIP3   OH254704   2.032   6.374   8.726  0.0083  0.2688  0.3894
10170TIP3    H154705   2.065   6.460   8.751  0.3439  0.6180 -1.1203
10170TIP3    H254706   2.098   6.313   8.758  1.3098  0.8288 -1.0633
10171TIP3   OH254707   4.353   5.361   6.041  0.5233  0.3265  0.2081
10171TIP3    H154708   4.307   5.328   6.119 -0.0532 -1.2544 -0.7502
10171TIP3    H254709   4.443   5.372   6.070  0.3651 -0.4715  1.0599
10172TIP3   OH254710   2.464   2.428   6.432 -0.8882 -0.6186  0.0324
10172TIP3    H154711   2.388   2.389   6.390 -1.0950  0.6902 -0.9003
10172TIP3    H254712   2.431   2.468   6.512 -0.9045 -1.2826  0.3586
10173TIP3   OH254713   1.575   4.517   5.353 -0.3326  0.3457  0.2795
10173TIP3    H154714   1.586   4.473   5.437 -0.8676 -0.1138  0.1163
10173TIP3    H254715   1.486   4.495   5.326  0.0492 -0.0422 -0.7113
10174TIP3   OH254716   1.495   2.112   8.676 -0.3143 -0.4740 -0.0893
10174TIP3    H154717   1.450   2.102   8.759 -2.0196  0.1494 -0.8804
10174TIP3    H254718   1.498   2.207   8.661 -0.2796 -0.5837 -0.8484
10175TIP3   OH254719   2.642   6.170   8.155 -0.6401  0.7360 -0.1957
10175TIP3    H154720   2.693   6.114   8.097  0.5944  0.5039  1.0549
10175TIP3    H254721   2.707   6.222   8.202 -1.6678  1.9301 -0.0168
10176TIP3   OH254722   6.674   4.125   8.433 -0.2175 -0.3297 -0.6990
10176TIP3    H154723   6.601   4.176   8.469 -0.8775 -1.3964 -0.4718
10176TIP3    H254724   6.671   4.043   8.482  1.7865 -0.0100  0.0268
10177TIP3   OH254725   3.849   2.491   8.299  0.5168 -0.3818 -0.5051
10177TIP3    H154726   3.826   2.534   8.381  0.1230 -1.4951 -0.0186
10177TIP3    H254727   3.876   2.403   8.324  0.6549 -0.6528 -1.5460
10178TIP3   OH254728   1.631   2.745   6.744 -0.2368 -0.5253 -0.9476
10178TIP3    H154729   1.613   2.661   6.701  0.4385 -0.7125 -0.8854
10178TIP3    H254730   1.548   2.771   6.783 -0.5131 -1.0442 -1.1883
10179TIP3   OH254731   6.487   4.372   7.946 -0.8066  0.1521  0.0619
10179TIP3    H154732   6.472   4.452   7.997 -1.5138 -0.1889  0.4116
10179TIP3    H254733   6.399   4.336   7.932 -0.4960 -0.5728 -0.0680
10180TIP3   OH254734   3.168   1.337   7.703  0.1353 -0.4257  0.1230
10180TIP3    H154735   3.215   1.402   7.650  0.0135 -1.6854 -1.6057
10180TIP3    H254736   3.186   1.363   7.794 -1.2338  3.0002 -0.4179
10181TIP3   OH254737   0.101   6.116   6.743 -0.3348  0.0187  0.0336
10181TIP3    H154738   0.117   6.175   6.816 -1.7863 -0.1200  0.4837
10181TIP3    H254739   0.175   6.131   6.684  0.6923  0.3565  1.3647
10182TIP3   OH254740   6.071   0.241   5.949  0.2668  0.1174  0.1376
10182TIP3    H154741   6.060   0.334   5.969  1.0481  0.0989  0.7239
10182TIP3    H254742   5.992   0.199   5.984 -0.2607  0.6061 -0.4683
10183TIP3   OH254743   2.091   4.044   8.640  1.0657  0.4591 -0.2685
10183TIP3    H154744   2.128   4.054   8.728  0.5464 -1.0693  0.1541
10183TIP3    H254745   2.147   3.980   8.597 -0.5245 -1.2663  0.0967
10184TIP3   OH254746   1.500   5.809   8.321  0.2825  0.6192 -0.1281
10184TIP3    H154747   1.478   5.889   8.274 -1.3071  0.8143  0.8486
10184TIP3    H254748   1.556   5.760   8.260 -1.9029  0.7053 -2.3995
10185TIP3   OH254749   0.261   0.658   7.350  0.0134 -0.1556 -0.1294
10185TIP3    H154750   0.259   0.723   7.280  3.0553  0.5933  0.3668
10185TIP3    H254751   0.319   0.589   7.319 -0.7686 -1.1753  0.5916
10186TIP3   OH254752   3.767   5.717   8.945 -0.1020 -0.2072 -0.5844
10186TIP3    H154753   3.749   5.667   9.024  0.2250  0.4324 -0.0935
10186TIP3    H254754   3.836   5.669   8.900 -0.8353 -0.9959 -0.8905
10187TIP3   OH254755   1.645   3.930   5.725 -0.2626 -0.0666  0.5113
10187TIP3    H154756   1.706   3.895   5.660 -1.6017 -0.9607 -0.3229
10187TIP3    H254757   1.700   3.950   5.801  1.0018 -1.2536 -0.0368
10188TIP3   OH254758   5.430   4.100   6.675 -0.5172  0.0728  0.9591
10188TIP3    H154759   5.346   4.070   6.641 -0.0740 -0.5380  0.3704
10188TIP3    H254760   5.412   4.127   6.765 -1.2984 -0.2410  0.9014
10189TIP3   OH254761   0.898   5.330   7.126 -0.3276 -0.1979  0.3274
10189TIP3    H154762   0.966   5.319   7.060  0.2128  0.2241  0.8038
10189TIP3    H254763   0.824   5.369   7.079  0.1032  0.2394  0.0107
10190TIP3   OH254764   6.569   6.242   5.805 -0.1370  0.1026  0.0943
10190TIP3    H154765   6.530   6.316   5.757 -0.9409 -0.7902 -0.6730
10190TIP3    H254766   6.657   6.235   5.769 -0.0309  0.7322  0.2201
10191TIP3   OH254767   1.588   0.522   8.359 -0.1455 -0.1404 -0.2207
10191TIP3    H154768   1.636   0.494   8.437 -2.5860  1.0041  1.8270
10191TIP3    H254769   1.583   0.444   8.304  1.4788 -1.0272  0.8195
10192TIP3   OH254770   1.755   3.423   8.222 -0.6117  0.1508  0.4972
10192TIP3    H154771   1.828   3.383   8.176 -0.6444  1.7522 -1.0134
10192TIP3    H254772   1.721   3.352   8.278  1.1437 -1.0368  0.1453
10193TIP3   OH254773   2.359   1.644   7.137  0.3363 -1.0708 -0.1411
10193TIP3    H154774   2.398   1.722   7.097  1.1081 -1.1090  0.5137
10193TIP3    H254775   2.311   1.678   7.212 -2.4684 -0.7999 -1.9275
10194TIP3   OH254776   5.682   0.681   6.319  0.1327 -0.3315  0.0919
10194TIP3    H154777   5.628   0.677   6.397  1.4396 -0.7412  1.0048
10194TIP3    H254778   5.651   0.759   6.272 -1.5870 -0.8655  0.2846
10195TIP3   OH254779   2.837   0.127   8.807 -0.2313  0.0591  0.4080
10195TIP3    H154780   2.875   0.042   8.828 -0.4509  0.0340  0.7158
10195TIP3    H254781   2.742   0.113   8.816 -0.2374  0.4828  1.0025
10196TIP3   OH254782   4.307   5.590   6.756 -0.1941  0.5577 -0.1477
10196TIP3    H154783   4.368   5.564   6.688 -0.1892 -0.0079  0.0675
10196TIP3    H254784   4.314   5.686   6.759 -1.5059  0.7828 -2.1705
10197TIP3   OH254785   2.097   2.315   6.760 -0.4096 -0.5522  0.1641
10197TIP3    H154786   2.162   2.382   6.739 -1.9490  1.9258  2.6252
10197TIP3    H254787   2.019   2.341   6.710 -0.3026 -2.0370 -0.8232
10198TIP3   OH254788   2.649   4.098   9.254 -0.0130 -0.4913  0.0349
10198TIP3    H154789   2.706   4.048   9.313  0.0489  0.2590  0.6345
10198TIP3    H254790   2.680   4.188   9.263  0.4375 -0.4559 -1.6677
10199TIP3   OH254791   4.013   6.476   5.947  0.2664 -0.6774 -0.1304
10199TIP3    H154792   3.971   6.401   5.905 -0.1619 -0.1395 -0.6668
10199TIP3    H254793   4.088   6.495   5.891 -0.1614 -0.1184 -0.5207
10200TIP3   OH254794   4.091   3.315   5.697  0.5816 -0.2345 -0.4017
10200TIP3    H154795   4.066   3.332   5.606  2.9014 -1.6522 -1.3854
10200TIP3    H254796   4.086   3.401   5.739 -2.5268  0.1071 -1.2773
10201TIP3   OH254797   0.996   6.567   6.373 -0.2547  0.3063  0.0577
10201TIP3    H154798   1.036   6.629   6.434 -0.4066  0.5251 -0.0626
10201TIP3    H254799   0.931   6.520   6.426 -0.7172  0.8210 -0.0430
10202TIP3   OH254800   0.201   0.991   7.441 -0.2446 -0.2988 -0.4727
10202TIP3    H154801   0.287   0.998   7.482  0.6168 -3.7870 -1.3532
10202TIP3    H254802   0.163   1.079   7.450  2.1238  0.5983  2.6072
10203TIP3   OH254803   5.383   2.020   5.872 -0.4016 -0.2101 -0.2441
10203TIP3    H154804   5.475   2.004   5.854 -1.0908 -1.7098 -3.2206
10203TIP3    H254805   5.362   2.099   5.823 -0.8675 -0.3548 -0.2885
10204TIP3   OH254806   1.228   2.779   6.522  0.2130  0.4926  0.0063
10204TIP3    H154807   1.231   2.766   6.427 -0.5953  1.1188 -0.1178
10204TIP3    H254808   1.135   2.775   6.544  0.5014 -1.6318  1.0948
10205TIP3   OH254809   1.837   2.991   7.207 -0.7217  0.7061 -0.0830
10205TIP3    H154810   1.796   3.031   7.130  1.0096 -0.3667 -1.6464
10205TIP3    H254811   1.903   3.054   7.234 -0.2426  0.4008 -0.5065
10206TIP3   OH254812   5.260   6.294   6.156  0.1354 -0.1828  0.0178
10206TIP3    H154813   5.250   6.290   6.252 -1.3790 -0.2313 -0.1165
10206TIP3    H254814   5.255   6.387   6.135 -1.1671 -0.2772 -0.1469
10207TIP3   OH254815   6.264   5.469   8.391 -0.5069 -0.3970 -0.6117
10207TIP3    H154816   6.321   5.402   8.430 -1.6785 -1.0370  0.0388
10207TIP3    H254817   6.254   5.534   8.460  1.0771  0.7821 -1.4273
10208TIP3   OH254818   0.646   5.065   8.782  0.0393 -0.4736  0.6906
10208TIP3    H154819   0.554   5.085   8.801 -0.2974 -0.5340 -0.8153
10208TIP3    H254820   0.656   4.973   8.806 -0.2308 -0.4088  1.0625
10209TIP3   OH254821   3.413   4.960   7.168 -0.0390  0.4088  0.0837
10209TIP3    H154822   3.455   4.934   7.086  0.4142 -1.1942  0.7915
10209TIP3    H254823   3.482   5.004   7.218  0.1748 -0.1821  0.3130
10210TIP3   OH254824   5.962   5.763   7.819 -0.3306  0.2297 -0.1952
10210TIP3    H154825   6.047   5.750   7.861 -1.0005 -3.2147  0.3619
10210TIP3    H254826   5.970   5.848   7.776  2.7523  0.8437  1.2941
10211TIP3   OH254827   4.137   6.435   7.773 -0.0078 -0.2210  0.1192
10211TIP3    H154828   4.138   6.495   7.698  0.1880 -0.2222  0.1202
10211TIP3    H254829   4.218   6.385   7.765 -0.1356 -0.4364  0.1603
10212TIP3   OH254830   4.258   6.073   6.013  0.0176  0.5060 -0.2001
10212TIP3    H154831   4.200   6.103   6.084 -0.8329  1.3264 -1.2028
10212TIP3    H254832   4.227   5.985   5.992  0.4234  0.1673  0.5926
10213TIP3   OH254833   3.198   4.031   6.142 -0.1691  0.3662  0.0064
10213TIP3    H154834   3.140   3.957   6.163 -0.9048 -0.0795 -3.1031
10213TIP3    H254835   3.240   4.006   6.060  1.1870  2.5325 -0.0300
10214TIP3   OH254836   2.917   3.312   8.480 -0.2327  0.2612 -0.0484
10214TIP3    H154837   2.993   3.365   8.506  0.5516 -0.4401 -0.8282
10214TIP3    H254838   2.954   3.226   8.460 -1.4347 -0.4769  0.8072
10215TIP3   OH254839   5.632   4.976   7.557  0.5382  0.2165 -0.1858
10215TIP3    H154840   5.728   4.982   7.561  0.5865  0.6710 -1.4159
10215TIP3    H254841   5.616   4.903   7.497  0.0959 -0.4261  0.7037
10216TIP3   OH254842   2.443   1.995   7.847 -0.4165  0.1567 -0.2646
10216TIP3    H154843   2.526   2.011   7.893 -1.2945 -1.3288  2.0234
10216TIP3    H254844   2.467   1.935   7.777  0.6454  0.8237 -0.5016
10217TIP3   OH254845   5.270   4.093   6.029 -0.0612  0.3006 -0.1192
10217TIP3    H154846   5.338   4.084   6.097  1.7213 -0.6307 -1.9207
10217TIP3    H254847   5.204   4.150   6.069  1.4045  0.6329  2.0142
10218TIP3   OH254848   4.971   0.057   8.449 -0.1274  0.5938 -0.4223
10218TIP3    H154849   5.066   0.063   8.459 -0.3904  0.4807  3.4787
10218TIP3    H254850   4.958  -0.017   8.390  2.2335 -1.6529  1.6523
10219TIP3   OH254851   4.344   5.120   8.056 -0.2777  0.0164  0.1067
10219TIP3    H154852   4.326   5.120   7.962  0.4739  1.0467 -0.0659
10219TIP3    H254853   4.439   5.131   8.062 -0.3308  0.1286  0.9851
10220TIP3   OH254854   2.206   1.893   6.125  0.2602 -0.0498  0.4510
10220TIP3    H154855   2.175   1.803   6.129 -0.0062  0.0596  0.9833
10220TIP3    H254856   2.160   1.937   6.196  0.2643  0.5448  0.0889
10221TIP3   OH254857   4.915   5.718   7.778 -0.4214 -0.2066 -0.0790
10221TIP3    H154858   4.943   5.696   7.689  1.4941 -0.3399  0.5276
10221TIP3    H254859   4.863   5.642   7.805  1.6306 -1.6518  0.0252
10222TIP3   OH254860   2.795   2.212   6.084 -0.3252 -0.0509  0.2890
10222TIP3    H154861   2.852   2.279   6.120 -1.9744  1.1530  0.7605
10222TIP3    H254862   2.807   2.136   6.142  0.7673  0.1792  0.3753
10223TIP3   OH254863   5.049   1.668   6.473 -0.4988 -0.7799 -0.1744
10223TIP3    H154864   5.052   1.700   6.563 -3.1465  2.0054 -0.9140
10223TIP3    H254865   5.128   1.704   6.433 -0.4277 -0.1567  0.4998
10224TIP3   OH254866   6.590   1.306   7.962 -0.3844  0.2828 -0.1668
10224TIP3    H154867   6.645   1.372   8.004 -0.1465 -1.1407  1.9058
10224TIP3    H254868   6.614   1.310   7.869  1.7964  1.0117  0.3863
10225TIP3   OH254869   3.682   4.379   6.118  0.1954 -0.3413  0.5824
10225TIP3    H154870   3.731   4.434   6.179  2.6729 -0.7576 -0.9133
10225TIP3    H254871   3.720   4.399   6.033 -3.4664  0.6000 -1.0266
10226TIP3   OH254872   5.213   2.266   7.433 -0.5149  0.1951 -0.1778
10226TIP3    H154873   5.242   2.314   7.356  2.4998  0.4399  1.0027
10226TIP3    H254874   5.177   2.333   7.491  0.1765  0.4919 -0.0850
10227TIP3   OH254875   1.290   0.527   8.257  0.6283 -0.4160  0.4833
10227TIP3    H154876   1.234   0.555   8.184 -1.1860 -3.1145  0.6967
10227TIP3    H254877   1.378   0.525   8.220  0.2345  1.2300 -0.6945
10228TIP3   OH254878   4.995   6.717   7.126  0.4897 -0.2754 -0.3578
10228TIP3    H154879   4.948   6.800   7.134  0.7157 -0.0219 -1.4495
10228TIP3    H254880   5.077   6.731   7.172  1.2344  0.6900 -1.9134
10229TIP3   OH254881   3.571   2.868   7.176 -0.1444 -0.2410 -0.0908
10229TIP3    H154882   3.520   2.918   7.240  0.6058 -0.9985  1.1366
10229TIP3    H254883   3.658   2.861   7.215  0.2203 -1.0424 -1.0235
10230TIP3   OH254884   2.420   5.050   5.987 -0.7461 -0.1953 -0.5052
10230TIP3    H154885   2.439   4.967   6.030  0.6507  0.1827 -0.3554
10230TIP3    H254886   2.481   5.112   6.026 -1.7667  0.9130 -0.6185
10231TIP3   OH254887   5.057   5.090   7.866 -0.6246 -0.4189 -0.0422
10231TIP3    H154888   5.007   5.029   7.812 -1.9300  0.7882 -0.2750
10231TIP3    H254889   5.072   5.165   7.809 -0.5020  0.1608  0.7344
10232TIP3   OH254890   2.954   0.047   6.168 -0.3262 -0.0560  0.0916
10232TIP3    H154891   2.998   0.086   6.092 -0.5612 -1.0000 -0.5452
10232TIP3    H254892   2.972  -0.047   6.161  0.1416 -0.1000  1.5441
10233TIP3   OH254893   1.081   4.300   7.023  0.1412 -0.3052  0.3211
10233TIP3    H154894   1.173   4.295   6.998 -0.0174 -1.2629 -0.1335
10233TIP3    H254895   1.046   4.373   6.972  0.8644  0.7447  1.2828
10234TIP3   OH254896   5.223   5.038   6.031  0.3817 -0.0466  0.4327
10234TIP3    H154897   5.149   5.061   6.086  0.2835  0.7983 -0.0414
10234TIP3    H254898   5.282   5.112   6.037  0.8343 -0.3830  0.1959
10235TIP3   OH254899   5.450   4.851   8.665 -0.0533  0.8485 -0.1467
10235TIP3    H154900   5.419   4.761   8.668 -3.0319  1.7472 -0.4761
10235TIP3    H254901   5.518   4.856   8.732  0.8720 -1.8381 -0.8041
10236TIP3   OH254902   0.256   1.355   6.941 -0.4956  0.2148  0.0840
10236TIP3    H154903   0.197   1.429   6.924 -0.1642  0.9507  1.9169
10236TIP3    H254904   0.207   1.299   7.001 -0.0667 -0.1781  0.0744
10237TIP3   OH254905   2.471   3.959   7.953 -0.1737 -0.5737  0.2090
10237TIP3    H154906   2.490   3.865   7.948 -2.5602 -1.1143 -0.3828
10237TIP3    H254907   2.550   4.002   7.921  0.2994 -2.4929 -1.4364
10238TIP3   OH254908   4.753   3.898   7.094 -0.3505 -0.3184 -0.1384
10238TIP3    H154909   4.814   3.972   7.092  0.8203 -1.2477 -0.1359
10238TIP3    H254910   4.680   3.926   7.039  0.4337  0.5394 -0.7796
10239TIP3   OH254911   1.150   6.740   9.149  0.0174 -0.1269  0.0218
10239TIP3    H154912   1.203   6.696   9.082  1.8011  1.3894  0.3644
10239TIP3    H254913   1.060   6.731   9.118  0.6416 -0.9237 -1.6918
10240TIP3   OH254914   5.774   2.992   6.955  0.0315  0.2711  0.1169
10240TIP3    H154915   5.823   3.038   7.023  1.3734  0.1400 -0.7220
10240TIP3    H254916   5.812   2.904   6.952 -0.1584  0.2019 -0.6304
10241TIP3   OH254917   6.204   0.456   8.571  0.3749 -0.2613  0.0978
10241TIP3    H154918   6.129   0.415   8.527  0.6702 -0.8193  0.1078
10241TIP3    H254919   6.172   0.477   8.659  0.5010 -1.3692  0.4272
10242TIP3   OH254920   3.988   2.575   6.030 -0.5914 -0.9628 -0.2618
10242TIP3    H154921   4.002   2.481   6.017 -0.0260 -0.9117 -0.0679
10242TIP3    H254922   4.019   2.615   5.948 -2.7242 -1.0786 -1.1767
10243TIP3   OH254923   2.979   1.517   6.761  0.2985 -0.2867 -0.2227
10243TIP3    H154924   2.927   1.449   6.717 -0.3346  0.7306 -1.0813
10243TIP3    H254925   2.945   1.599   6.727  2.1088  0.4440 -0.4072
10244TIP3   OH254926   5.901   0.489   7.231  0.1724 -0.0222  0.2071
10244TIP3    H154927   5.866   0.408   7.192  0.7835 -0.3381  0.3112
10244TIP3    H254928   5.970   0.517   7.171 -0.0590  0.4445  0.1554
10245TIP3   OH254929   4.569   5.770   8.481 -0.1189 -0.5236 -0.4524
10245TIP3    H154930   4.551   5.773   8.575 -1.8478 -0.3462 -0.7479
10245TIP3    H254931   4.493   5.727   8.443  0.3062 -0.1269 -1.8312
10246TIP3   OH254932   1.205   3.689   7.700  0.3497 -0.2187  0.1478
10246TIP3    H154933   1.179   3.730   7.782  0.5959 -0.3959  0.3169
10246TIP3    H254934   1.298   3.668   7.712  0.3486 -0.3830 -0.1167
10247TIP3   OH254935   3.078   1.891   5.503  0.7118 -0.2201  0.0563
10247TIP3    H154936   3.005   1.925   5.452 -0.3372 -1.6943  0.5114
10247TIP3    H254937   3.092   1.803   5.469  1.7386 -0.2616  0.5475
10248TIP3   OH254938   2.143   1.803   8.623 -0.5799  0.0526  0.7890
10248TIP3    H154939   2.068   1.746   8.606 -0.9033  0.8111 -0.3810
10248TIP3    H254940   2.109   1.892   8.613  0.4695  0.4036  0.1868
10249TIP3   OH254941   0.747   6.377   8.547 -0.4478 -0.3723 -0.1155
10249TIP3    H154942   0.669   6.334   8.513 -0.9035 -0.2399  0.7318
10249TIP3    H254943   0.720   6.467   8.564  0.5531  0.3543 -2.0441
10250TIP3   OH254944   1.595   1.238   6.067 -0.5038  0.4289 -0.1944
10250TIP3    H154945   1.548   1.179   6.008 -1.0543  0.2156  0.4527
10250TIP3    H254946   1.682   1.248   6.026 -0.4610 -0.6789 -0.4057
10251TIP3   OH254947   2.781   0.721   6.458  0.4171  0.2023 -0.0650
10251TIP3    H154948   2.810   0.656   6.522  1.0009  1.3931  0.9172
10251TIP3    H254949   2.765   0.670   6.378 -0.0949 -1.2847  0.9308
10252TIP3   OH254950   2.126   4.531   7.472 -0.6671  0.2691 -0.1084
10252TIP3    H154951   2.089   4.610   7.511 -1.4330 -1.1140  2.0914
10252TIP3    H254952   2.051   4.483   7.438 -0.4207 -0.4571  0.3580
10253TIP3   OH254953   3.206   2.513   7.344  0.2744 -0.2066 -0.2671
10253TIP3    H154954   3.125   2.530   7.393 -1.0212  0.3713 -2.4474
10253TIP3    H254955   3.238   2.429   7.378 -1.3431 -0.5406  0.5250
10254TIP3   OH254956   3.523   4.790   8.320  0.4350 -0.1741 -0.1980
10254TIP3    H154957   3.547   4.756   8.406 -1.1741 -0.4876  0.1435
10254TIP3    H254958   3.587   4.751   8.260  0.2072 -1.7336  0.5412
10255TIP3   OH254959   4.961   3.872   6.776 -0.4598  0.4098  0.1188
10255TIP3    H154960   4.995   3.888   6.864 -1.0958  1.7953  0.1363
10255TIP3    H254961   4.958   3.776   6.769 -1.4361  0.2553  2.0156
10256TIP3   OH254962   5.771   5.358   7.012 -0.4212 -0.5046 -0.5773
10256TIP3    H154963   5.704   5.401   6.960  0.7951  0.7680 -1.1603
10256TIP3    H254964   5.853   5.374   6.964  0.2270 -2.6228 -0.2777
10257TIP3   OH254965   0.302   1.948   7.239 -0.4313 -0.7583  0.1142
10257TIP3    H154966   0.297   2.011   7.167 -0.5339 -0.6758  0.1920
10257TIP3    H254967   0.329   2.000   7.315  1.3430 -1.1332 -0.2218
10258TIP3   OH254968   5.728   4.753   8.019 -0.3231  0.4272  0.5369
10258TIP3    H154969   5.710   4.750   7.925  0.1956 -0.9044  0.4593
10258TIP3    H254970   5.824   4.755   8.024 -0.3447  0.0956  1.0452
10259TIP3   OH254971   0.108   4.392   7.948  0.1319 -0.2595 -0.0771
10259TIP3    H154972   0.101   4.484   7.922 -1.2376 -0.1854  0.4740
10259TIP3    H254973   0.187   4.388   8.002 -0.5805  0.9164  1.1034
10260TIP3   OH254974   4.851   3.332   7.270 -0.0574 -0.3953  0.5607
10260TIP3    H154975   4.939   3.305   7.299 -0.5872 -1.8667  0.8832
10260TIP3    H254976   4.865   3.372   7.184  0.9033 -0.8313  0.5036
10261TIP3   OH254977   1.124   6.049   8.330 -0.1503  0.5044  0.3298
10261TIP3    H154978   1.080   6.071   8.248 -1.2573  0.1201  0.8013
10261TIP3    H254979   1.053   6.026   8.390  0.6839  0.1008  1.1893
10262TIP3   OH254980   1.195   6.234   5.971  0.5625  0.4261  0.8406
10262TIP3    H154981   1.258   6.300   6.001  0.9179  0.3448  0.2806
10262TIP3    H254982   1.220   6.155   6.018  1.2968  0.2271  0.1225
10263TIP3   OH254983   5.158   1.224   6.388 -0.6193 -0.0120  0.4388
10263TIP3    H154984   5.164   1.144   6.440  0.2081 -0.1542  0.1278
10263TIP3    H254985   5.068   1.254   6.402 -0.8661 -0.8617  0.7440
10264TIP3   OH254986   0.205   0.273   8.087  0.0843 -0.4593  0.5581
10264TIP3    H154987   0.118   0.283   8.126  0.1317 -1.1318  0.8480
10264TIP3    H254988   0.253   0.220   8.150  1.0066  0.6767  0.8495
10265TIP3   OH254989   2.302   3.611   8.862 -0.2353  0.4648  0.6056
10265TIP3    H154990   2.235   3.554   8.899 -0.7477  1.2544  0.9378
10265TIP3    H254991   2.383   3.562   8.870 -0.5958 -0.0370  1.2813
10266TIP3   OH254992   5.778   1.630   5.886  0.0251 -0.0738  0.4277
10266TIP3    H154993   5.810   1.636   5.976 -0.7405  1.1562  0.6498
10266TIP3    H254994   5.683   1.618   5.895 -0.1553  0.7606 -0.1899
10267TIP3   OH254995   4.638   3.825   5.694  0.3923  0.1394 -0.4925
10267TIP3    H154996   4.604   3.737   5.676  0.6367 -0.1657  0.4317
10267TIP3    H254997   4.661   3.860   5.609 -2.3675  0.4312 -1.2314
10268TIP3   OH254998   0.084   4.314   8.934 -0.4302  0.5150  0.1101
10268TIP3    H154999   0.030   4.326   8.856  0.8530  1.7662 -0.6266
10268TIP3    H255000   0.063   4.390   8.989 -0.1878  0.4503  0.2912
10269TIP3   OH255001   2.689   2.883   6.562  0.5438  0.7472 -0.0538
10269TIP3    H155002   2.722   2.972   6.554  0.2310  1.0160  1.3898
10269TIP3    H255003   2.650   2.879   6.650  1.4363 -1.0932  0.3036
10270TIP3   OH255004   1.962   5.061   6.241 -0.9530  0.2530  0.8016
10270TIP3    H155005   2.015   5.075   6.320 -0.4377 -0.4555  0.5901
10270TIP3    H255006   2.024   5.072   6.169 -0.3864 -3.2635  0.6132
10271TIP3   OH255007   0.368   2.480   9.173  0.2443 -0.3909 -0.4725
10271TIP3    H155008   0.426   2.417   9.132  0.8468  0.1867 -0.5326
10271TIP3    H255009   0.319   2.519   9.100 -1.2437 -1.8453 -0.3042
10272TIP3   OH255010   2.582   4.168   7.363 -0.4436 -0.2134 -0.1116
10272TIP3    H155011   2.624   4.211   7.288  0.0837  0.1994  0.4033
10272TIP3    H255012   2.586   4.234   7.433  2.0488 -1.6581  1.2675
10273TIP3   OH255013   2.414   2.802   8.961 -0.2853  0.0142 -0.5431
10273TIP3    H155014   2.501   2.763   8.963  0.0118  0.5691  3.0794
10273TIP3    H255015   2.354   2.728   8.970  0.0340 -0.0870  0.9455
10274TIP3   OH255016   0.943   2.507   5.880 -0.3544  0.0642  0.6336
10274TIP3    H155017   0.856   2.482   5.850 -0.1349 -0.9228  0.8127
10274TIP3    H255018   0.987   2.541   5.802  0.0109 -1.9284 -0.0639
10275TIP3   OH255019   4.313   4.840   8.881 -0.2417  0.0033 -0.7557
10275TIP3    H155020   4.279   4.929   8.873 -0.7928 -0.1543 -0.2966
10275TIP3    H255021   4.289   4.814   8.970 -1.3340 -1.1080 -1.3456
10276TIP3   OH255022   2.614   3.810   8.624  0.1236  0.3845  0.5948
10276TIP3    H155023   2.672   3.815   8.548 -0.8690  1.3879 -0.1303
10276TIP3    H255024   2.601   3.716   8.638  3.3501  0.0295  1.9481
10277TIP3   OH255025   2.679   1.513   7.075 -0.3592  0.2498 -0.5790
10277TIP3    H155026   2.646   1.510   7.165 -1.7697  1.1724 -1.0222
10277TIP3    H255027   2.663   1.425   7.041 -0.8011  0.2004 -0.2525
10278TIP3   OH255028   1.040   0.747   6.528  0.0349  0.1100  0.3623
10278TIP3    H155029   0.980   0.791   6.588  0.4881  0.0305  0.8874
10278TIP3    H255030   1.070   0.816   6.469 -0.5324  0.1585  0.1260
10279TIP3   OH255031   3.998   3.014   7.520 -0.4073 -0.0797 -0.4207
10279TIP3    H155032   4.014   3.001   7.426  1.9979 -0.0266 -0.0946
10279TIP3    H255033   4.059   3.083   7.545 -3.1879  2.1824  0.6457
10280TIP3   OH255034   3.856   1.233   6.815 -0.2340  0.2803  0.2407
10280TIP3    H155035   3.802   1.159   6.843 -0.7584  1.2111  1.7925
10280TIP3    H255036   3.937   1.224   6.865  0.2562  0.0072 -0.5904
10281TIP3   OH255037   3.385   1.798   7.536  0.3462  0.0106 -0.3510
10281TIP3    H155038   3.347   1.734   7.597 -0.2911  0.3634 -0.3661
10281TIP3    H255039   3.478   1.798   7.556  0.2019 -0.1785  0.3456
10282TIP3   OH255040   1.354   6.537   7.609  0.3928  0.4885 -0.0359
10282TIP3    H155041   1.271   6.511   7.569 -0.9865  1.1264  2.2430
10282TIP3    H255042   1.418   6.476   7.573 -1.1818 -0.4891 -1.3172
10283TIP3   OH255043   5.352   1.542   6.878  0.0020  0.0171  0.2046
10283TIP3    H155044   5.355   1.637   6.892 -0.5077 -0.0828  1.1001
10283TIP3    H255045   5.301   1.531   6.798  2.0290  0.5769 -1.2394
10284TIP3   OH255046   2.822   3.968   9.470  0.1811  0.1021 -0.9209
10284TIP3    H155047   2.784   3.991   9.555 -2.2312  0.5366 -2.0273
10284TIP3    H255048   2.785   3.881   9.451 -0.3859  0.5923 -2.0997
10285TIP3   OH255049   0.308   5.383   5.525 -0.3950 -0.0614  0.0667
10285TIP3    H155050   0.386   5.377   5.580 -0.3391  2.4064  0.3468
10285TIP3    H255051   0.326   5.455   5.465 -2.1682  0.0748 -0.3605
10286TIP3   OH255052   3.266   4.549   5.588 -0.0607 -0.0986 -0.0718
10286TIP3    H155053   3.322   4.476   5.615  0.8851  1.1491  1.5559
10286TIP3    H255054   3.177   4.519   5.608  0.4204 -0.2333  2.1459
10287TIP3   OH255055   3.747   0.215   6.422 -0.5236 -0.9253 -0.5977
10287TIP3    H155056   3.757   0.299   6.467 -2.4571 -0.4223 -0.9896
10287TIP3    H255057   3.714   0.156   6.490 -0.0630 -1.1081 -0.5363
10288TIP3   OH255058   4.470   0.468   5.952  0.5656 -0.0958 -0.5813
10288TIP3    H155059   4.447   0.548   5.906  3.3385  0.8506 -0.4891
10288TIP3    H255060   4.450   0.486   6.043  3.5246  1.5849 -0.1557
10289TIP3   OH255061   4.812   3.215   5.781  0.4714 -0.0566 -0.0151
10289TIP3    H155062   4.735   3.186   5.828  0.5444 -1.0238 -0.4721
10289TIP3    H255063   4.814   3.310   5.793  1.1585 -0.3551  2.9295
10290TIP3   OH255064   2.477   4.627   7.783 -0.3543  0.2615  0.0317
10290TIP3    H155065   2.489   4.570   7.859 -1.0449 -0.9393 -0.7195
10290TIP3    H255066   2.424   4.700   7.815 -1.6140 -0.8109  0.4633
10291TIP3   OH255067   1.673   3.335   8.696 -0.4296  0.3052  0.0254
10291TIP3    H155068   1.735   3.287   8.750  1.0306  2.8200  0.7274
10291TIP3    H255069   1.652   3.275   8.624  1.8837 -1.0622  0.4083
10292TIP3   OH255070   4.920   0.010   9.122  0.2584  0.2759 -0.1997
10292TIP3    H155071   4.844  -0.045   9.103  0.7362 -0.2845 -0.5449
10292TIP3    H255072   4.911   0.033   9.215 -0.6770  0.7769 -0.4013
10293TIP3   OH255073   5.408   1.461   6.149 -0.0892 -0.1392 -0.6814
10293TIP3    H155074   5.491   1.506   6.135  0.6743 -1.6942 -1.3722
10293TIP3    H255075   5.342   1.531   6.144  0.9531  0.8087 -2.6806
10294TIP3   OH255076   0.489   6.527   6.117  0.0866 -0.4560 -1.4062
10294TIP3    H155077   0.396   6.542   6.133  0.3289 -1.2603  1.3338
10294TIP3    H255078   0.492   6.458   6.051 -1.3708 -2.2598  0.3044
10295TIP3   OH255079   5.729   3.424   6.888 -0.3452 -0.3306  0.1588
10295TIP3    H155080   5.660   3.386   6.832 -0.4778 -1.5432  1.1060
10295TIP3    H255081   5.681   3.467   6.959 -0.1554  0.5090 -0.2112
10296TIP3   OH255082   2.058   0.109   7.965 -0.1648  0.1184 -0.2230
10296TIP3    H155083   2.141   0.139   7.928 -0.2678  0.3997 -0.2297
10296TIP3    H255084   2.081   0.081   8.054 -0.2789  1.4185  0.2413
10297TIP3   OH255085   0.167   1.284   7.746 -0.4913 -0.2178 -0.3949
10297TIP3    H155086   0.174   1.301   7.840 -0.3365  0.2619 -0.4910
10297TIP3    H255087   0.074   1.297   7.727 -0.5223 -0.3116 -0.3115
10298TIP3   OH255088   5.889   5.791   8.679 -0.2439 -0.1462 -0.1486
10298TIP3    H155089   5.799   5.777   8.649  0.0326  0.7676 -1.4835
10298TIP3    H255090   5.937   5.715   8.645 -0.8482 -1.8041  2.4075
10299TIP3   OH255091   2.783   2.631   6.615  0.6918  0.2938 -0.1077
10299TIP3    H155092   2.733   2.628   6.697  0.8199 -0.1138 -0.0410
10299TIP3    H255093   2.762   2.717   6.577 -0.7808 -0.2291 -0.5385
10300TIP3   OH255094   0.600   6.165   8.387  0.1765 -0.0138 -0.3747
10300TIP3    H155095   0.580   6.222   8.313 -1.4856 -1.0378 -0.7776
10300TIP3    H255096   0.599   6.076   8.350 -4.0174 -0.9304  1.2760
10301TIP3   OH255097   3.339   1.213   6.890 -0.5905 -0.0839 -1.0188
10301TIP3    H155098   3.371   1.123   6.903  1.2257  0.5939 -0.5197
10301TIP3    H255099   3.392   1.266   6.950 -2.3353  1.2113 -0.5456
10302TIP3   OH255100   2.557   0.262   8.375  0.4822  0.2542 -0.1015
10302TIP3    H155101   2.490   0.272   8.308 -0.4442  1.5830  0.9660
10302TIP3    H255102   2.530   0.184   8.424  0.2158  0.2618 -0.2316
10303TIP3   OH255103   5.926   1.537   8.666 -0.6169 -0.3631 -0.4040
10303TIP3    H155104   5.881   1.608   8.621  1.4612  1.1473 -0.2468
10303TIP3    H255105   5.892   1.540   8.755 -0.7216  0.3185 -0.4594
10304TIP3   OH255106   1.589   2.349   8.357  0.2746  0.0814 -0.0002
10304TIP3    H155107   1.530   2.282   8.324 -0.9133 -1.1994  4.1311
10304TIP3    H255108   1.676   2.310   8.351 -0.3237 -1.6626  1.6396
10305TIP3   OH255109   2.333   6.508   6.962 -0.1034  0.4327  0.0283
10305TIP3    H155110   2.240   6.522   6.981 -0.1350  1.0284 -0.5538
10305TIP3    H255111   2.374   6.501   7.048 -0.9335 -1.6631  0.3312
10306TIP3   OH255112   1.892   1.906   6.452 -0.3990  0.1756 -0.6243
10306TIP3    H155113   1.987   1.911   6.442 -0.2334  1.6495  1.1357
10306TIP3    H255114   1.858   1.979   6.400 -0.1853  2.1773  1.8128
10307TIP3   OH255115   3.966   2.887   8.209  0.3035  0.2890  0.2673
10307TIP3    H155116   3.967   2.883   8.305  0.5370  2.1529  0.3921
10307TIP3    H255117   4.046   2.934   8.186 -0.3519  0.9573 -0.7461
10308TIP3   OH255118   1.800   5.715   6.383 -0.1236  0.0456  0.4371
10308TIP3    H155119   1.826   5.802   6.354  2.3050 -0.1209  1.8357
10308TIP3    H255120   1.820   5.658   6.308  1.4971  0.2707  0.6646
10309TIP3   OH255121   1.794   5.848   7.907  0.1359 -0.0530 -0.6968
10309TIP3    H155122   1.856   5.912   7.944  0.4846  0.4743 -2.1189
10309TIP3    H255123   1.718   5.901   7.882  0.5551 -0.1140 -2.1779
10310TIP3   OH255124   5.314   1.478   7.624 -0.1023  1.1765  0.3480
10310TIP3    H155125   5.272   1.394   7.641 -0.0627  1.3127  1.1839
10310TIP3    H255126   5.342   1.474   7.533 -1.7633  0.9997 -0.1964
10311TIP3   OH255127   5.579   2.048   7.169  0.6640  0.2819 -0.4964
10311TIP3    H155128   5.493   2.086   7.153  0.1935  0.4166  1.9015
10311TIP3    H255129   5.641   2.117   7.146 -0.0692  1.5667  1.1571
10312TIP3   OH255130   6.353   6.589   7.441 -0.3388  0.3172  0.4019
10312TIP3    H155131   6.270   6.542   7.427  0.2496 -0.2995 -1.2165
10312TIP3    H255132   6.353   6.658   7.375  0.7197 -0.1118 -0.0731
10313TIP3   OH255133   5.575   2.074   6.430  0.0839 -0.0285 -0.2506
10313TIP3    H155134   5.498   2.131   6.437  2.0031  2.6182  0.8658
10313TIP3    H255135   5.627   2.112   6.360  0.5398 -1.6579 -0.8455
10314TIP3   OH255136   0.857   4.721   6.546 -0.0813 -0.1991 -0.0397
10314TIP3    H155137   0.865   4.749   6.455 -2.4884 -2.3390 -1.0438
10314TIP3    H255138   0.936   4.755   6.589  0.8165  1.4314 -2.7318
10315TIP3   OH255139   1.649   5.997   7.287 -0.4683  0.1035 -0.5178
10315TIP3    H155140   1.639   5.955   7.372 -2.0801  0.3250 -0.5717
10315TIP3    H255141   1.605   6.081   7.296  0.9838  0.9656 -1.0257
10316TIP3   OH255142   1.956   2.848   6.218  1.1555 -0.4469 -0.6972
10316TIP3    H155143   1.963   2.931   6.265  1.1557 -1.3120  0.9012
10316TIP3    H255144   2.041   2.836   6.177  2.5962 -1.4882  2.3263
10317TIP3   OH255145   4.360   4.564   7.826 -0.2597 -0.4355 -0.3611
10317TIP3    H155146   4.293   4.523   7.771  0.1386  1.0077 -2.0081
10317TIP3    H255147   4.441   4.520   7.801 -0.3377 -1.0825  0.4823
10318TIP3   OH255148   0.268   4.837   7.154  0.3853  0.3226  0.4920
10318TIP3    H155149   0.330   4.902   7.120  1.5566  0.3709  2.5462
10318TIP3    H255150   0.186   4.856   7.109  0.8671  2.8032  0.5287
10319TIP3   OH255151   1.632   2.593   6.250 -0.3922  0.3128  0.1484
10319TIP3    H155152   1.550   2.574   6.204 -1.1378  1.3807  0.9933
10319TIP3    H255153   1.662   2.676   6.211  0.3233 -0.0824 -0.1762
10320TIP3   OH255154   2.201   6.541   7.400  0.4194 -0.0409  0.4095
10320TIP3    H155155   2.121   6.515   7.355  0.5246  1.1811 -0.5379
10320TIP3    H255156   2.181   6.530   7.493 -0.3820 -1.0089  0.1322
10321TIP3   OH255157   1.444   3.783   7.494 -0.5166  0.4039 -0.5552
10321TIP3    H155158   1.407   3.859   7.539  0.5190  0.4075  0.3435
10321TIP3    H255159   1.497   3.739   7.561  2.4719  1.3282 -2.1471
10322TIP3   OH255160   3.973   2.617   7.827 -0.1871  0.0744 -0.2916
10322TIP3    H155161   3.927   2.535   7.808 -1.0246  0.7901 -1.5183
10322TIP3    H255162   3.940   2.644   7.913 -0.9226 -0.1959 -0.4833
10323TIP3   OH255163   5.931   6.673   7.381 -0.2349  0.9730  0.2225
10323TIP3    H155164   5.880   6.746   7.347  1.4183  1.9771 -0.2134
10323TIP3    H255165   5.997   6.656   7.314 -2.3554 -3.0476 -1.2168
10324TIP3   OH255166   3.010   5.520   9.253 -0.3708  0.3891 -0.2520
10324TIP3    H155167   3.094   5.526   9.298 -0.5104  0.5933 -0.0178
10324TIP3    H255168   2.950   5.483   9.317 -0.6589  1.0268 -0.1445
10325TIP3   OH255169   1.326   4.828   5.752 -0.6359 -0.1014 -0.2390
10325TIP3    H155170   1.355   4.837   5.661  1.4239 -2.2509  0.1046
10325TIP3    H255171   1.234   4.801   5.745 -0.5306 -0.1606 -1.6865
10326TIP3   OH255172   1.157   4.719   7.843  0.1731 -0.2034  0.1127
10326TIP3    H155173   1.090   4.715   7.775  0.6440  2.0197 -0.5732
10326TIP3    H255174   1.124   4.785   7.904  0.4767 -1.0800  1.2545
10327TIP3   OH255175   5.799   4.493   6.152  0.1627  0.3969  0.2711
10327TIP3    H155176   5.809   4.464   6.243  2.8084 -2.3931 -0.7300
10327TIP3    H255177   5.877   4.546   6.135  0.5862 -0.5165 -0.7814
10328TIP3   OH255178   5.484   3.604   5.511 -0.2682  0.1189 -0.2406
10328TIP3    H155179   5.507   3.517   5.544 -2.0499 -0.5421 -0.6500
10328TIP3    H255180   5.432   3.587   5.433 -0.4896  1.5619 -0.4348
10329TIP3   OH255181   5.091   0.658   6.315  0.5561 -0.1475  0.6100
10329TIP3    H155182   5.129   0.745   6.303  2.4974 -0.9903  0.2435
10329TIP3    H255183   5.024   0.670   6.382 -1.1224  2.1150 -1.3041
10330TIP3   OH255184   6.540   4.889   9.178  0.1838 -0.1174 -0.5407
10330TIP3    H155185   6.526   4.972   9.133 -1.8136 -0.6266 -0.9360
10330TIP3    H255186   6.533   4.910   9.271 -1.4767 -0.0057 -0.6711
10331TIP3   OH255187   1.104   6.543   7.243 -0.3170  0.6662 -0.1120
10331TIP3    H155188   1.135   6.466   7.291 -0.1741  0.7664 -0.0421
10331TIP3    H255189   1.082   6.606   7.312  3.4341  2.2540 -0.1362
10332TIP3   OH255190   4.768   0.783   7.904 -0.5859  0.1727 -0.4827
10332TIP3    H155191   4.679   0.812   7.886 -0.2154  0.8255 -1.3510
10332TIP3    H255192   4.823   0.855   7.874  0.3586 -1.3093 -2.5844
10333TIP3   OH255193   1.592   4.345   5.598  0.2209  0.0090 -0.8816
10333TIP3    H155194   1.624   4.258   5.623  0.1569 -0.1483 -1.3402
10333TIP3    H255195   1.597   4.396   5.678 -1.0093 -0.7875 -0.2562
10334TIP3   OH255196   5.019   3.352   5.945  0.2922 -0.2365  0.2917
10334TIP3    H155197   4.937   3.397   5.924 -0.3008 -0.8542  1.1804
10334TIP3    H255198   5.087   3.418   5.931 -0.3413  0.2684 -0.5224
10335TIP3   OH255199   5.051   2.474   7.885 -0.3969  0.8488  0.1287
10335TIP3    H155200   5.091   2.427   7.959 -0.4954  0.3697 -0.1156
10335TIP3    H255201   4.958   2.456   7.893 -0.6501  2.4520  1.0313
10336TIP3   OH255202   3.757   6.221   6.738 -0.2504 -0.3793 -0.0646
10336TIP3    H155203   3.758   6.168   6.818  0.5815 -1.2591 -0.6304
10336TIP3    H255204   3.828   6.186   6.685 -0.0188  0.9798 -0.6998
10337TIP3   OH255205   1.661   4.804   6.900 -0.1400 -0.0344 -0.4033
10337TIP3    H155206   1.590   4.766   6.847  0.7553 -2.3114 -0.1108
10337TIP3    H255207   1.623   4.815   6.987 -0.6780  0.6004 -0.7122
10338TIP3   OH255208   0.979   5.947   8.739  0.3220  0.0176 -0.1240
10338TIP3    H155209   0.911   5.882   8.757 -0.0369  0.6791  1.1117
10338TIP3    H255210   1.055   5.918   8.790  0.0729  0.6683  0.6561
10339TIP3   OH255211   2.226   6.073   5.875  0.1944  0.0969  0.3894
10339TIP3    H155212   2.295   6.128   5.913  0.3592 -0.5691  1.0931
10339TIP3    H255213   2.257   6.054   5.787 -0.1335  1.5732 -0.0740
10340TIP3   OH255214   4.046   0.164   7.048 -0.7573 -0.0703  0.0548
10340TIP3    H155215   4.097   0.210   7.114  0.6477 -0.1262 -0.9484
10340TIP3    H255216   3.970   0.130   7.096  0.2203 -0.1333  1.6438
10341TIP3   OH255217   0.302   5.218   5.868 -0.5500 -1.0135  0.2673
10341TIP3    H155218   0.242   5.223   5.794  0.6331  0.8143 -0.6466
10341TIP3    H255219   0.375   5.165   5.837  0.5053  0.7275 -0.3640
10342TIP3   OH255220   2.281   4.252   7.295 -0.1814 -0.2936 -0.1886
10342TIP3    H155221   2.332   4.171   7.284  0.3232  0.1307 -1.0810
10342TIP3    H255222   2.228   4.237   7.374  0.5184 -1.1690  0.1267
10343TIP3   OH255223   6.260   0.892   5.814  0.5520 -0.2906 -0.1045
10343TIP3    H155224   6.258   0.806   5.855  2.2894 -0.2793  0.0507
10343TIP3    H255225   6.291   0.876   5.725 -0.5815  0.0221 -0.5858
10344TIP3   OH255226   6.210   0.154   5.555 -0.5076 -0.3126 -0.2010
10344TIP3    H155227   6.221   0.179   5.463  0.6007 -0.0630 -0.0171
10344TIP3    H255228   6.149   0.218   5.590  0.1791  0.4723 -0.4172
10345TIP3   OH255229   6.458   1.661   8.032 -0.1832  0.1725  0.8185
10345TIP3    H155230   6.454   1.752   8.059 -0.4991  0.4486 -0.1198
10345TIP3    H255231   6.539   1.654   7.981 -1.3982  0.5678 -1.2726
10346TIP3   OH255232   6.239   2.498   8.850  0.9113  0.1039 -0.0868
10346TIP3    H155233   6.324   2.480   8.810  0.9983  0.0655  0.1193
10346TIP3    H255234   6.211   2.414   8.886  1.0526  0.2445  0.3601
10347TIP3   OH255235   2.047   5.214   7.171  0.1433 -0.4044 -0.5980
10347TIP3    H155236   2.109   5.144   7.150  1.6036  0.6877 -0.0664
10347TIP3    H255237   2.071   5.286   7.112 -1.4301 -0.3561 -1.2386
10348TIP3   OH255238   4.411   1.962   8.435  0.4581  0.4936 -0.0103
10348TIP3    H155239   4.418   1.957   8.531 -0.0901  1.5226  0.0925
10348TIP3    H255240   4.444   2.049   8.414  0.0741  0.4689 -0.7151
10349TIP3   OH255241   2.711   5.340   6.909 -0.3341  0.5241 -0.0398
10349TIP3    H155242   2.620   5.339   6.880 -0.7637 -0.1076  1.2649
10349TIP3    H255243   2.738   5.432   6.899 -0.9661  0.6356 -0.8310
10350TIP3   OH255244   3.027   0.855   7.123 -0.3184 -0.4795  0.5585
10350TIP3    H155245   3.098   0.791   7.116 -2.1346 -2.5486 -0.0175
10350TIP3    H255246   3.072   0.940   7.127  2.2087 -1.7599  1.7476
10351TIP3   OH255247   5.784   3.741   6.781  0.4433 -0.1513 -0.2554
10351TIP3    H155248   5.788   3.811   6.847 -2.6431  0.0211 -0.1321
10351TIP3    H255249   5.794   3.660   6.832 -0.7941  0.0283  0.2925
10352TIP3   OH255250   4.735   4.644   7.238 -0.0813  0.5452 -0.1228
10352TIP3    H155251   4.811   4.698   7.222 -0.0110  0.7267  0.7449
10352TIP3    H255252   4.665   4.682   7.185  0.6777 -0.2728 -1.7815
10353TIP3   OH255253   0.646   2.488   8.829  0.2783 -0.0086 -0.2645
10353TIP3    H155254   0.596   2.564   8.799  2.0910  0.9594 -1.0009
10353TIP3    H255255   0.696   2.520   8.905 -1.6453 -1.5068  1.7917
10354TIP3   OH255256   0.471   0.056   8.555  0.1002  0.0697  0.3881
10354TIP3    H155257   0.500   0.139   8.594  0.6926 -0.0114  0.1325
10354TIP3    H255258   0.552   0.007   8.542 -0.2383 -0.4884  0.3954
10355TIP3   OH255259   3.272   4.456   8.832 -0.6794  0.1908  0.2111
10355TIP3    H155260   3.193   4.403   8.843 -0.5615  0.0465  0.3719
10355TIP3    H255261   3.248   4.542   8.867 -0.9253  0.2976 -0.2076
10356TIP3   OH255262   6.251   4.767   8.226  0.3823  0.2560 -0.1614
10356TIP3    H155263   6.274   4.815   8.306  0.0360  0.6730 -0.3036
10356TIP3    H255264   6.189   4.701   8.255  0.7085  0.0250  0.0077
10357TIP3   OH255265   4.635   1.839   7.856 -0.0552 -0.3046  0.2260
10357TIP3    H155266   4.636   1.744   7.868 -1.2344 -0.7874 -2.7346
10357TIP3    H255267   4.710   1.871   7.908  1.5092 -3.0302 -0.1879
10358TIP3   OH255268   4.303   5.953   8.550  0.0827  0.0156  0.2433
10358TIP3    H155269   4.305   5.895   8.626  2.4648 -0.4431 -0.0870
10358TIP3    H255270   4.367   6.021   8.570  0.5516  0.0441 -1.2381
10359TIP3   OH255271   5.950   5.946   6.375 -0.2111 -0.4356 -0.5153
10359TIP3    H155272   5.925   5.854   6.361 -2.3423  0.0257 -0.1496
10359TIP3    H255273   5.881   5.981   6.431  1.1816  1.1177  0.3007
10360TIP3   OH255274   6.122   0.569   7.072 -0.4732  1.0506 -0.1824
10360TIP3    H155275   6.101   0.662   7.080 -0.5585  0.9494  0.9346
10360TIP3    H255276   6.215   0.563   7.093 -0.5825  0.8315  0.2657
10361TIP3   OH255277   0.491   2.525   7.509 -0.5590 -0.0288 -0.1839
10361TIP3    H155278   0.530   2.446   7.546  0.1836  0.5478  0.2803
10361TIP3    H255279   0.432   2.492   7.440  1.9439 -0.8705 -2.0715
10362TIP3   OH255280   4.739   2.061   8.397  0.0297  0.2135 -0.4157
10362TIP3    H155281   4.822   2.099   8.428  0.1899 -1.1874  1.0278
10362TIP3    H255282   4.684   2.137   8.377  0.9908  1.1950  0.5109
10363TIP3   OH255283   5.567   1.258   7.718 -0.3481  0.2689  0.6488
10363TIP3    H155284   5.652   1.216   7.733 -0.6367 -0.0517  1.4666
10363TIP3    H255285   5.580   1.312   7.640  0.0395 -1.3315 -0.4328
10364TIP3   OH255286   5.644   4.564   6.919 -0.1047 -0.1956  0.4753
10364TIP3    H155287   5.615   4.539   7.007  1.3252 -0.7007  0.8292
10364TIP3    H255288   5.706   4.635   6.934  0.3274 -0.4483 -0.1087
10365TIP3   OH255289   6.243   0.000   9.608  0.0306 -0.5805  0.5542
10365TIP3    H155290   6.223  -0.084   9.566  0.7377  0.4251 -1.9728
10365TIP3    H255291   6.170   0.057   9.581  1.9693  0.9077 -2.0253
10366TIP3   OH255292   5.388   4.007   5.802 -0.0395  1.1459 -0.0050
10366TIP3    H155293   5.351   4.045   5.882  2.0760  1.1857  1.0213
10366TIP3    H255294   5.451   4.073   5.772  1.0927 -0.0109 -0.2196
10367TIP3   OH255295   6.225   2.297   8.310  0.3676 -0.1565  0.4036
10367TIP3    H155296   6.142   2.329   8.277  0.8254 -0.6765 -1.3925
10367TIP3    H255297   6.250   2.228   8.248  2.9981  1.2201 -0.2233
10368TIP3   OH255298   6.652   0.618   5.851  0.2064 -0.6340 -0.6179
10368TIP3    H155299   6.586   0.683   5.827  0.2314 -0.5857 -0.5573
10368TIP3    H255300   6.617   0.576   5.930 -0.0064 -0.9829 -0.8938
10369TIP3   OH255301   4.564   3.580   5.613  0.8627  0.1160 -0.3570
10369TIP3    H155302   4.492   3.525   5.646  1.3311  0.1263  0.7262
10369TIP3    H255303   4.566   3.562   5.519 -0.4420 -0.0120 -0.3820
10370TIP3   OH255304   1.440   4.729   7.781 -0.3353 -0.6923 -0.5148
10370TIP3    H155305   1.350   4.715   7.809  0.5155 -0.1418  3.0847
10370TIP3    H255306   1.437   4.809   7.728 -1.8345 -0.0922  0.4262
10371TIP3   OH255307   5.865   2.517   6.909 -0.1199 -0.2323  0.2978
10371TIP3    H155308   5.926   2.467   6.962 -0.5811 -2.1755 -0.8949
10371TIP3    H255309   5.794   2.540   6.969 -0.2861 -1.7426  0.7229
10372TIP3   OH255310   3.452   4.582   6.960 -0.0455 -0.8236 -0.4305
10372TIP3    H155311   3.513   4.541   6.899  0.3903  0.5638 -0.9866
10372TIP3    H255312   3.375   4.526   6.959 -0.6547 -0.0958 -3.4210
10373TIP3   OH255313   5.630   5.782   8.546 -0.4030  0.9567 -0.5875
10373TIP3    H155314   5.565   5.808   8.611 -0.3276  1.2130 -0.6152
10373TIP3    H255315   5.670   5.864   8.518  2.5266  0.6506  2.0987
10374TIP3   OH255316   6.441   5.250   8.502 -0.1834  0.1483  0.1279
10374TIP3    H155317   6.522   5.199   8.510 -0.9867 -0.8956  2.4256
10374TIP3    H255318   6.411   5.234   8.412 -0.9491 -4.4187  0.9828
10375TIP3   OH255319   1.705   6.219   8.211  0.1950 -0.6061 -0.2132
10375TIP3    H155320   1.775   6.284   8.203  0.9995 -1.5761 -1.3791
10375TIP3    H255321   1.746   6.146   8.258 -0.2668 -0.8780 -0.2258
10376TIP3   OH255322   5.173   5.447   5.909  0.4384  0.0776  0.7721
10376TIP3    H155323   5.173   5.496   5.992  0.9061  1.4852 -0.0312
10376TIP3    H255324   5.100   5.482   5.860 -0.2943 -1.2762  0.8458
10377TIP3   OH255325   5.580   6.499   7.955 -0.0449  0.0539  0.1847
10377TIP3    H155326   5.524   6.568   7.920  1.0309  1.3758  0.9906
10377TIP3    H255327   5.534   6.418   7.933 -0.7461  0.9296 -1.8512
10378TIP3   OH255328   3.367   2.840   7.743 -0.4479 -0.5698  0.2244
10378TIP3    H155329   3.431   2.798   7.686 -0.9178  1.0304 -1.5814
10378TIP3    H255330   3.419   2.896   7.800 -0.1454  0.1126 -0.6990
10379TIP3   OH255331   4.403   3.908   8.105 -1.0397 -0.1588 -0.2382
10379TIP3    H155332   4.321   3.957   8.116 -0.9205 -0.2358  1.2393
10379TIP3    H255333   4.393   3.832   8.163  1.4984  1.7156  3.0404
10380TIP3   OH255334   3.431   4.376   6.226 -0.4501 -1.0445 -0.2543
10380TIP3    H155335   3.464   4.329   6.302  3.4158  0.9218 -0.4878
10380TIP3    H255336   3.497   4.361   6.158 -1.2398  1.2125 -1.6211
10381TIP3   OH255337   4.496   6.387   5.879  0.0797 -0.0183  0.3479
10381TIP3    H155338   4.491   6.293   5.861 -0.8434 -0.2994  1.9560
10381TIP3    H255339   4.490   6.395   5.974 -0.0049  1.6840  0.2434
10382TIP3   OH255340   2.453   1.003   5.702 -0.4785 -0.4561  0.2698
10382TIP3    H155341   2.426   0.917   5.736 -0.9898 -1.3008 -2.0722
10382TIP3    H255342   2.377   1.059   5.719 -0.6079 -0.7750  0.7748
10383TIP3   OH255343   5.712   4.180   6.833  0.4587  0.6500 -0.2347
10383TIP3    H155344   5.619   4.170   6.853  0.3361  1.5626 -0.3049
10383TIP3    H255345   5.744   4.242   6.899  0.6124  1.7100 -1.2782
10384TIP3   OH255346   4.082   3.969   6.283  0.8262 -0.1681 -0.0160
10384TIP3    H155347   4.165   3.933   6.316  0.0380  0.0870  2.4097
10384TIP3    H255348   4.045   4.016   6.358  0.0154  2.5702 -1.9643
10385TIP3   OH255349   2.903   4.488   5.855  0.0910 -0.4100  0.2884
10385TIP3    H155350   2.910   4.414   5.915  3.9360  0.1789  0.8017
10385TIP3    H255351   2.965   4.468   5.785 -0.6547  1.2196 -0.9165
10386TIP3   OH255352   4.922   3.067   6.347  0.4399  0.4505 -0.2286
10386TIP3    H155353   4.957   3.090   6.433 -1.9319  0.2382  0.8549
10386TIP3    H255354   4.908   3.152   6.304  0.5781  0.6020  0.0244
10387TIP3   OH255355   5.816   4.150   5.635 -0.2488  0.1167 -0.3212
10387TIP3    H155356   5.736   4.198   5.658 -0.0398 -0.1034  0.9536
10387TIP3    H255357   5.850   4.195   5.557 -1.1215  0.7832 -0.3270
10388TIP3   OH255358   2.122   2.877   8.077 -0.3166  0.4929 -0.6593
10388TIP3    H155359   2.090   2.840   7.994  0.2842  0.6698 -0.9756
10388TIP3    H255360   2.215   2.894   8.061 -0.6782  2.6785 -0.7155
10389TIP3   OH255361   0.020   2.902   7.518  0.0296 -0.4813 -0.0319
10389TIP3    H155362  -0.039   2.960   7.470  0.0931  2.3935  2.9875
10389TIP3    H255363  -0.034   2.828   7.543 -0.8890 -0.3689 -1.5897
10390TIP3   OH255364   6.356   4.151   6.633  0.1162  0.1279 -0.8133
10390TIP3    H155365   6.369   4.242   6.607 -2.4839  0.5816 -0.8076
10390TIP3    H255366   6.308   4.156   6.716  0.0501 -1.2454 -0.7401
10391TIP3   OH255367   4.927   3.694   8.325 -0.0965  0.5014 -0.4964
10391TIP3    H155368   4.958   3.740   8.404 -1.1356  0.3685  0.0044
10391TIP3    H255369   4.990   3.624   8.312  2.3734  2.8253 -2.0989
10392TIP3   OH255370   4.092   2.439   8.547  0.1516 -0.5082 -0.2035
10392TIP3    H155371   4.170   2.469   8.595  0.3315 -0.5845 -0.4464
10392TIP3    H255372   4.027   2.422   8.615  0.1989 -0.0048 -0.0340
10393TIP3   OH255373   2.473   6.301   7.868 -0.3242 -0.1443  0.6101
10393TIP3    H155374   2.567   6.291   7.879 -0.0673  0.5691 -0.6998
10393TIP3    H255375   2.443   6.344   7.948  0.7645  1.2002  0.3276
10394TIP3   OH255376   4.424   2.023   5.943 -0.1598 -0.2033  0.4273
10394TIP3    H155377   4.346   1.981   5.906  0.4707 -1.3788  0.3941
10394TIP3    H255378   4.492   2.010   5.876  0.0366  0.9256  0.3991
10395TIP3   OH255379   1.077   4.910   7.998  0.6356  0.3130 -0.6260
10395TIP3    H155380   1.125   4.933   8.078 -0.4871  0.8003 -0.0633
10395TIP3    H255381   1.013   4.980   7.988 -3.0495 -2.4179  1.2631
10396TIP3   OH255382   2.859   5.205   6.319  0.2030  0.3271 -0.4979
10396TIP3    H155383   2.924   5.137   6.298 -1.1231 -0.7315 -1.3793
10396TIP3    H255384   2.853   5.204   6.414  1.4988  0.4787 -0.3980
10397TIP3   OH255385   5.508   5.875   7.254  0.2227  0.5397 -0.2311
10397TIP3    H155386   5.485   5.796   7.206 -0.8232  1.0334 -0.5692
10397TIP3    H255387   5.570   5.921   7.198  0.1851  0.3613 -0.4171
10398TIP3   OH255388   4.358   5.790   8.757  0.4644  0.1153 -0.4213
10398TIP3    H155389   4.445   5.752   8.775  0.5129 -0.2858 -1.4113
10398TIP3    H255390   4.354   5.867   8.812  1.6605  0.4152 -0.7127
10399TIP3   OH255391   0.834   6.089   8.232  1.0691  0.2521  0.1443
10399TIP3    H155392   0.811   6.073   8.323  0.9021 -0.9952 -0.1039
10399TIP3    H255393   0.886   6.170   8.234  1.8323 -0.2426  1.4556
10400TIP3   OH255394   5.537   0.203   6.122 -0.5256 -0.5999 -0.4502
10400TIP3    H155395   5.485   0.239   6.194 -0.0387 -1.2824  0.2569
10400TIP3    H255396   5.475   0.192   6.050 -1.1946 -0.6944  0.1337
10401TIP3   OH255397   1.036   0.430   7.876  0.2301  0.0093  0.5730
10401TIP3    H155398   1.023   0.344   7.916 -2.0204 -0.2100 -0.4724
10401TIP3    H255399   1.035   0.413   7.781 -0.0052  1.1593  0.3551
10402TIP3   OH255400   4.878   2.281   7.461 -0.3109 -0.4539 -0.0699
10402TIP3    H155401   4.870   2.359   7.406  0.3726 -0.3985 -0.1022
10402TIP3    H255402   4.932   2.310   7.535  0.1452 -0.9583 -0.2033
10403TIP3   OH255403   4.180   0.556   8.443 -0.1779 -0.7151  0.0725
10403TIP3    H155404   4.136   0.491   8.498 -0.8849 -0.3720 -0.0733
10403TIP3    H255405   4.142   0.544   8.356 -0.5797  0.1267  0.1232
10404TIP3   OH255406   2.653   4.843   5.407  0.6240 -0.6246 -0.3971
10404TIP3    H155407   2.583   4.877   5.350 -0.0492  0.1024  0.8207
10404TIP3    H255408   2.617   4.850   5.495  2.2069 -0.3212  0.2544
10405TIP3   OH255409   3.548   3.308   7.906 -0.4013  0.1735  0.5701
10405TIP3    H155410   3.628   3.294   7.856  0.2043  2.3931  0.7755
10405TIP3    H255411   3.490   3.237   7.879  1.4171 -1.1808  0.0022
10406TIP3   OH255412   3.584   4.566   9.038 -0.3199 -0.0754  0.8307
10406TIP3    H155413   3.644   4.560   9.112  1.0133 -0.6448 -0.2366
10406TIP3    H255414   3.559   4.475   9.020 -0.3234  0.0164  0.3518
10407TIP3   OH255415   4.996   1.293   6.030 -0.2625  0.3432  0.3557
10407TIP3    H155416   5.085   1.291   6.065  0.2731  2.3645 -0.7331
10407TIP3    H255417   4.943   1.326   6.103 -0.7741 -3.6464  2.0322
10408TIP3   OH255418   0.472   6.750   7.949 -0.0082 -0.2162 -0.2237
10408TIP3    H155419   0.530   6.675   7.962  0.5215  0.1262 -0.5848
10408TIP3    H255420   0.385   6.717   7.972  0.3733 -0.6356  0.6888
10409TIP3   OH255421   3.484   4.152   7.384  0.4877 -0.5732 -0.8635
10409TIP3    H155422   3.459   4.067   7.348 -1.1941 -0.4029 -0.2129
10409TIP3    H255423   3.483   4.139   7.479  1.7900 -0.2196 -0.7801
10410TIP3   OH255424   0.218   5.480   6.523 -0.2123 -0.4390 -0.1061
10410TIP3    H155425   0.297   5.427   6.515 -0.2449 -0.3924 -0.7560
10410TIP3    H255426   0.191   5.469   6.615  2.6118  2.5102  1.2536
10411TIP3   OH255427   3.406   6.183   8.362 -0.4309 -0.6698 -0.2740
10411TIP3    H155428   3.398   6.234   8.443  0.4574  0.1943 -0.7145
10411TIP3    H255429   3.323   6.135   8.356 -0.3785 -0.9952  1.3009
10412TIP3   OH255430   2.373   3.980   8.592  0.0513  0.0683  0.0829
10412TIP3    H155431   2.432   4.049   8.561  0.6421 -0.1246  0.7820
10412TIP3    H255432   2.430   3.910   8.622 -0.5440 -0.5055 -0.0834
10413TIP3   OH255433   2.716   1.629   6.245  0.5744  0.7360 -0.0631
10413TIP3    H155434   2.798   1.677   6.255  1.3563 -0.6910  0.6380
10413TIP3    H255435   2.676   1.631   6.332  1.2053 -0.8483  0.3082
10414TIP3   OH255436   0.487   2.792   7.449  0.3445 -0.4682 -0.0083
10414TIP3    H155437   0.551   2.861   7.468  0.2720 -0.2560 -0.5050
10414TIP3    H255438   0.525   2.713   7.485  1.2971 -0.4999 -1.0639
10415TIP3   OH255439   6.022   3.813   5.943  0.0251 -0.1492  0.0314
10415TIP3    H155440   6.068   3.730   5.933  0.4118  0.2618 -2.1070
10415TIP3    H255441   6.081   3.868   5.995  0.5336 -0.6480 -0.0120
10416TIP3   OH255442   3.153   1.001   6.235 -0.4620  0.3349  0.3703
10416TIP3    H155443   3.233   1.006   6.287 -1.2575 -1.2763  1.8547
10416TIP3    H255444   3.127   0.909   6.239 -2.3266  0.7847 -0.1511
10417TIP3   OH255445   6.573   4.834   8.499 -0.1726 -0.1173 -0.2202
10417TIP3    H155446   6.639   4.856   8.565 -0.2143 -1.7120  0.3988
10417TIP3    H255447   6.508   4.783   8.547 -2.1365  1.8033 -0.7077
10418TIP3   OH255448   5.516   1.886   8.498  0.2177  0.0294 -0.1041
10418TIP3    H155449   5.582   1.953   8.510  0.3012 -0.1147  0.2546
10418TIP3    H255450   5.442   1.931   8.458  1.0904 -0.1058 -1.9839
10419TIP3   OH255451   3.423   5.071   7.529  0.7025  0.4417 -0.2591
10419TIP3    H155452   3.348   5.112   7.486  0.3790  0.8054  0.6235
10419TIP3    H255453   3.412   4.978   7.510  0.2562  0.5330 -0.4850
10420TIP3   OH255454   3.189   3.451   9.141 -0.2763  0.2086 -0.0376
10420TIP3    H155455   3.142   3.390   9.084 -0.0924 -0.2979  0.3401
10420TIP3    H255456   3.172   3.417   9.229  1.7162 -0.6653  0.0544
10421TIP3   OH255457   5.990   2.207   5.853  0.4508  0.1789 -0.6952
10421TIP3    H155458   6.047   2.130   5.855  1.7958  1.1595  0.4886
10421TIP3    H255459   5.930   2.194   5.926  0.3522  0.0285 -0.8021
10422TIP3   OH255460   2.118   4.983   5.586  0.1537  0.4572 -0.8870
10422TIP3    H155461   2.113   4.920   5.514  1.6830  0.2004 -0.8030
10422TIP3    H255462   2.204   5.025   5.576 -0.9520  2.8335 -1.1634
10423TIP3   OH255463   1.131   4.199   6.174  0.2476 -0.2824  0.2002
10423TIP3    H155464   1.132   4.149   6.093 -1.8781  0.7631 -0.5366
10423TIP3    H255465   1.191   4.272   6.158 -0.0202 -0.1849 -0.3719
10424TIP3   OH255466   0.103   0.261   9.085  0.0826  0.2992  0.4826
10424TIP3    H155467   0.159   0.202   9.136  2.8076  0.8902 -1.5870
10424TIP3    H255468   0.142   0.347   9.099 -0.6528  0.8243 -0.6188
10425TIP3   OH255469   2.381   0.625   7.313 -0.1958  0.2090  0.5546
10425TIP3    H155470   2.437   0.578   7.376  0.6714  0.7140  0.1827
10425TIP3    H255471   2.295   0.628   7.355  0.6256  1.5643  2.2926
10426TIP3   OH255472   1.757   1.009   7.184 -0.4881 -0.6259 -0.5426
10426TIP3    H155473   1.720   0.923   7.206  1.4560 -1.2548  0.5191
10426TIP3    H255474   1.799   0.996   7.100  0.0633 -0.8157 -0.2429
10427TIP3   OH255475   5.630   1.290   5.895 -0.0342 -0.3988 -0.5045
10427TIP3    H155476   5.564   1.302   5.827  1.5623  3.5732 -1.6345
10427TIP3    H255477   5.625   1.370   5.948  1.5062 -1.5793  1.6072
10428TIP3   OH255478   4.600   6.042   9.323  0.7779  0.3794 -0.3140
10428TIP3    H155479   4.666   6.065   9.388  0.2849  0.2957  0.2205
10428TIP3    H255480   4.608   6.111   9.256  1.9457 -0.0714 -0.6690
10429TIP3   OH255481   4.685   4.583   6.724  0.1265 -0.3529  0.1260
10429TIP3    H155482   4.706   4.655   6.783  0.6609  0.1150 -0.6198
10429TIP3    H255483   4.705   4.504   6.775 -2.8125 -0.1210  1.8787
10430TIP3   OH255484   5.727   0.325   5.779 -0.3649 -0.3888  0.1026
10430TIP3    H155485   5.662   0.264   5.745  1.0050  0.2279 -4.1904
10430TIP3    H255486   5.684   0.410   5.775  0.2967 -0.0977 -1.9092
10431TIP3   OH255487   2.910   4.544   6.178 -0.1145 -0.3051  0.5443
10431TIP3    H155488   2.906   4.450   6.159 -0.5855 -0.4081  1.1027
10431TIP3    H255489   2.969   4.551   6.254  0.8945 -0.0148 -0.2453
10432TIP3   OH255490   2.420   6.327   8.128  0.4255 -0.0752  0.6283
10432TIP3    H155491   2.413   6.386   8.203  2.9358  1.1656 -0.0103
10432TIP3    H255492   2.488   6.265   8.154 -1.0026 -1.7252  0.6179
10433TIP3   OH255493   2.189   1.058   7.707  0.2170 -0.2609  0.2486
10433TIP3    H155494   2.187   0.963   7.697 -0.4008 -0.3056  0.7207
10433TIP3    H255495   2.161   1.074   7.797 -1.5136  0.4376 -0.3637
10434TIP3   OH255496   4.980   4.656   7.599 -0.1939 -0.0468 -0.3271
10434TIP3    H155497   5.063   4.644   7.552  0.6277  0.0175  1.0694
10434TIP3    H255498   5.005   4.661   7.691 -1.5700  1.7289  0.0064
10435TIP3   OH255499   0.605   2.853   7.174 -0.0425 -0.3341  0.2537
10435TIP3    H155500   0.658   2.777   7.151  1.1067  0.1173  1.2418
10435TIP3    H255501   0.641   2.882   7.258 -1.2306  0.5929  0.4668
10436TIP3   OH255502   5.792   1.110   5.767 -0.0218  0.2749 -0.2498
10436TIP3    H155503   5.858   1.158   5.717  0.1200  0.1979 -0.1379
10436TIP3    H255504   5.739   1.178   5.808 -0.1901  0.3393 -0.5705
10437TIP3   OH255505   4.306   0.654   5.492 -0.9022 -0.3670 -0.2456
10437TIP3    H155506   4.304   0.561   5.471 -2.3792 -0.4269 -0.0112
10437TIP3    H255507   4.397   0.672   5.516 -1.0849 -2.4089  2.5226
10438TIP3   OH255508   6.087   3.522   8.168  0.3283 -0.5312  0.1925
10438TIP3    H155509   6.103   3.428   8.177 -1.0864 -0.8147 -0.0112
10438TIP3    H255510   6.024   3.543   8.236  1.2610  0.4720  0.7888
10439TIP3   OH255511   0.472   0.306   5.801 -0.5508 -0.2500  0.2320
10439TIP3    H155512   0.557   0.270   5.775 -0.3812  0.4257 -0.1776
10439TIP3    H255513   0.417   0.229   5.815 -0.3745 -0.6792 -1.2559
   6.75281   6.75281  30.00000
